Title
55513
    1DOPE     N    1   1.405   4.227   7.431  0.0885 -0.1307 -0.0054
    1DOPE   HN1    2   1.323   4.163   7.419  1.4294 -2.8440  3.4193
    1DOPE   HN2    3   1.474   4.213   7.355  1.3516 -1.4437  1.3061
    1DOPE   HN3    4   1.443   4.204   7.525  0.2930  0.9847  0.1985
    1DOPE   C12    5   1.348   4.364   7.431 -0.1392  0.2738  0.4566
    1DOPE  H12A    6   1.425   4.435   7.469  1.0971 -1.4640  1.3456
    1DOPE  H12B    7   1.258   4.370   7.497 -0.9268  0.9512 -0.6490
    1DOPE   C11    8   1.316   4.407   7.288  0.3986 -0.8742  0.3891
    1DOPE  H11A    9   1.407   4.433   7.229 -0.4850 -2.0157 -1.5829
    1DOPE  H11B   10   1.254   4.499   7.297  1.4704 -0.0655 -0.2183
    1DOPE     P   11   1.169   4.326   7.084 -0.1571 -0.0965 -0.0485
    1DOPE   O13   12   1.049   4.409   7.098  0.5752  0.2100  0.0637
    1DOPE   O14   13   1.149   4.196   7.023 -0.2262  0.2846  0.0195
    1DOPE   O11   14   1.278   4.411   7.000 -0.5995  0.4214  0.8443
    1DOPE   O12   15   1.233   4.304   7.223  0.4069 -0.3409  0.1136
    1DOPE    C1   16   1.394   4.339   6.946 -0.0959  0.0248 -0.0903
    1DOPE    HA   17   1.407   4.236   6.985  0.8385  0.4272  0.7184
    1DOPE    HB   18   1.488   4.391   6.974  0.8554 -0.6520 -1.8908
    1DOPE    C2   19   1.388   4.328   6.795 -0.0032 -0.3262  0.0396
    1DOPE    HS   20   1.480   4.275   6.761  0.8538  1.2945 -0.2841
    1DOPE   O21   21   1.382   4.464   6.740  0.2645 -0.0353 -0.2124
    1DOPE   C21   22   1.492   4.529   6.733  0.7343 -0.3809  0.2483
    1DOPE   O22   23   1.605   4.488   6.751  0.0666  0.2813  0.3829
    1DOPE   C22   24   1.464   4.672   6.701 -0.3128  0.1145 -0.1366
    1DOPE   H2R   25   1.545   4.732   6.747 -0.9012  0.1608  0.8937
    1DOPE   H2S   26   1.372   4.716   6.746  0.1754 -1.2268  2.3439
    1DOPE    C3   27   1.280   4.234   6.742  0.2233  0.1189  0.6291
    1DOPE    HX   28   1.182   4.271   6.779 -0.1177 -2.5040  2.6446
    1DOPE    HY   29   1.295   4.142   6.802 -3.3970 -2.0062 -1.3509
    1DOPE   O31   30   1.295   4.219   6.601 -0.0878  0.4536 -0.1410
    1DOPE   C31   31   1.229   4.293   6.524  0.1957  0.4693 -0.2060
    1DOPE   O32   32   1.152   4.387   6.551 -0.8252  0.3693 -0.2568
    1DOPE   C32   33   1.275   4.245   6.385  0.3213 -0.5403  0.1582
    1DOPE   H2X   34   1.346   4.318   6.341 -2.4721  1.7895 -0.7858
    1DOPE   H2Y   35   1.329   4.148   6.391  1.1778 -0.1999 -1.4233
    1DOPE   C23   36   1.489   4.696   6.552 -0.2238  0.0348  0.2914
    1DOPE   H3R   37   1.596   4.676   6.530 -0.3226 -0.5500  0.3222
    1DOPE   H3S   38   1.465   4.802   6.531  1.2864  0.3733  0.1641
    1DOPE   C24   39   1.388   4.612   6.464  0.0556  0.5135  0.2476
    1DOPE   H4R   40   1.289   4.622   6.512  0.2924  0.5103  0.7526
    1DOPE   H4S   41   1.423   4.507   6.467 -2.3008 -0.4147 -1.7170
    1DOPE   C25   42   1.395   4.646   6.309 -0.2194  0.0675 -0.0003
    1DOPE   H5R   43   1.411   4.754   6.287  0.4846 -0.1599 -0.6664
    1DOPE   H5S   44   1.299   4.618   6.260  0.1808 -1.0657 -0.1711
    1DOPE   C26   45   1.507   4.565   6.236 -0.2857 -0.4213 -0.1176
    1DOPE   H6R   46   1.453   4.487   6.178 -0.4480 -0.7153  0.4206
    1DOPE   H6S   47   1.587   4.524   6.302 -0.4205 -0.1021  0.2468
    1DOPE   C27   48   1.580   4.649   6.133  0.0940 -0.3346  1.6631
    1DOPE   H7R   49   1.687   4.667   6.160  0.1811  0.7818  0.6466
    1DOPE   H7S   50   1.552   4.756   6.126  0.5023 -0.3137 -0.1744
    1DOPE   C28   51   1.568   4.583   6.000 -0.2283  0.1772  0.0008
    1DOPE   H8R   52   1.614   4.651   5.925 -1.6885  1.0312 -0.1512
    1DOPE   H8S   53   1.464   4.567   5.966 -0.0620  0.0439 -0.4591
    1DOPE   C29   54   1.635   4.456   5.986 -1.0276 -0.1619  0.2604
    1DOPE   H9R   55   1.734   4.447   6.034 -2.1162 -1.2707  2.4597
    1DOPE  C210   56   1.605   4.344   5.922  0.4970 -0.5179 -0.0401
    1DOPE  H10R   57   1.663   4.251   5.933  2.4323  0.6588  0.2615
    1DOPE  C211   58   1.484   4.332   5.832  0.1853 -0.0687 -1.2063
    1DOPE  H11R   59   1.442   4.431   5.803 -1.0809  0.2724  1.4420
    1DOPE  H11S   60   1.398   4.268   5.861 -0.5222  0.6606 -1.6434
    1DOPE  C212   61   1.514   4.277   5.685  0.5323 -0.0778  0.1982
    1DOPE  H12R   62   1.419   4.282   5.628  0.4072 -0.9342  0.3182
    1DOPE  H12S   63   1.557   4.176   5.704  0.3146 -0.2770 -0.3450
    1DOPE  C213   64   1.619   4.354   5.607 -0.1654 -0.3497  0.3700
    1DOPE  H13R   65   1.721   4.351   5.651  0.3208  1.5592 -0.5289
    1DOPE  H13S   66   1.598   4.460   5.583  1.4190 -0.4150 -1.5559
    1DOPE  C214   67   1.633   4.297   5.463 -0.1467  0.1838  0.0394
    1DOPE  H14R   68   1.530   4.312   5.423 -0.4560  1.1634  1.1228
    1DOPE  H14S   69   1.647   4.188   5.474 -0.9447  0.0449 -0.2313
    1DOPE  C215   70   1.753   4.368   5.388 -0.3179 -0.3416 -0.3229
    1DOPE  H15R   71   1.833   4.394   5.460  0.3696 -1.7103 -0.5694
    1DOPE  H15S   72   1.718   4.470   5.360 -0.1775  0.2707  1.6363
    1DOPE  C216   73   1.803   4.293   5.267 -0.1518 -0.4483  0.0063
    1DOPE  H16R   74   1.865   4.203   5.282 -0.0212 -0.2211  0.8554
    1DOPE  H16S   75   1.878   4.353   5.212  0.1476 -1.0521 -0.2500
    1DOPE  C217   76   1.700   4.260   5.155 -0.3544 -0.7146  0.1437
    1DOPE  H17R   77   1.618   4.202   5.202 -0.2728 -0.6775  0.3344
    1DOPE  H17S   78   1.748   4.192   5.081  1.6210  0.3471  0.3764
    1DOPE  C218   79   1.644   4.380   5.080  0.6391  0.5724 -0.4761
    1DOPE  H18R   80   1.602   4.453   5.153 -0.7640 -1.9509  1.3843
    1DOPE  H18S   81   1.560   4.348   5.014  0.4385 -1.1196  0.5431
    1DOPE  H18T   82   1.719   4.433   5.017  2.9240 -0.5629  1.1421
    1DOPE   C33   83   1.151   4.229   6.283 -0.6562  0.1566 -0.3113
    1DOPE   H3X   84   1.099   4.327   6.294  0.4538  0.7288  0.0322
    1DOPE   H3Y   85   1.082   4.152   6.320  0.8080 -1.8737 -1.5834
    1DOPE   C34   86   1.196   4.195   6.137  0.2609 -0.6311 -0.8721
    1DOPE   H4X   87   1.304   4.221   6.128 -0.0365  1.7570  1.1904
    1DOPE   H4Y   88   1.183   4.086   6.125  1.6489 -1.1237  1.3847
    1DOPE   C35   89   1.122   4.288   6.038  0.0222 -0.0484  0.3596
    1DOPE   H5X   90   1.013   4.276   6.057  0.1959 -0.7329  1.0015
    1DOPE   H5Y   91   1.129   4.244   5.936 -0.4717  0.5119  0.0772
    1DOPE   C36   92   1.168   4.437   6.037 -0.3716  0.9133 -0.1172
    1DOPE   H6X   93   1.278   4.448   6.027 -0.3921  0.7836 -0.4883
    1DOPE   H6Y   94   1.145   4.484   6.136  2.7832  1.8001  0.3128
    1DOPE   C37   95   1.095   4.520   5.931  0.4761  0.3286 -0.3697
    1DOPE   H7X   96   1.117   4.491   5.826  2.7457 -0.1381  0.1817
    1DOPE   H7Y   97   0.990   4.492   5.953  0.9427 -1.5391 -0.3572
    1DOPE   C38   98   1.131   4.663   5.945 -0.0204 -0.3638  0.6712
    1DOPE   H8X   99   1.235   4.679   5.981  0.3004 -1.2816  0.1937
    1DOPE   H8Y  100   1.065   4.699   6.027  0.5960  0.7923  0.6817
    1DOPE   C39  101   1.116   4.741   5.814 -0.0458 -0.4881  0.3912
    1DOPE   H9X  102   1.012   4.773   5.796  0.5746  1.2513 -0.3447
    1DOPE  C310  103   1.207   4.810   5.739 -0.0533 -0.3421 -0.6145
    1DOPE  H10X  104   1.177   4.845   5.639  0.2934 -0.3148 -0.7116
    1DOPE  C311  105   1.358   4.812   5.758 -0.0494 -0.1813  0.3574
    1DOPE  H11X  106   1.391   4.919   5.762  2.6728 -0.9323  0.4461
    1DOPE  H11Y  107   1.390   4.767   5.854  0.6361  0.3566  0.3924
    1DOPE  C312  108   1.454   4.740   5.658 -0.4007 -0.2801  0.5090
    1DOPE  H12X  109   1.415   4.767   5.557  0.4767  0.1812  0.2827
    1DOPE  H12Y  110   1.450   4.629   5.653 -0.0491 -0.2546 -1.0256
    1DOPE  C313  111   1.605   4.774   5.657 -0.4269 -0.2952 -0.3433
    1DOPE  H13X  112   1.623   4.877   5.694  1.5426 -0.1165 -1.6441
    1DOPE  H13Y  113   1.653   4.705   5.730  0.8643  0.5561 -0.3551
    1DOPE  C314  114   1.674   4.753   5.516  0.3124  0.1510 -0.4369
    1DOPE  H14X  115   1.629   4.826   5.445  0.5199  0.0977 -0.6261
    1DOPE  H14Y  116   1.645   4.652   5.480  0.5231  0.4861 -1.6048
    1DOPE  C315  117   1.826   4.776   5.495  0.1841 -0.0005  0.0033
    1DOPE  H15X  118   1.835   4.884   5.522 -0.2493 -0.1049  0.5993
    1DOPE  H15Y  119   1.847   4.759   5.388 -0.3753  0.3448 -0.1689
    1DOPE  C316  120   1.922   4.689   5.581 -0.1013  0.4485  0.2336
    1DOPE  H16X  121   1.875   4.589   5.577  1.0573 -0.0783 -1.6754
    1DOPE  H16Y  122   1.914   4.721   5.687  0.3772 -3.6309  1.6791
    1DOPE  C317  123   2.067   4.683   5.533  0.0346  0.0715  0.2200
    1DOPE  H17X  124   2.104   4.788   5.536 -3.4962  1.5121 -1.2855
    1DOPE  H17Y  125   2.124   4.627   5.611  0.8733 -1.7121 -1.5822
    1DOPE  C318  126   2.081   4.602   5.399 -0.3021  0.7928 -0.3867
    1DOPE  H18X  127   2.038   4.500   5.410  1.4064  0.2462  1.9193
    1DOPE  H18Y  128   2.026   4.646   5.313 -3.2096 -0.7645  0.5324
    1DOPE  H18Z  129   2.187   4.592   5.368 -0.3931  1.6131 -0.9710
    2DOPE     N  130   2.958   4.497   7.376 -0.0346 -0.7283  0.2947
    2DOPE   HN1  131   2.959   4.586   7.429  0.3275 -1.6517  1.9033
    2DOPE   HN2  132   2.873   4.445   7.409 -0.5021 -0.2562 -0.1503
    2DOPE   HN3  133   3.043   4.439   7.388  1.3455  0.7847 -1.6725
    2DOPE   C12  134   2.956   4.535   7.233 -0.5097  0.1559 -0.0206
    2DOPE  H12A  135   2.849   4.556   7.212 -0.8998 -0.2629  1.4509
    2DOPE  H12B  136   2.986   4.446   7.174 -0.3716 -0.0435  0.3443
    2DOPE   C11  137   3.030   4.661   7.193  0.0288 -0.0384  0.3864
    2DOPE  H11A  138   3.009   4.675   7.085  1.9216  0.1931  0.0129
    2DOPE  H11B  139   3.141   4.650   7.193  0.0629 -0.1978 -2.0899
    2DOPE     P  140   2.904   4.888   7.245  0.6409  0.3270 -0.4595
    2DOPE   O13  141   2.953   5.010   7.315 -0.0651  0.0474  0.0553
    2DOPE   O14  142   2.764   4.844   7.272 -0.0273 -0.4331 -0.0682
    2DOPE   O11  143   2.929   4.907   7.094 -0.1280 -0.0637 -0.0695
    2DOPE   O12  144   2.996   4.770   7.281 -0.7379  0.4475  0.1131
    2DOPE    C1  145   2.831   4.951   6.998  0.0855 -0.1311  0.4915
    2DOPE    HA  146   2.877   4.989   6.905  1.5574 -3.0167 -0.0779
    2DOPE    HB  147   2.763   5.029   7.040  0.8648 -0.4038  2.3347
    2DOPE    C2  148   2.745   4.829   6.940  0.2482 -0.4752 -0.4214
    2DOPE    HS  149   2.697   4.775   7.024  0.7599 -1.1237 -0.5322
    2DOPE   O21  150   2.849   4.744   6.881  0.6041 -0.2671  0.8121
    2DOPE   C21  151   2.811   4.620   6.876  0.5656  0.2704  0.6738
    2DOPE   O22  152   2.716   4.572   6.938  0.3295 -0.5973 -0.9756
    2DOPE   C22  153   2.899   4.541   6.777 -0.8203  0.6364  0.0413
    2DOPE   H2R  154   3.007   4.563   6.795 -0.6329 -0.2903  0.1483
    2DOPE   H2S  155   2.866   4.569   6.674 -1.3753 -1.9365 -0.5559
    2DOPE    C3  156   2.627   4.879   6.845 -0.0796 -0.0246 -0.3786
    2DOPE    HX  157   2.662   4.949   6.765 -0.0587 -1.1568 -1.3891
    2DOPE    HY  158   2.557   4.944   6.902  0.5902  0.4982 -0.1304
    2DOPE   O31  159   2.555   4.767   6.802 -0.0747  0.2325 -0.0558
    2DOPE   C31  160   2.454   4.718   6.882  0.0941 -0.0890  0.0270
    2DOPE   O32  161   2.429   4.761   6.994  0.6235 -0.7216  0.2675
    2DOPE   C32  162   2.394   4.599   6.815 -0.0759  0.5897  0.7033
    2DOPE   H2X  163   2.404   4.607   6.705 -2.2889  4.1352  0.6151
    2DOPE   H2Y  164   2.456   4.511   6.843 -0.3506 -0.2636 -1.1889
    2DOPE   C23  165   2.894   4.385   6.800 -0.1025  0.0477 -0.2871
    2DOPE   H3R  166   2.793   4.349   6.771 -0.8886  0.5670  1.6525
    2DOPE   H3S  167   2.924   4.367   6.905  0.8778  0.2101 -0.5269
    2DOPE   C24  168   2.995   4.308   6.718  0.5987  0.3763 -0.1466
    2DOPE   H4R  169   3.103   4.332   6.726  1.6059 -3.1682 -1.3060
    2DOPE   H4S  170   2.971   4.324   6.610 -0.7518 -2.0891 -0.2771
    2DOPE   C25  171   2.971   4.163   6.755  0.1601  0.5924  0.6934
    2DOPE   H5R  172   2.863   4.146   6.739  0.2070  0.7656  0.1830
    2DOPE   H5S  173   2.984   4.144   6.864  1.3722 -0.0132  0.4649
    2DOPE   C26  174   3.042   4.063   6.671  0.2634 -0.0761  0.7150
    2DOPE   H6R  175   2.985   3.969   6.686 -1.1677  0.7468  0.5693
    2DOPE   H6S  176   3.146   4.048   6.709 -0.4546 -1.2606  2.3542
    2DOPE   C27  177   3.049   4.077   6.519 -0.3267  0.2734  0.5530
    2DOPE   H7R  178   3.138   4.133   6.484  1.7513 -2.2747  1.4587
    2DOPE   H7S  179   2.958   4.131   6.485  0.4375  0.6852 -0.8800
    2DOPE   C28  180   3.038   3.943   6.436 -0.5776  0.3500  0.6799
    2DOPE   H8R  181   2.948   3.886   6.468 -0.5734  0.6975  1.3239
    2DOPE   H8S  182   3.123   3.878   6.464 -1.3172 -0.5315  0.9159
    2DOPE   C29  183   3.037   3.964   6.281 -0.4881 -0.0651 -0.5472
    2DOPE   H9R  184   3.125   3.934   6.222 -0.3385 -0.2757 -0.2180
    2DOPE  C210  185   2.940   4.022   6.211  0.4400  0.3254  0.4492
    2DOPE  H10R  186   2.960   4.029   6.103 -0.2274 -0.8718  0.2233
    2DOPE  C211  187   2.801   4.069   6.251  0.4177  0.5239  0.0899
    2DOPE  H11R  188   2.789   4.179   6.260 -3.7511  0.3365 -1.2260
    2DOPE  H11S  189   2.773   4.024   6.349 -2.9807  0.5291 -0.7633
    2DOPE  C212  190   2.696   4.027   6.144 -0.2344 -0.0798 -0.7318
    2DOPE  H12R  191   2.598   4.062   6.181  1.3074  4.6824 -0.4955
    2DOPE  H12S  192   2.699   3.917   6.129 -0.7110  0.1705 -3.1006
    2DOPE  C213  193   2.718   4.106   6.011  1.3797 -0.3640 -0.0639
    2DOPE  H13R  194   2.815   4.079   5.964  1.0610  2.4531 -2.6766
    2DOPE  H13S  195   2.723   4.216   6.024 -0.8506 -0.5214  3.2404
    2DOPE  C214  196   2.606   4.081   5.906  0.4237 -0.2566 -0.3044
    2DOPE  H14R  197   2.518   4.140   5.941  0.4346  0.6657 -1.7257
    2DOPE  H14S  198   2.570   3.977   5.910  0.1339 -0.1076  1.6338
    2DOPE  C215  199   2.651   4.130   5.772  0.6266  0.5271 -0.5144
    2DOPE  H15R  200   2.756   4.097   5.761  0.1226 -1.1253 -0.7324
    2DOPE  H15S  201   2.644   4.241   5.772  0.3276  0.5222  0.9937
    2DOPE  C216  202   2.569   4.064   5.659  0.7147 -0.5621  0.3918
    2DOPE  H16R  203   2.468   4.110   5.659  0.7875 -0.2724 -1.6680
    2DOPE  H16S  204   2.553   3.956   5.678  1.6410 -1.0342 -1.2512
    2DOPE  C217  205   2.622   4.084   5.513  0.1015  0.1042 -0.1317
    2DOPE  H17R  206   2.727   4.054   5.497 -0.4187 -0.9943 -1.7698
    2DOPE  H17S  207   2.609   4.194   5.500 -0.1416  0.1688  0.6195
    2DOPE  C218  208   2.535   4.009   5.412  0.3770  0.2935  0.1670
    2DOPE  H18R  209   2.425   4.006   5.430  0.3914 -0.9529  0.1862
    2DOPE  H18S  210   2.564   3.902   5.401 -1.9326 -0.1653 -2.9717
    2DOPE  H18T  211   2.545   4.046   5.307 -2.2312 -0.6820 -0.5091
    2DOPE   C33  212   2.248   4.579   6.840  0.2362  0.0552 -0.2742
    2DOPE   H3X  213   2.190   4.668   6.808  0.8206  0.5862  0.1147
    2DOPE   H3Y  214   2.224   4.566   6.947 -2.8340 -2.1417 -1.0831
    2DOPE   C34  215   2.185   4.465   6.759 -0.8045 -0.1729  0.9435
    2DOPE   H4X  216   2.075   4.476   6.762 -0.9679 -1.5906  0.5180
    2DOPE   H4Y  217   2.217   4.490   6.655  0.3650 -2.7536  0.5968
    2DOPE   C35  218   2.234   4.324   6.792  0.6914 -0.1056  0.3212
    2DOPE   H5X  219   2.236   4.318   6.903  0.8875 -0.9289  0.2797
    2DOPE   H5Y  220   2.342   4.324   6.766  1.0779  0.9175  1.7748
    2DOPE   C36  221   2.145   4.218   6.737 -0.4759 -0.1207 -0.8382
    2DOPE   H6X  222   2.136   4.228   6.627 -0.4835 -2.3921 -1.1018
    2DOPE   H6Y  223   2.039   4.211   6.771 -0.0442  0.4399  0.6947
    2DOPE   C37  224   2.196   4.077   6.757  0.5111 -0.0962 -0.0788
    2DOPE   H7X  225   2.307   4.076   6.744  0.3981  1.7025 -1.6155
    2DOPE   H7Y  226   2.168   4.036   6.857  1.6649 -0.3499  0.1583
    2DOPE   C38  227   2.137   3.972   6.653  0.1157 -0.5581 -0.0959
    2DOPE   H8X  228   2.143   4.029   6.558 -0.7623  0.7768  0.6098
    2DOPE   H8Y  229   2.029   3.958   6.672  0.1876 -0.5122  0.3655
    2DOPE   C39  230   2.191   3.831   6.658 -0.7161 -0.0208 -0.3777
    2DOPE   H9X  231   2.200   3.792   6.760  1.4913 -1.0845 -0.9298
    2DOPE  C310  232   2.235   3.762   6.549 -0.0426 -0.3370 -0.1753
    2DOPE  H10X  233   2.267   3.659   6.566 -1.2828 -0.9821 -1.4937
    2DOPE  C311  234   2.233   3.812   6.406  0.4069  0.1039 -0.2224
    2DOPE  H11X  235   2.168   3.749   6.343 -0.4638  1.1527 -0.4046
    2DOPE  H11Y  236   2.187   3.913   6.403  2.2703  1.0259  0.3285
    2DOPE  C312  237   2.372   3.818   6.354 -0.5073  0.0893  0.3582
    2DOPE  H12X  238   2.431   3.892   6.411 -2.6029  0.8677  1.6267
    2DOPE  H12Y  239   2.358   3.857   6.251 -3.7407 -1.4533  0.0825
    2DOPE  C313  240   2.451   3.685   6.341  0.5009 -0.2089 -0.0766
    2DOPE  H13X  241   2.494   3.661   6.440 -0.8123 -0.4969  0.4477
    2DOPE  H13Y  242   2.376   3.612   6.304  2.8024 -1.8640 -1.7530
    2DOPE  C314  243   2.569   3.697   6.246 -0.0447  0.1730 -0.1009
    2DOPE  H14X  244   2.665   3.731   6.289  0.9926 -1.9649 -0.5880
    2DOPE  H14Y  245   2.540   3.776   6.174  1.6214 -0.1738 -1.2082
    2DOPE  C315  246   2.593   3.571   6.170  0.2746  0.2154 -0.0978
    2DOPE  H15X  247   2.498   3.541   6.121  0.8451  0.4654 -1.4173
    2DOPE  H15Y  248   2.636   3.487   6.228  0.2089 -0.1071 -0.5104
    2DOPE  C316  249   2.695   3.601   6.053  1.0656 -0.9507  0.4545
    2DOPE  H16X  250   2.796   3.612   6.098  1.9966  1.5868 -1.9289
    2DOPE  H16Y  251   2.675   3.699   6.004  0.2025 -0.7324  1.2240
    2DOPE  C317  252   2.691   3.503   5.941 -0.2883 -0.1200 -0.6824
    2DOPE  H17X  253   2.694   3.405   5.992  1.1695 -0.4059 -1.2698
    2DOPE  H17Y  254   2.594   3.507   5.886 -1.2351 -0.6614  0.8827
    2DOPE  C318  255   2.816   3.517   5.848  0.9670  0.1342  1.0509
    2DOPE  H18X  256   2.904   3.470   5.896  0.7750 -0.7727  0.5497
    2DOPE  H18Y  257   2.811   3.448   5.761  0.1363 -1.4991  2.3226
    2DOPE  H18Z  258   2.825   3.623   5.818 -1.7961  0.1808  0.1075
    3DOPE     N  259   3.386   6.116   6.518 -0.0706 -0.3134 -0.4220
    3DOPE   HN1  260   3.488   6.137   6.522 -0.3820  1.1844  1.7407
    3DOPE   HN2  261   3.350   6.148   6.611 -0.9610  0.6032 -1.0644
    3DOPE   HN3  262   3.375   6.014   6.509 -0.7985 -0.4520  1.5530
    3DOPE   C12  263   3.309   6.199   6.414 -0.4983 -0.2841 -0.6479
    3DOPE  H12A  264   3.325   6.151   6.315  0.4515  0.2432 -0.7607
    3DOPE  H12B  265   3.348   6.303   6.410  0.9973 -0.7828  0.3657
    3DOPE   C11  266   3.153   6.193   6.436 -0.1248 -0.2040 -0.0820
    3DOPE  H11A  267   3.106   6.246   6.350 -0.2879 -0.4378 -0.1385
    3DOPE  H11B  268   3.139   6.258   6.525  0.1919 -0.0262 -0.1563
    3DOPE     P  269   2.977   6.020   6.512 -0.1605  0.0530 -0.5633
    3DOPE   O13  270   2.992   6.036   6.655 -0.2341 -0.1798 -0.6922
    3DOPE   O14  271   2.942   5.888   6.458  0.2832  0.5447  0.5844
    3DOPE   O11  272   2.871   6.133   6.461  0.4705 -0.1740  0.6297
    3DOPE   O12  273   3.105   6.058   6.442 -0.2506 -0.1811 -0.5556
    3DOPE    C1  274   2.765   6.097   6.377  0.1712  0.5054  0.1555
    3DOPE    HA  275   2.692   6.181   6.378  0.0638  0.4085  0.8214
    3DOPE    HB  276   2.714   6.006   6.416  2.1578 -0.7347 -0.0282
    3DOPE    C2  277   2.815   6.079   6.231  0.7642  0.5770  1.2230
    3DOPE    HS  278   2.870   5.984   6.215  0.0693  0.1691  1.2486
    3DOPE   O21  279   2.909   6.182   6.193 -0.1142 -0.1822  0.4335
    3DOPE   C21  280   2.994   6.155   6.089  0.1350  0.5628  0.6177
    3DOPE   O22  281   3.010   6.046   6.032  0.2144  0.3196 -0.1653
    3DOPE   C22  282   3.069   6.280   6.048 -0.3730 -0.2039 -0.2781
    3DOPE   H2R  283   3.176   6.267   6.077 -0.4145  0.5589  0.2474
    3DOPE   H2S  284   3.034   6.366   6.109 -0.4020 -1.3390  1.3834
    3DOPE    C3  285   2.693   6.080   6.131  0.5621  0.0651 -0.0626
    3DOPE    HX  286   2.634   6.171   6.152 -1.7442 -1.3556  0.0093
    3DOPE    HY  287   2.618   6.002   6.155 -0.1630  1.1805  1.4705
    3DOPE   O31  288   2.725   6.082   5.993  0.1155  0.1650  0.0131
    3DOPE   C31  289   2.741   5.969   5.926 -0.0321 -0.5501  1.0904
    3DOPE   O32  290   2.737   5.857   5.967  0.4929  0.2966 -0.5775
    3DOPE   C32  291   2.774   6.011   5.779  0.1375  0.8456 -0.1732
    3DOPE   H2X  292   2.749   6.119   5.767 -0.4204  0.5155 -2.5150
    3DOPE   H2Y  293   2.883   5.995   5.770  0.4222  2.6371 -0.3304
    3DOPE   C23  294   3.064   6.301   5.897  0.2650 -0.9044 -0.2264
    3DOPE   H3R  295   2.962   6.278   5.860 -0.9653  1.8407  1.1873
    3DOPE   H3S  296   3.128   6.228   5.842  2.7400  0.9931 -0.0319
    3DOPE   C24  297   3.085   6.446   5.851 -0.0757 -0.7043 -0.2882
    3DOPE   H4R  298   3.189   6.469   5.883  0.1030 -0.7829 -0.8033
    3DOPE   H4S  299   3.023   6.524   5.899  1.1064  0.7666 -1.0506
    3DOPE   C25  300   3.092   6.469   5.695  0.1575 -0.0640  0.1983
    3DOPE   H5R  301   3.179   6.411   5.657  1.3596  1.0535  1.1868
    3DOPE   H5S  302   3.122   6.575   5.680  1.4752  0.0168  2.9393
    3DOPE   C26  303   2.960   6.439   5.618 -0.6369  0.4866  0.7732
    3DOPE   H6R  304   2.883   6.518   5.631 -2.7743 -1.2743 -0.6204
    3DOPE   H6S  305   2.907   6.345   5.645  0.9828 -0.5295  0.5847
    3DOPE   C27  306   2.973   6.410   5.461 -0.7491  0.7807  0.5202
    3DOPE   H7R  307   3.038   6.321   5.448  0.1404  1.3655  0.8880
    3DOPE   H7S  308   3.004   6.498   5.402 -1.5002  0.7669  0.0878
    3DOPE   C28  309   2.832   6.381   5.397 -0.8592  0.9447  0.2663
    3DOPE   H8R  310   2.850   6.375   5.287  1.3962  1.5218  0.5574
    3DOPE   H8S  311   2.760   6.465   5.410 -1.4448  0.6599 -0.9554
    3DOPE   C29  312   2.761   6.249   5.441 -0.9040 -0.3938 -0.3329
    3DOPE   H9R  313   2.698   6.267   5.529 -0.4873  1.9988 -0.4483
    3DOPE  C210  314   2.750   6.144   5.366 -0.2072 -0.4494  0.3223
    3DOPE  H10R  315   2.697   6.059   5.411  0.0711 -1.2226 -0.7591
    3DOPE  C211  316   2.816   6.118   5.237  0.0729 -0.4083 -0.4605
    3DOPE  H11R  317   2.815   6.009   5.216 -1.4546 -0.6950  0.9381
    3DOPE  H11S  318   2.922   6.150   5.224  0.2566 -0.5575  0.6347
    3DOPE  C212  319   2.749   6.200   5.118 -0.2900 -0.0133  0.0190
    3DOPE  H12R  320   2.704   6.298   5.144 -0.4390  0.0647 -0.5274
    3DOPE  H12S  321   2.655   6.152   5.084  0.0816 -0.7243 -0.0351
    3DOPE  C213  322   2.848   6.227   5.009  0.1976  0.0415  0.3225
    3DOPE  H13R  323   2.906   6.133   4.997 -2.0771 -1.5453  1.2037
    3DOPE  H13S  324   2.928   6.302   5.028 -0.2369  0.7126 -0.4174
    3DOPE  C214  325   2.780   6.262   4.872  0.2035  0.8052  0.0342
    3DOPE  H14R  326   2.852   6.329   4.820  0.4041  1.0612  0.6321
    3DOPE  H14S  327   2.697   6.328   4.905 -1.2926 -0.6279 -0.7205
    3DOPE  C215  328   2.714   6.148   4.802 -0.6832  0.8234  0.7632
    3DOPE  H15R  329   2.621   6.124   4.857 -1.6923  0.2326 -1.0962
    3DOPE  H15S  330   2.784   6.062   4.796 -4.0835 -2.0886 -2.6358
    3DOPE  C216  331   2.667   6.184   4.657  0.2552  0.3140  0.1259
    3DOPE  H16R  332   2.755   6.153   4.596 -0.4588 -0.7722 -0.3885
    3DOPE  H16S  333   2.653   6.294   4.657  2.2056  0.6063  0.4434
    3DOPE  C217  334   2.540   6.112   4.599  0.2018 -0.0542  0.0291
    3DOPE  H17R  335   2.510   6.165   4.506  1.4881  0.4649 -0.1116
    3DOPE  H17S  336   2.460   6.122   4.675  0.9450 -0.6035  0.8967
    3DOPE  C218  337   2.535   5.965   4.571 -0.6038  0.5718 -0.1445
    3DOPE  H18R  338   2.624   5.921   4.522 -0.0726  0.8011  0.5974
    3DOPE  H18S  339   2.448   5.943   4.506 -0.4383 -0.4157 -0.0466
    3DOPE  H18T  340   2.516   5.907   4.664  1.1416 -0.3862 -0.3370
    3DOPE   C33  341   2.700   5.931   5.672 -0.4808  0.4815 -0.5771
    3DOPE   H3X  342   2.733   5.827   5.656 -1.4434  0.0552  0.1234
    3DOPE   H3Y  343   2.715   5.977   5.572 -1.5616 -0.8445 -1.3851
    3DOPE   C34  344   2.546   5.927   5.676 -0.5467  0.3498  0.3273
    3DOPE   H4X  345   2.518   5.849   5.750 -1.4923 -0.1830 -0.5678
    3DOPE   H4Y  346   2.507   6.027   5.706  1.2649  1.1796  0.1065
    3DOPE   C35  347   2.496   5.884   5.535 -0.0154  0.3521  0.5119
    3DOPE   H5X  348   2.549   5.787   5.528 -1.5768 -0.6894  2.0198
    3DOPE   H5Y  349   2.514   5.954   5.451  1.0452  0.1400  0.5584
    3DOPE   C36  350   2.347   5.846   5.536 -0.4628 -0.6582  0.1011
    3DOPE   H6X  351   2.287   5.938   5.552  2.9162  1.6009  0.7806
    3DOPE   H6Y  352   2.341   5.778   5.624 -1.3990 -0.3418  0.2965
    3DOPE   C37  353   2.285   5.768   5.411 -0.1130 -0.5398 -0.0587
    3DOPE   H7X  354   2.193   5.708   5.428 -1.8710  0.6138 -4.1818
    3DOPE   H7Y  355   2.275   5.839   5.326  0.9104 -0.0109  0.2442
    3DOPE   C38  356   2.377   5.655   5.357 -0.0121 -0.1926  0.0539
    3DOPE   H8X  357   2.482   5.681   5.331  0.2899  0.9417  2.1326
    3DOPE   H8Y  358   2.335   5.624   5.259 -0.3609 -1.0292  0.4534
    3DOPE   C39  359   2.385   5.527   5.450 -0.2041 -0.7434  0.4996
    3DOPE   H9X  360   2.454   5.530   5.536  1.2009 -0.5639 -0.5847
    3DOPE  C310  361   2.297   5.425   5.440 -0.5790 -0.8340 -0.2279
    3DOPE  H10X  362   2.317   5.331   5.494  0.4244 -0.2490  0.4309
    3DOPE  C311  363   2.174   5.414   5.354 -0.2529 -0.2446  0.2115
    3DOPE  H11X  364   2.083   5.414   5.418  0.0808 -2.7337  0.7658
    3DOPE  H11Y  365   2.158   5.505   5.292 -0.2266 -0.6532 -0.3976
    3DOPE  C312  366   2.181   5.302   5.249  0.0338 -0.1204 -0.4013
    3DOPE  H12X  367   2.079   5.292   5.206 -0.1382 -3.1918  0.4905
    3DOPE  H12Y  368   2.193   5.216   5.318  1.2161  2.9014  3.5245
    3DOPE  C313  369   2.298   5.315   5.147  0.3568 -0.6435 -0.5803
    3DOPE  H13X  370   2.297   5.423   5.121 -2.6673 -0.2848  0.6291
    3DOPE  H13Y  371   2.393   5.290   5.199  0.0615  1.4374  1.1077
    3DOPE  C314  372   2.264   5.225   5.030  0.7238  0.2951  0.7800
    3DOPE  H14X  373   2.157   5.247   5.011  0.5264 -1.2238 -0.0146
    3DOPE  H14Y  374   2.269   5.121   5.069 -0.0057 -0.6663 -1.4802
    3DOPE  C315  375   2.347   5.252   4.903 -0.3793  0.6663  0.3298
    3DOPE  H15X  376   2.356   5.362   4.889  0.9409  0.4452 -0.7160
    3DOPE  H15Y  377   2.296   5.211   4.813 -0.6045 -2.5353  1.7694
    3DOPE  C316  378   2.491   5.195   4.918  0.5796 -0.4300  0.0607
    3DOPE  H16X  379   2.501   5.084   4.924  2.3401 -0.3172 -0.1195
    3DOPE  H16Y  380   2.547   5.239   5.004  1.6036 -2.7272  0.6453
    3DOPE  C317  381   2.578   5.225   4.792  0.3240 -0.5760  0.3323
    3DOPE  H17X  382   2.528   5.169   4.710 -0.8536 -0.6742  1.0989
    3DOPE  H17Y  383   2.585   5.333   4.766  0.8570 -0.2547  1.7114
    3DOPE  C318  384   2.721   5.178   4.821  0.4086 -0.0681  0.0100
    3DOPE  H18X  385   2.721   5.071   4.850  0.6506 -0.6476 -1.9929
    3DOPE  H18Y  386   2.795   5.195   4.740  1.4909 -1.0065  0.7624
    3DOPE  H18Z  387   2.756   5.243   4.904  0.9758  0.2419 -0.4633
    4DOPE     N  388   2.555   3.173   7.360  0.0976 -0.4343  0.2960
    4DOPE   HN1  389   2.658   3.166   7.370  0.1393 -0.5460 -0.1887
    4DOPE   HN2  390   2.521   3.265   7.395  0.5837 -0.8529  1.9657
    4DOPE   HN3  391   2.515   3.108   7.431 -2.6121 -0.6630 -1.3230
    4DOPE   C12  392   2.499   3.170   7.226  0.5922  0.5724 -0.3279
    4DOPE  H12A  393   2.504   3.066   7.190 -0.9164 -0.7393  2.8470
    4DOPE  H12B  394   2.561   3.237   7.162  0.1268  1.7785  0.4358
    4DOPE   C11  395   2.354   3.231   7.217  0.4891  0.0736  0.1546
    4DOPE  H11A  396   2.322   3.242   7.111  0.8128  1.0702  0.1598
    4DOPE  H11B  397   2.357   3.334   7.258  3.2162  0.2776 -0.4101
    4DOPE     P  398   2.122   3.177   7.353 -0.5841  0.1553 -0.1030
    4DOPE   O13  399   2.138   3.283   7.451  0.1458 -0.1947 -0.3901
    4DOPE   O14  400   2.054   3.057   7.393 -0.0172  0.8619 -0.1178
    4DOPE   O11  401   2.049   3.243   7.233 -0.1776  0.0822 -0.3978
    4DOPE   O12  402   2.263   3.142   7.292 -0.3102 -0.3898  0.2421
    4DOPE    C1  403   2.041   3.192   7.103  0.5694  0.1096  0.2001
    4DOPE    HA  404   1.991   3.093   7.101 -1.9064  1.2877 -0.2019
    4DOPE    HB  405   2.143   3.181   7.060  0.4490  0.4914 -0.1955
    4DOPE    C2  406   1.980   3.295   7.002 -0.0221  0.7125 -0.5057
    4DOPE    HS  407   1.869   3.289   7.001 -0.0232  0.8264 -1.3074
    4DOPE   O21  408   2.034   3.278   6.870  0.0509  0.1199  0.6998
    4DOPE   C21  409   1.993   3.178   6.797  0.2414  0.2095  0.9660
    4DOPE   O22  410   1.913   3.093   6.833  0.2478  0.2035  0.4467
    4DOPE   C22  411   2.055   3.182   6.657  0.3443 -1.1392  0.3758
    4DOPE   H2R  412   2.158   3.220   6.668  0.0540 -0.0238 -0.6032
    4DOPE   H2S  413   1.998   3.261   6.603  2.6414  0.3304 -0.0142
    4DOPE    C3  414   2.020   3.438   7.046  0.2785  0.4275  0.1266
    4DOPE    HX  415   2.125   3.419   7.076  0.1819  0.4044  0.4475
    4DOPE    HY  416   1.951   3.466   7.128 -2.6462 -2.0064 -1.2999
    4DOPE   O31  417   2.012   3.533   6.939 -0.0229 -0.1544  0.7561
    4DOPE   C31  418   1.895   3.580   6.905  0.3045  0.6671  0.3258
    4DOPE   O32  419   1.799   3.581   6.975 -0.5673  0.3708  0.1672
    4DOPE   C32  420   1.887   3.639   6.764 -0.4557  0.2710 -0.5206
    4DOPE   H2X  421   1.779   3.652   6.745 -0.4185  0.6307 -0.4949
    4DOPE   H2Y  422   1.937   3.738   6.763  0.1149 -0.0172 -1.2881
    4DOPE   C23  423   2.061   3.053   6.566 -0.2864 -0.2159  0.1410
    4DOPE   H3R  424   1.964   3.015   6.527 -0.8686  1.6652 -0.3255
    4DOPE   H3S  425   2.119   2.972   6.616 -0.3637 -0.7442 -0.6175
    4DOPE   C24  426   2.145   3.102   6.447 -0.3985 -0.0416  0.4038
    4DOPE   H4R  427   2.245   3.145   6.470 -0.3866 -0.7017  1.6266
    4DOPE   H4S  428   2.092   3.185   6.394  1.2875  0.6922 -0.2196
    4DOPE   C25  429   2.162   2.986   6.346 -0.5709  0.3087  0.5477
    4DOPE   H5R  430   2.066   2.938   6.318  0.0410 -1.2557  1.0496
    4DOPE   H5S  431   2.231   2.910   6.387 -0.4711  0.1927  0.1670
    4DOPE   C26  432   2.241   3.031   6.216  0.1147  0.2840  0.1274
    4DOPE   H6R  433   2.256   2.935   6.162  2.4227 -0.0589  1.2679
    4DOPE   H6S  434   2.338   3.066   6.258  0.6761 -0.3092 -0.6412
    4DOPE   C27  435   2.166   3.138   6.131  0.2936 -0.4218 -0.0911
    4DOPE   H7R  436   2.162   3.235   6.185 -2.8965 -0.1348 -0.6166
    4DOPE   H7S  437   2.061   3.105   6.119 -0.9936  2.6987  1.4159
    4DOPE   C28  438   2.243   3.159   5.997  0.1967  0.2514  0.6003
    4DOPE   H8R  439   2.193   3.232   5.930  1.1091  0.1688 -0.2042
    4DOPE   H8S  440   2.255   3.057   5.952 -1.5387  0.5264 -0.5785
    4DOPE   C29  441   2.386   3.205   6.004  0.4963 -0.4601 -0.9404
    4DOPE   H9R  442   2.420   3.223   6.107  2.8372  1.6906 -1.9816
    4DOPE  C210  443   2.469   3.208   5.897 -0.8475  0.3218  0.6531
    4DOPE  H10R  444   2.575   3.209   5.927 -0.5341 -0.0467 -0.4007
    4DOPE  C211  445   2.432   3.172   5.752 -0.5166 -0.2816 -0.4700
    4DOPE  H11R  446   2.337   3.113   5.749 -0.9846  0.4872 -1.4888
    4DOPE  H11S  447   2.502   3.104   5.698  1.0076  2.0638 -1.5901
    4DOPE  C212  448   2.413   3.292   5.654 -0.9535  0.1276 -0.0688
    4DOPE  H12R  449   2.363   3.369   5.716 -2.5978 -1.5390  0.7639
    4DOPE  H12S  450   2.347   3.266   5.569 -1.9495  0.3764  0.6143
    4DOPE  C213  451   2.552   3.350   5.608 -0.5379 -0.4039  0.2419
    4DOPE  H13R  452   2.610   3.377   5.700 -4.0816  0.5522  2.3847
    4DOPE  H13S  453   2.531   3.440   5.546  2.5615  0.6488  0.5414
    4DOPE  C214  454   2.641   3.258   5.518  0.6988 -0.3037 -0.2379
    4DOPE  H14R  455   2.596   3.229   5.420 -2.2209 -0.1465  0.9651
    4DOPE  H14S  456   2.658   3.159   5.567 -1.0609 -0.2780  0.4918
    4DOPE  C215  457   2.783   3.311   5.498 -0.0884 -0.0134  0.7710
    4DOPE  H15R  458   2.854   3.241   5.448  0.9355 -0.2583  2.4694
    4DOPE  H15S  459   2.824   3.311   5.601 -1.3778 -0.9472  1.3022
    4DOPE  C216  460   2.796   3.446   5.421 -0.4307  0.0995  0.0333
    4DOPE  H16R  461   2.740   3.529   5.471 -0.1372 -0.0861  0.6856
    4DOPE  H16S  462   2.755   3.421   5.321  1.4978 -2.6213 -0.1773
    4DOPE  C217  463   2.936   3.502   5.391 -0.6141  0.0017 -0.6611
    4DOPE  H17R  464   2.995   3.428   5.333 -0.8715 -0.2518 -0.6022
    4DOPE  H17S  465   2.989   3.511   5.488  1.1340 -1.4133 -1.4257
    4DOPE  C218  466   2.935   3.634   5.310 -0.6554 -0.1457  0.3644
    4DOPE  H18R  467   2.908   3.726   5.366  2.0788 -0.0111  1.6142
    4DOPE  H18S  468   2.867   3.626   5.223 -1.5331  2.8822  0.6578
    4DOPE  H18T  469   3.033   3.671   5.273 -0.5134  0.7866  1.6274
    4DOPE   C33  470   1.949   3.549   6.659  0.0251 -0.2188  0.7068
    4DOPE   H3X  471   1.916   3.443   6.660  0.0611 -0.2313  1.9604
    4DOPE   H3Y  472   2.058   3.535   6.673 -0.2088 -1.8031  1.0870
    4DOPE   C34  473   1.910   3.589   6.514  0.1719  0.3267  0.5296
    4DOPE   H4X  474   1.799   3.587   6.508  0.2395  0.6960 -1.5333
    4DOPE   H4Y  475   1.938   3.693   6.491 -1.6843  0.5542 -0.9082
    4DOPE   C35  476   1.968   3.489   6.409 -0.1500 -0.8502  0.6868
    4DOPE   H5X  477   1.929   3.388   6.384  0.9223 -0.6073 -2.3319
    4DOPE   H5Y  478   2.077   3.480   6.427  0.3308 -0.6432 -1.8465
    4DOPE   C36  479   1.936   3.569   6.281 -0.0088  0.2850  0.1557
    4DOPE   H6X  480   1.932   3.678   6.301 -2.3931  0.0968  1.0064
    4DOPE   H6Y  481   1.834   3.542   6.246  0.6627 -0.3427 -1.4354
    4DOPE   C37  482   2.051   3.544   6.167  0.7152 -0.3908 -0.0175
    4DOPE   H7X  483   2.152   3.550   6.213  1.1270  0.3571 -1.0002
    4DOPE   H7Y  484   2.028   3.444   6.124 -0.1593  0.2249 -1.0379
    4DOPE   C38  485   2.038   3.633   6.046 -0.4784  0.1686  0.9502
    4DOPE   H8X  486   1.936   3.662   6.014 -0.5529 -1.5440 -0.5308
    4DOPE   H8Y  487   2.068   3.559   5.968  0.0831  0.8872  0.4738
    4DOPE   C39  488   2.126   3.757   6.049 -0.0746  0.0513  0.3073
    4DOPE   H9X  489   2.100   3.825   6.131  1.8992 -0.8219  1.7552
    4DOPE  C310  490   2.241   3.771   5.984 -0.8864 -0.1110  0.2043
    4DOPE  H10X  491   2.298   3.864   5.995  0.7922 -1.1076  0.2516
    4DOPE  C311  492   2.318   3.671   5.900 -0.3911 -0.1329  0.4309
    4DOPE  H11X  493   2.407   3.654   5.965 -1.4940 -1.5854  1.6494
    4DOPE  H11Y  494   2.268   3.573   5.888 -0.8036  0.1527 -0.2499
    4DOPE  C312  495   2.354   3.708   5.754  0.2966  0.0941 -0.0157
    4DOPE  H12X  496   2.435   3.638   5.725 -1.0882 -1.6326  0.1711
    4DOPE  H12Y  497   2.396   3.811   5.756  0.9540 -0.1695  0.0538
    4DOPE  C313  498   2.232   3.695   5.665 -0.1649  0.2307  0.7096
    4DOPE  H13X  499   2.190   3.593   5.682  0.6549 -0.4407 -1.0705
    4DOPE  H13Y  500   2.163   3.779   5.688  0.8685  1.0275  0.9694
    4DOPE  C314  501   2.268   3.703   5.515  0.5711 -0.0962  0.0900
    4DOPE  H14X  502   2.320   3.609   5.486 -0.5426 -0.3005 -1.3508
    4DOPE  H14Y  503   2.319   3.799   5.488 -1.0396  0.9205  0.5274
    4DOPE  C315  504   2.150   3.696   5.419 -0.4190 -0.1651 -0.0024
    4DOPE  H15X  505   2.084   3.609   5.441 -0.1349 -0.0397  1.4438
    4DOPE  H15Y  506   2.179   3.682   5.313 -0.0182 -0.2528  0.1164
    4DOPE  C316  507   2.047   3.806   5.435 -0.2211  0.2904 -0.7718
    4DOPE  H16X  508   2.091   3.905   5.409 -1.0452  0.9487  0.2697
    4DOPE  H16Y  509   1.997   3.803   5.534 -0.7306  1.7991 -0.9593
    4DOPE  C317  510   1.922   3.775   5.340  0.8570  0.5524 -0.4434
    4DOPE  H17X  511   1.966   3.763   5.239 -0.6006 -4.5380 -0.7509
    4DOPE  H17Y  512   1.871   3.680   5.366 -0.6707  1.6638  0.8170
    4DOPE  C318  513   1.802   3.880   5.350  0.2915 -0.0677  0.1858
    4DOPE  H18X  514   1.724   3.844   5.280  1.2456 -0.1271 -0.8915
    4DOPE  H18Y  515   1.756   3.868   5.451  0.5871 -1.2818  0.1929
    4DOPE  H18Z  516   1.833   3.984   5.327  1.1526 -0.2900  0.3117
    5DOPE     N  517   2.561   5.828   6.663 -0.1768  0.6752 -0.6909
    5DOPE   HN1  518   2.577   5.930   6.651  0.4048  0.6495 -0.1649
    5DOPE   HN2  519   2.655   5.785   6.649  0.1175  0.4672  1.6000
    5DOPE   HN3  520   2.497   5.787   6.591 -0.1500 -1.1989  0.2702
    5DOPE   C12  521   2.524   5.790   6.806  0.0504  0.1127  0.1527
    5DOPE  H12A  522   2.422   5.832   6.814  0.6026  1.8403 -1.1734
    5DOPE  H12B  523   2.600   5.826   6.878 -0.0197  0.3157  0.1242
    5DOPE   C11  524   2.500   5.639   6.820 -0.3434 -0.4192 -0.4594
    5DOPE  H11A  525   2.463   5.620   6.923 -0.6181 -0.2181 -0.5185
    5DOPE  H11B  526   2.601   5.592   6.813 -0.8542 -2.3053  2.6720
    5DOPE     P  527   2.272   5.523   6.761  0.1005  0.3070 -0.0086
    5DOPE   O13  528   2.273   5.494   6.904  0.5061 -0.0291 -0.0631
    5DOPE   O14  529   2.256   5.409   6.673  0.0744 -1.2345 -0.1897
    5DOPE   O11  530   2.163   5.636   6.735 -0.1711 -0.3891 -0.4585
    5DOPE   O12  531   2.408   5.591   6.725  0.6124 -0.8302 -0.2834
    5DOPE    C1  532   2.185   5.717   6.620 -0.5320  0.4858 -0.1815
    5DOPE    HA  533   2.286   5.761   6.614  0.0118 -0.7126 -0.1904
    5DOPE    HB  534   2.112   5.800   6.631 -0.7024  0.2318  0.6801
    5DOPE    C2  535   2.135   5.648   6.494  0.1220 -0.0480 -0.1548
    5DOPE    HS  536   2.034   5.618   6.527  0.7810  0.9383  3.1612
    5DOPE   O21  537   2.228   5.541   6.442  0.5692 -0.2239 -0.1371
    5DOPE   C21  538   2.166   5.438   6.384 -0.1829 -0.0814  0.0616
    5DOPE   O22  539   2.049   5.416   6.379 -1.0163 -0.6390  0.2797
    5DOPE   C22  540   2.275   5.344   6.340  0.1511  0.0149  0.9763
    5DOPE   H2R  541   2.330   5.322   6.433 -0.0150  1.9052  1.5646
    5DOPE   H2S  542   2.334   5.393   6.259 -1.8590 -2.8150 -2.4998
    5DOPE    C3  543   2.113   5.749   6.381  0.2008 -0.4937 -0.3095
    5DOPE    HX  544   2.212   5.772   6.336  0.3550 -0.4634  0.0398
    5DOPE    HY  545   2.059   5.839   6.418 -1.6214 -2.0102  0.9347
    5DOPE   O31  546   2.038   5.688   6.275  0.2737 -0.3375 -0.1342
    5DOPE   C31  547   1.975   5.772   6.197 -0.0340  0.1930  0.3037
    5DOPE   O32  548   2.004   5.890   6.181  0.5333  0.3011 -0.4440
    5DOPE   C32  549   1.857   5.699   6.132  0.2000 -1.1682  0.8673
    5DOPE   H2X  550   1.893   5.597   6.106  1.5750 -1.2835  3.0225
    5DOPE   H2Y  551   1.786   5.690   6.218  0.0127  1.3220  1.0461
    5DOPE   C23  552   2.225   5.216   6.261 -0.2673 -0.7750  0.1598
    5DOPE   H3R  553   2.148   5.165   6.321 -0.8109  0.1358  0.2552
    5DOPE   H3S  554   2.301   5.139   6.235  0.3670 -0.0401 -0.2304
    5DOPE   C24  555   2.183   5.245   6.120 -0.0395 -0.4818 -0.9579
    5DOPE   H4R  556   2.265   5.279   6.052 -0.4527 -1.7367 -2.1231
    5DOPE   H4S  557   2.110   5.328   6.133  1.3244  1.0495 -2.4316
    5DOPE   C25  558   2.114   5.128   6.056 -0.0374  0.2051 -0.5298
    5DOPE   H5R  559   2.051   5.077   6.132 -1.0621  0.0966 -1.4328
    5DOPE   H5S  560   2.183   5.056   6.008  0.6672  0.1282  0.5619
    5DOPE   C26  561   2.029   5.179   5.935 -0.2382  0.8180 -0.6129
    5DOPE   H6R  562   2.099   5.214   5.857  1.3669 -1.0189 -0.0475
    5DOPE   H6S  563   1.978   5.273   5.966 -1.9284  0.2386 -1.5100
    5DOPE   C27  564   1.933   5.066   5.881 -0.2482 -0.1444 -0.2438
    5DOPE   H7R  565   1.874   5.027   5.966  1.5109 -0.9161  0.6764
    5DOPE   H7S  566   1.994   4.979   5.848 -0.4237 -0.6078  0.6368
    5DOPE   C28  567   1.834   5.116   5.771 -0.2888 -0.5277 -0.2505
    5DOPE   H8R  568   1.784   5.212   5.795  1.0006  0.2914 -0.7813
    5DOPE   H8S  569   1.746   5.048   5.763 -1.2745  0.1043  3.2238
    5DOPE   C29  570   1.891   5.127   5.634 -0.4475 -0.0068  0.7016
    5DOPE   H9R  571   1.957   5.045   5.601 -1.1503  0.2775 -1.5321
    5DOPE  C210  572   1.883   5.234   5.545  0.1790 -0.1801 -0.3990
    5DOPE  H10R  573   1.929   5.222   5.445  1.0552 -0.1617 -0.0018
    5DOPE  C211  574   1.791   5.352   5.565 -0.4391  0.0028 -0.1891
    5DOPE  H11R  575   1.719   5.332   5.648 -1.4479 -1.7390 -1.4156
    5DOPE  H11S  576   1.734   5.374   5.473  0.0788  1.5716 -0.1669
    5DOPE  C212  577   1.864   5.490   5.597 -0.7181 -0.1042 -0.3720
    5DOPE  H12R  578   1.788   5.561   5.635 -1.1320 -1.3870  1.3031
    5DOPE  H12S  579   1.915   5.534   5.508  0.1272 -0.6693 -0.1850
    5DOPE  C213  580   1.974   5.470   5.702  0.2119 -0.0716 -0.1292
    5DOPE  H13R  581   2.053   5.397   5.676 -0.5179 -1.6685  1.8793
    5DOPE  H13S  582   1.926   5.429   5.793 -0.0164  0.7685  0.1408
    5DOPE  C214  583   2.046   5.595   5.746  0.3403 -0.6328 -0.3836
    5DOPE  H14R  584   1.973   5.668   5.789 -0.2078 -0.4301 -1.6101
    5DOPE  H14S  585   2.095   5.643   5.658  1.5130 -0.8008  0.1644
    5DOPE  C215  586   2.155   5.567   5.856  0.4090  0.1928  0.0650
    5DOPE  H15R  587   2.229   5.491   5.824  0.6632  1.3328 -2.2662
    5DOPE  H15S  588   2.103   5.526   5.945  0.6988 -0.0001  0.1448
    5DOPE  C216  589   2.213   5.700   5.894  0.2620  0.3799 -0.3207
    5DOPE  H16R  590   2.132   5.759   5.942 -0.6945  0.2125 -1.6578
    5DOPE  H16S  591   2.251   5.754   5.804 -1.3086  0.0063 -1.2459
    5DOPE  C217  592   2.337   5.678   5.985 -0.1667 -0.6781 -0.0672
    5DOPE  H17R  593   2.418   5.646   5.916  0.9422  1.3290  0.1955
    5DOPE  H17S  594   2.327   5.600   6.063 -0.7343  1.6315  2.3539
    5DOPE  C218  595   2.370   5.804   6.050 -0.2666  0.6052 -0.3684
    5DOPE  H18R  596   2.334   5.810   6.155  0.6870  1.1511 -0.0539
    5DOPE  H18S  597   2.319   5.883   5.991  1.0905 -0.4243 -3.0535
    5DOPE  H18T  598   2.479   5.819   6.067 -0.5639  0.9929  1.4016
    5DOPE   C33  599   1.802   5.769   6.008  0.0077 -0.2473  1.0161
    5DOPE   H3X  600   1.882   5.801   5.938 -1.3269 -0.8881 -0.8970
    5DOPE   H3Y  601   1.756   5.860   6.052  2.3280  1.2317  0.5432
    5DOPE   C34  602   1.699   5.678   5.922 -0.1473 -0.1728  0.6951
    5DOPE   H4X  603   1.749   5.588   5.881 -1.4043 -0.7772  0.4356
    5DOPE   H4Y  604   1.619   5.644   5.991 -0.5108  2.3987  1.6418
    5DOPE   C35  605   1.630   5.756   5.811  0.5754  0.4368 -0.2442
    5DOPE   H5X  606   1.700   5.763   5.725 -1.6744 -2.1448 -2.4902
    5DOPE   H5Y  607   1.600   5.853   5.856 -0.1050  0.3189 -0.4223
    5DOPE   C36  608   1.522   5.679   5.748  0.2308  0.2260  0.1652
    5DOPE   H6X  609   1.441   5.667   5.823  1.8485 -1.3764  1.7784
    5DOPE   H6Y  610   1.567   5.578   5.735 -2.3222 -1.0389  0.4815
    5DOPE   C37  611   1.485   5.734   5.610  0.1309 -0.0141 -0.7368
    5DOPE   H7X  612   1.465   5.842   5.628 -0.0134 -0.4678  2.4403
    5DOPE   H7Y  613   1.568   5.727   5.537 -0.3455  1.1092 -1.4169
    5DOPE   C38  614   1.361   5.677   5.546  1.1432 -0.3714 -0.2357
    5DOPE   H8X  615   1.278   5.681   5.621  1.6117 -1.7769  0.3902
    5DOPE   H8Y  616   1.377   5.568   5.536  1.0350 -0.2546 -2.0693
    5DOPE   C39  617   1.329   5.740   5.410  0.6665  0.5419  1.6624
    5DOPE   H9X  618   1.300   5.846   5.419 -0.9125  0.3018  0.0968
    5DOPE  C310  619   1.327   5.681   5.289 -0.4065  0.6918  0.4854
    5DOPE  H10X  620   1.305   5.742   5.201 -0.2769  0.8832  0.5862
    5DOPE  C311  621   1.343   5.536   5.256  0.2253  0.0902 -0.2292
    5DOPE  H11X  622   1.388   5.493   5.348 -1.3881  1.8400  1.4633
    5DOPE  H11Y  623   1.244   5.487   5.244 -0.2871  1.0004  0.2154
    5DOPE  C312  624   1.426   5.509   5.123  0.1959 -0.4046 -0.5426
    5DOPE  H12X  625   1.521   5.567   5.123  0.5783 -1.0105 -1.2664
    5DOPE  H12Y  626   1.368   5.557   5.042  2.0057 -0.2169 -1.7937
    5DOPE  C313  627   1.434   5.354   5.097  0.4976 -0.1382 -0.4335
    5DOPE  H13X  628   1.502   5.296   5.164 -0.9052 -1.8965 -0.4425
    5DOPE  H13Y  629   1.332   5.319   5.125  0.1596  2.7789  2.6934
    5DOPE  C314  630   1.473   5.310   4.957  0.1510 -0.5529  0.2053
    5DOPE  H14X  631   1.568   5.359   4.927 -0.7347  1.7162  0.9312
    5DOPE  H14Y  632   1.393   5.353   4.893 -0.0681 -0.0226  0.8269
    5DOPE  C315  633   1.488   5.161   4.939 -0.1174  0.9769 -0.0638
    5DOPE  H15X  634   1.392   5.111   4.965  0.6157  0.0603  1.0020
    5DOPE  H15Y  635   1.570   5.122   5.002  0.5269  1.1902 -0.7606
    5DOPE  C316  636   1.516   5.117   4.793  0.5755 -0.3686  0.1304
    5DOPE  H16X  637   1.537   5.008   4.789  2.6047  0.0068 -0.4278
    5DOPE  H16Y  638   1.608   5.170   4.760  0.8603 -0.3052  1.0086
    5DOPE  C317  639   1.396   5.152   4.700  0.1848 -0.4910  0.3255
    5DOPE  H17X  640   1.310   5.107   4.754 -2.0670  1.6138 -1.3065
    5DOPE  H17Y  641   1.383   5.260   4.682  0.3878 -0.3166  1.2052
    5DOPE  C318  642   1.411   5.086   4.560 -0.6825 -0.3893 -0.4196
    5DOPE  H18X  643   1.497   5.131   4.506  0.3475 -3.6959 -1.8064
    5DOPE  H18Y  644   1.446   4.981   4.563 -1.0876 -0.5172  0.0172
    5DOPE  H18Z  645   1.322   5.095   4.495 -0.3297 -0.0768 -0.8645
    6DOPE     N  646   0.811   5.085   7.157 -0.5838 -0.5076  0.7650
    6DOPE   HN1  647   0.718   5.098   7.113 -0.4387 -0.0972  0.5727
    6DOPE   HN2  648   0.818   5.154   7.234 -3.8139  0.4207  0.3993
    6DOPE   HN3  649   0.871   5.115   7.077 -1.3872  0.4553  0.5017
    6DOPE   C12  650   0.827   4.942   7.204 -0.1614  0.3057  0.0319
    6DOPE  H12A  651   0.782   4.931   7.305  0.1468  2.1564  0.4133
    6DOPE  H12B  652   0.937   4.923   7.205 -0.5067 -2.0697  1.8552
    6DOPE   C11  653   0.759   4.847   7.104  0.1067 -0.1943  0.0635
    6DOPE  H11A  654   0.775   4.747   7.149  2.8333  1.2980  2.7973
    6DOPE  H11B  655   0.802   4.848   7.001 -2.0168  3.4799 -0.9966
    6DOPE     P  656   0.553   4.957   6.974 -0.1661 -0.3320 -0.1736
    6DOPE   O13  657   0.602   5.093   6.967  0.0984  0.5691 -0.2184
    6DOPE   O14  658   0.404   4.951   6.973  0.0976 -0.5288 -0.3262
    6DOPE   O11  659   0.608   4.881   6.849  0.0088  0.4555 -0.3029
    6DOPE   O12  660   0.616   4.876   7.091 -0.1152 -0.3297  0.0944
    6DOPE    C1  661   0.598   4.746   6.819  0.4465  0.5091 -0.6957
    6DOPE    HA  662   0.538   4.684   6.889 -0.3543  1.8028 -0.1877
    6DOPE    HB  663   0.699   4.699   6.813  0.0155 -0.6948  0.8262
    6DOPE    C2  664   0.531   4.723   6.684  0.1245  0.5039 -0.2022
    6DOPE    HS  665   0.544   4.614   6.666  0.3431  0.6317 -0.8395
    6DOPE   O21  666   0.582   4.801   6.575  0.2842  0.7166 -0.4395
    6DOPE   C21  667   0.698   4.772   6.533  0.2044 -0.1644 -0.1937
    6DOPE   O22  668   0.770   4.678   6.566 -0.1713 -0.4531  0.0733
    6DOPE   C22  669   0.736   4.884   6.433 -0.0685 -0.0183  0.7344
    6DOPE   H2R  670   0.719   4.986   6.474  0.5924  0.8926 -1.1517
    6DOPE   H2S  671   0.662   4.872   6.351  0.2896  0.7686  0.2792
    6DOPE    C3  672   0.375   4.740   6.683  0.2230 -0.1337 -0.9646
    6DOPE    HX  673   0.366   4.850   6.696  4.9858  0.8297 -3.6295
    6DOPE    HY  674   0.335   4.680   6.768  0.2475  1.1784 -0.0054
    6DOPE   O31  675   0.316   4.680   6.567  0.0023  0.0151  0.0422
    6DOPE   C31  676   0.195   4.730   6.541 -0.3323  0.1802  0.7293
    6DOPE   O32  677   0.133   4.806   6.611  0.0456 -0.7045 -0.5989
    6DOPE   C32  678   0.141   4.667   6.406  0.3877  0.9940 -0.2875
    6DOPE   H2X  679   0.128   4.559   6.429 -0.4837  0.6152 -2.3875
    6DOPE   H2Y  680   0.036   4.699   6.394 -0.7445 -1.9205  0.8885
    6DOPE   C23  681   0.889   4.882   6.402 -0.2074 -0.5629 -0.1294
    6DOPE   H3R  682   0.929   4.780   6.382  3.4469  0.6503  0.1356
    6DOPE   H3S  683   0.945   4.920   6.491 -0.2256 -0.3872 -0.1929
    6DOPE   C24  684   0.936   4.958   6.276  0.3789  0.4118 -0.0695
    6DOPE   H4R  685   0.909   5.066   6.278  0.2860  0.4003 -0.4911
    6DOPE   H4S  686   0.882   4.912   6.190 -0.6411  0.8381  0.3321
    6DOPE   C25  687   1.077   4.922   6.245 -0.7311  0.2009  0.4563
    6DOPE   H5R  688   1.086   4.814   6.223 -1.0421 -0.0079  1.3104
    6DOPE   H5S  689   1.142   4.946   6.332 -0.6346 -0.2992  0.5265
    6DOPE   C26  690   1.126   4.998   6.120 -0.7504  0.3147  0.2357
    6DOPE   H6R  691   1.131   5.105   6.149 -0.7170  0.3072  0.2584
    6DOPE   H6S  692   1.050   4.987   6.040 -0.6968 -0.5750  0.2942
    6DOPE   C27  693   1.268   4.960   6.081 -0.2830  0.0554 -0.5485
    6DOPE   H7R  694   1.279   4.987   5.974 -0.5550 -0.4425 -0.7068
    6DOPE   H7S  695   1.301   4.855   6.096  1.9343  0.8535  0.5494
    6DOPE   C28  696   1.378   5.049   6.161 -0.8041  0.4508  0.4734
    6DOPE   H8R  697   1.388   4.995   6.257 -1.0075  0.5112  0.5299
    6DOPE   H8S  698   1.334   5.150   6.179  1.0312  1.4168 -0.2633
    6DOPE   C29  699   1.506   5.060   6.081 -0.2812 -0.0433 -0.1812
    6DOPE   H9R  700   1.501   5.067   5.971  0.8190  3.2188 -0.1563
    6DOPE  C210  701   1.630   5.084   6.126 -0.1586  0.0591 -0.0442
    6DOPE  H10R  702   1.712   5.108   6.056  1.8614 -0.5482  1.9596
    6DOPE  C211  703   1.667   5.087   6.274  0.5035 -0.2200 -0.0402
    6DOPE  H11R  704   1.576   5.129   6.322 -0.5311 -1.8989 -0.4739
    6DOPE  H11S  705   1.738   5.171   6.289 -0.6698  0.3587  3.0492
    6DOPE  C212  706   1.710   4.966   6.349  0.6832  0.2160 -0.1569
    6DOPE  H12R  707   1.626   4.894   6.343 -0.5270  1.3985  1.4094
    6DOPE  H12S  708   1.698   4.987   6.458 -0.2598 -1.6338  0.1307
    6DOPE  C213  709   1.842   4.922   6.302 -0.4166  0.0957 -0.1691
    6DOPE  H13R  710   1.899   5.017   6.293  0.3274 -0.5033 -2.3702
    6DOPE  H13S  711   1.828   4.874   6.203 -0.7960 -0.1579  0.0032
    6DOPE  C214  712   1.926   4.818   6.394  0.1308 -0.0397  0.0579
    6DOPE  H14R  713   1.856   4.733   6.407 -2.1414  1.6596 -0.5630
    6DOPE  H14S  714   1.953   4.875   6.485  0.1624  1.1306 -0.6583
    6DOPE  C215  715   2.052   4.783   6.318  0.0333  0.5708 -0.0404
    6DOPE  H15R  716   2.109   4.877   6.312  1.4336 -0.2447  0.1866
    6DOPE  H15S  717   2.028   4.735   6.220 -0.6807  0.9079 -0.0374
    6DOPE  C216  718   2.140   4.683   6.401 -0.0935 -0.0547 -0.1314
    6DOPE  H16R  719   2.153   4.590   6.342  1.0084  0.1753 -0.2615
    6DOPE  H16S  720   2.078   4.652   6.489 -0.5863  1.4498  0.0873
    6DOPE  C217  721   2.260   4.752   6.452 -0.8173  0.2639  0.1446
    6DOPE  H17R  722   2.321   4.792   6.368  1.0890 -2.5714  0.0344
    6DOPE  H17S  723   2.324   4.672   6.495 -0.6514  0.3479  0.0561
    6DOPE  C218  724   2.236   4.859   6.554  0.1854 -0.2100 -0.2310
    6DOPE  H18R  725   2.332   4.903   6.589  1.5874 -1.5984 -2.0585
    6DOPE  H18S  726   2.187   4.824   6.647 -2.4533 -0.8900 -1.7727
    6DOPE  H18T  727   2.178   4.938   6.500  1.7540  0.1493 -1.4828
    6DOPE   C33  728   0.241   4.687   6.286 -0.2846 -0.5162 -1.1013
    6DOPE   H3X  729   0.334   4.630   6.306  0.8336  1.9408  1.3394
    6DOPE   H3Y  730   0.269   4.795   6.289  1.7591 -0.9895  2.9716
    6DOPE   C34  731   0.177   4.629   6.156 -0.0242 -0.3133  1.2293
    6DOPE   H4X  732   0.166   4.519   6.167  1.5690 -0.7198 -0.8617
    6DOPE   H4Y  733   0.077   4.679   6.150  0.4128  0.4423 -0.3187
    6DOPE   C35  734   0.264   4.660   6.037  1.1548 -0.3382 -0.2134
    6DOPE   H5X  735   0.344   4.584   6.044  1.2948 -0.1615  0.2018
    6DOPE   H5Y  736   0.309   4.761   6.046  0.3684 -0.1313  2.3272
    6DOPE   C36  737   0.192   4.642   5.910  0.8748  0.0770  0.3189
    6DOPE   H6X  738   0.107   4.713   5.913  1.3722  0.6833  3.0137
    6DOPE   H6Y  739   0.154   4.538   5.900 -1.5000  0.7310  1.7820
    6DOPE   C37  740   0.279   4.677   5.796 -0.0119 -0.2617  0.1011
    6DOPE   H7X  741   0.301   4.785   5.810 -0.0104  0.0150 -1.8240
    6DOPE   H7Y  742   0.371   4.616   5.807 -0.2824 -0.5785  0.6480
    6DOPE   C38  743   0.204   4.661   5.662  0.5933  0.3805 -0.8571
    6DOPE   H8X  744   0.261   4.721   5.588  0.3697  3.1608  1.0674
    6DOPE   H8Y  745   0.104   4.708   5.673  0.4647  0.2211 -1.3255
    6DOPE   C39  746   0.179   4.516   5.617 -0.1262  0.2709 -0.0074
    6DOPE   H9X  747   0.096   4.457   5.659 -0.0508 -0.2905 -0.6228
    6DOPE  C310  748   0.250   4.451   5.524  0.3415 -0.0611 -0.2541
    6DOPE  H10X  749   0.211   4.357   5.484 -0.7814  1.3501 -2.7415
    6DOPE  C311  750   0.364   4.498   5.443 -0.0675 -0.7573 -0.6156
    6DOPE  H11X  751   0.414   4.574   5.507 -2.1208  0.0671  0.0852
    6DOPE  H11Y  752   0.442   4.420   5.427  0.5377 -0.4967  0.9188
    6DOPE  C312  753   0.322   4.545   5.305  0.3918  0.5948 -0.7313
    6DOPE  H12X  754   0.247   4.623   5.326 -1.4807 -1.4513  0.6487
    6DOPE  H12Y  755   0.263   4.465   5.256  1.6470 -1.2090  0.5710
    6DOPE  C313  756   0.426   4.588   5.201 -0.8619 -0.3381 -0.2725
    6DOPE  H13X  757   0.505   4.645   5.255 -0.8607 -0.1175 -0.5045
    6DOPE  H13Y  758   0.487   4.505   5.158 -0.6569  0.3765 -1.4066
    6DOPE  C314  759   0.376   4.675   5.083  0.0499  0.3924  0.0036
    6DOPE  H14X  760   0.460   4.673   5.009  1.4572 -0.8209  1.5589
    6DOPE  H14Y  761   0.355   4.779   5.116 -1.8156  0.3590 -0.9524
    6DOPE  C315  762   0.259   4.620   5.005 -0.5062  0.4357  0.4483
    6DOPE  H15X  763   0.182   4.577   5.072 -0.5790 -0.3885 -0.1533
    6DOPE  H15Y  764   0.290   4.532   4.945  3.1939  2.2847 -0.6549
    6DOPE  C316  765   0.200   4.712   4.902  0.6965 -0.4668  0.1768
    6DOPE  H16X  766   0.179   4.814   4.941 -2.1105 -0.9767  0.2289
    6DOPE  H16Y  767   0.098   4.678   4.873  0.9513  1.3727 -3.2846
    6DOPE  C317  768   0.281   4.728   4.770  0.0180  0.3401 -0.2957
    6DOPE  H17X  769   0.238   4.816   4.716  0.5436 -0.1905 -1.6341
    6DOPE  H17Y  770   0.387   4.747   4.799 -0.3780  0.7999  0.8986
    6DOPE  C318  771   0.277   4.597   4.685 -0.4192  0.4087  0.8212
    6DOPE  H18X  772   0.370   4.537   4.700 -1.5453 -1.5646  0.2841
    6DOPE  H18Y  773   0.187   4.534   4.701 -1.7092  1.2828 -2.3161
    6DOPE  H18Z  774   0.268   4.626   4.578  1.0446 -0.3814  0.4484
    7DOPE     N  775   3.509   5.617   6.741 -0.6279 -0.2612 -0.6404
    7DOPE   HN1  776   3.473   5.602   6.837  2.4625  0.5333  0.7520
    7DOPE   HN2  777   3.432   5.611   6.671 -1.1706  0.7810 -0.1563
    7DOPE   HN3  778   3.573   5.537   6.720  0.2066  0.5114 -1.1092
    7DOPE   C12  779   3.576   5.753   6.724 -0.0456  0.3549 -0.6103
    7DOPE  H12A  780   3.640   5.763   6.814  0.4026  0.3072 -0.9160
    7DOPE  H12B  781   3.487   5.819   6.732 -0.7292 -0.6537  0.2055
    7DOPE   C11  782   3.654   5.739   6.599  0.1411 -0.6111  0.6853
    7DOPE  H11A  783   3.706   5.835   6.579 -2.2813  0.7426  0.4602
    7DOPE  H11B  784   3.590   5.723   6.509  0.8438  1.3196 -0.2172
    7DOPE     P  785   3.901   5.633   6.623 -0.0731  0.2213  0.1094
    7DOPE   O13  786   3.957   5.492   6.628  0.2073  0.0179 -0.2876
    7DOPE   O14  787   3.933   5.737   6.723 -0.1737 -0.4848  0.4301
    7DOPE   O11  788   3.939   5.690   6.489  0.4664 -0.1087  0.2579
    7DOPE   O12  789   3.742   5.628   6.610  0.2572 -0.6744 -0.1019
    7DOPE    C1  790   3.882   5.637   6.366  0.2848  0.0064  0.8308
    7DOPE    HA  791   3.775   5.610   6.376 -0.0532  0.6230 -0.8470
    7DOPE    HB  792   3.941   5.545   6.349  1.8544  0.7906  1.8073
    7DOPE    C2  793   3.900   5.733   6.240  0.4690 -0.4006  0.3553
    7DOPE    HS  794   3.886   5.670   6.149 -2.4728 -1.0810  1.1555
    7DOPE   O21  795   4.018   5.808   6.242 -0.9612 -0.5720  0.0303
    7DOPE   C21  796   4.136   5.732   6.228  0.5001  0.0855 -0.1613
    7DOPE   O22  797   4.132   5.613   6.204  0.2623 -0.1204  0.6569
    7DOPE   C22  798   4.261   5.812   6.245 -0.1186  0.4485 -0.2831
    7DOPE   H2R  799   4.341   5.764   6.184  0.7626 -0.3925  1.4728
    7DOPE   H2S  800   4.301   5.802   6.348  1.0293 -1.4062 -0.8630
    7DOPE    C3  801   3.785   5.835   6.245  0.2815  0.2467 -0.4304
    7DOPE    HX  802   3.808   5.907   6.164  1.3599  0.0747 -0.2908
    7DOPE    HY  803   3.794   5.888   6.343  2.5766  2.0594 -1.5268
    7DOPE   O31  804   3.654   5.782   6.224  0.2229 -0.2724 -0.1006
    7DOPE   C31  805   3.556   5.864   6.198 -0.4857 -0.5963  0.2628
    7DOPE   O32  806   3.562   5.985   6.215  0.4063  0.0097 -0.6760
    7DOPE   C32  807   3.442   5.797   6.134 -0.3598  0.0817 -0.6052
    7DOPE   H2X  808   3.465   5.697   6.091 -1.0793  0.2071 -1.3062
    7DOPE   H2Y  809   3.363   5.796   6.211  2.3355 -3.2306  2.4800
    7DOPE   C23  810   4.248   5.954   6.191  0.4563 -0.1893 -0.3105
    7DOPE   H3R  811   4.342   6.007   6.215  0.4521  0.0976 -0.9269
    7DOPE   H3S  812   4.167   6.005   6.247  1.2768 -0.6495  1.3647
    7DOPE   C24  813   4.219   5.964   6.045  0.7471  0.4635  0.8151
    7DOPE   H4R  814   4.111   5.945   6.029  0.5498  3.2599 -2.2871
    7DOPE   H4S  815   4.281   5.883   6.002 -0.8448 -0.3137 -0.0888
    7DOPE   C25  816   4.273   6.094   5.985 -0.1990  0.1469  0.1860
    7DOPE   H5R  817   4.383   6.098   6.001 -0.4124  0.4817  1.7273
    7DOPE   H5S  818   4.235   6.184   6.038  0.7863 -0.0570  1.2750
    7DOPE   C26  819   4.236   6.102   5.840 -0.5394  0.0439 -0.4776
    7DOPE   H6R  820   4.259   6.010   5.783 -0.9069  0.4151 -1.2423
    7DOPE   H6S  821   4.293   6.190   5.803 -0.4093  0.2085  0.1025
    7DOPE   C27  822   4.094   6.155   5.809  0.0512  0.6944  0.9657
    7DOPE   H7R  823   4.086   6.253   5.859  1.3787  0.6207  1.3805
    7DOPE   H7S  824   4.025   6.091   5.867 -0.5261  0.6649  0.2679
    7DOPE   C28  825   4.052   6.174   5.666 -0.4130  0.2569  1.1106
    7DOPE   H8R  826   4.095   6.271   5.635 -0.5702  0.1695  0.6101
    7DOPE   H8S  827   3.944   6.195   5.652 -0.3641 -0.3506 -0.4567
    7DOPE   C29  828   4.093   6.062   5.569 -0.5963 -0.4428 -0.0499
    7DOPE   H9R  829   4.202   6.063   5.561 -0.4588  3.2392  0.5858
    7DOPE  C210  830   4.013   5.984   5.495 -0.4357  0.3963  0.0082
    7DOPE  H10R  831   4.066   5.915   5.428 -0.6318  1.0800 -0.8699
    7DOPE  C211  832   3.861   5.984   5.500 -0.5446  0.3165  0.8906
    7DOPE  H11R  833   3.820   5.989   5.603 -2.8427  0.7365  0.0275
    7DOPE  H11S  834   3.827   5.884   5.465  1.2853 -0.4640  1.2041
    7DOPE  C212  835   3.784   6.093   5.422 -0.1854  0.1738  0.0165
    7DOPE  H12R  836   3.833   6.112   5.324  0.4007  0.6767  0.3952
    7DOPE  H12S  837   3.789   6.185   5.483 -1.5509  0.8604 -0.8828
    7DOPE  C213  838   3.642   6.056   5.404  0.0558  0.8842  0.4120
    7DOPE  H13R  839   3.611   6.012   5.501 -1.1934  2.0277  0.5678
    7DOPE  H13S  840   3.633   5.989   5.315 -1.1291  1.7189 -0.1304
    7DOPE  C214  841   3.546   6.166   5.368  0.5168  0.2427  0.3128
    7DOPE  H14R  842   3.590   6.220   5.281  0.9915 -1.6615 -0.7072
    7DOPE  H14S  843   3.538   6.238   5.452 -0.8935 -1.5604  1.8029
    7DOPE  C215  844   3.398   6.111   5.338 -0.1107  0.3759 -0.1278
    7DOPE  H15R  845   3.362   6.058   5.428  0.6045 -0.2633 -0.2146
    7DOPE  H15S  846   3.401   6.037   5.255 -2.2250 -0.3736  0.3887
    7DOPE  C216  847   3.299   6.222   5.307 -0.8352 -0.7631 -0.0898
    7DOPE  H16R  848   3.309   6.290   5.394 -0.2477 -0.5465 -0.3203
    7DOPE  H16S  849   3.191   6.196   5.311 -1.1057 -0.3510 -2.7118
    7DOPE  C217  850   3.326   6.303   5.184  0.0204 -0.1713 -0.0831
    7DOPE  H17R  851   3.337   6.231   5.099 -0.9397 -0.0172 -0.3539
    7DOPE  H17S  852   3.425   6.350   5.202  0.2502 -1.3580  2.1441
    7DOPE  C218  853   3.224   6.409   5.142 -0.2540 -0.1333 -0.2700
    7DOPE  H18R  854   3.197   6.482   5.221 -0.1513  1.9525 -2.0579
    7DOPE  H18S  855   3.126   6.364   5.115 -0.5945  0.5290 -0.1797
    7DOPE  H18T  856   3.273   6.468   5.061  0.7723  1.0318  1.1529
    7DOPE   C33  857   3.375   5.870   6.016 -0.2451  0.1050  0.3788
    7DOPE   H3X  858   3.354   5.975   6.046 -0.8983  0.1218 -0.1221
    7DOPE   H3Y  859   3.276   5.822   6.007 -0.4077  0.5842 -0.4090
    7DOPE   C34  860   3.441   5.863   5.873 -0.0233 -0.0998 -0.1269
    7DOPE   H4X  861   3.543   5.907   5.877  0.6557 -1.6695  1.0485
    7DOPE   H4Y  862   3.446   5.760   5.832  1.2292  0.3070 -1.0593
    7DOPE   C35  863   3.349   5.935   5.771  0.1178  0.2721 -1.1277
    7DOPE   H5X  864   3.424   5.971   5.697  0.6271  3.5559  0.8139
    7DOPE   H5Y  865   3.305   6.025   5.819 -0.1435 -0.4075 -0.0481
    7DOPE   C36  866   3.241   5.847   5.710 -0.1912  0.6404 -0.0745
    7DOPE   H6X  867   3.175   5.801   5.787  1.2656 -1.0972  0.1764
    7DOPE   H6Y  868   3.287   5.762   5.656  0.6096 -1.7094  3.8347
    7DOPE   C37  869   3.135   5.919   5.616 -0.6973  0.0781 -0.4039
    7DOPE   H7X  870   3.075   5.973   5.692  1.3116  0.4710  0.9742
    7DOPE   H7Y  871   3.195   5.986   5.550  1.1514 -2.8260 -1.8869
    7DOPE   C38  872   3.044   5.824   5.537 -0.6680  0.0534  0.3185
    7DOPE   H8X  873   2.948   5.876   5.515 -0.1342  0.4755 -1.0908
    7DOPE   H8Y  874   3.023   5.736   5.602  2.5784 -0.0307  1.4200
    7DOPE   C39  875   3.118   5.767   5.419  0.0743 -0.1523  0.6294
    7DOPE   H9X  876   3.227   5.753   5.423  0.3957  1.4396 -1.3654
    7DOPE  C310  877   3.074   5.747   5.295  0.5121 -0.0170 -0.0504
    7DOPE  H10X  878   3.142   5.725   5.211  0.1958  1.3433 -0.6996
    7DOPE  C311  879   2.928   5.760   5.253  0.1173 -0.4426 -0.2856
    7DOPE  H11X  880   2.876   5.829   5.322 -1.0984 -2.7944  1.3004
    7DOPE  H11Y  881   2.924   5.812   5.155  0.7310 -0.3433 -0.2627
    7DOPE  C312  882   2.851   5.626   5.260 -0.3272 -0.3684  0.0602
    7DOPE  H12X  883   2.826   5.604   5.366  2.3332 -0.0637  0.8241
    7DOPE  H12Y  884   2.913   5.542   5.223 -0.1868  1.5714 -4.9463
    7DOPE  C313  885   2.722   5.628   5.183 -0.4506 -0.8889 -0.1088
    7DOPE  H13X  886   2.662   5.547   5.229  0.5499 -0.6270  1.7299
    7DOPE  H13Y  887   2.663   5.722   5.192  0.9207 -0.0906  0.9298
    7DOPE  C314  888   2.739   5.606   5.028 -0.5877 -1.5415 -0.8004
    7DOPE  H14X  889   2.638   5.593   4.983 -0.2791 -0.6210 -1.7839
    7DOPE  H14Y  890   2.794   5.510   5.012  1.7631 -1.1364  3.3118
    7DOPE  C315  891   2.803   5.716   4.947  0.2137  0.0584 -0.0697
    7DOPE  H15X  892   2.912   5.695   4.950  0.2429 -0.0750 -1.3144
    7DOPE  H15Y  893   2.786   5.809   5.006 -0.2719 -0.7247  1.0489
    7DOPE  C316  894   2.754   5.731   4.800  0.1969 -0.1004  0.7129
    7DOPE  H16X  895   2.800   5.820   4.752  0.1954  0.0758  1.0417
    7DOPE  H16Y  896   2.646   5.755   4.812  0.1550  0.5075 -0.6939
    7DOPE  C317  897   2.781   5.598   4.725 -0.2737 -0.8611  0.4187
    7DOPE  H17X  898   2.888   5.595   4.693 -0.1761  0.8298  0.5335
    7DOPE  H17Y  899   2.759   5.506   4.784 -1.0260 -1.3374 -0.5876
    7DOPE  C318  900   2.695   5.596   4.604  0.2055 -0.1169 -0.0984
    7DOPE  H18X  901   2.697   5.500   4.549  0.0930 -0.7194  0.9182
    7DOPE  H18Y  902   2.586   5.614   4.621  0.4571  2.3364 -0.6420
    7DOPE  H18Z  903   2.710   5.677   4.529  0.6706  0.5321  0.6800
    8DOPE     N  904   5.347   5.065   7.083 -0.3820 -0.1941 -0.3427
    8DOPE   HN1  905   5.375   5.122   7.000  1.0976 -0.2353  0.0865
    8DOPE   HN2  906   5.373   4.968   7.059 -0.7373  0.1649 -2.3180
    8DOPE   HN3  907   5.246   5.082   7.097 -0.4026 -0.8203  0.3519
    8DOPE   C12  908   5.433   5.097   7.198  0.5043 -0.4761  1.1325
    8DOPE  H12A  909   5.411   5.034   7.287  1.5387 -1.4341  0.7468
    8DOPE  H12B  910   5.432   5.201   7.236  0.1487 -0.3234  0.7066
    8DOPE   C11  911   5.572   5.048   7.155 -0.0074  0.0809  0.0437
    8DOPE  H11A  912   5.644   5.075   7.235 -0.5728  1.1077  0.2273
    8DOPE  H11B  913   5.602   5.090   7.057 -1.0672  2.4882  0.6593
    8DOPE     P  914   5.720   4.824   7.145 -0.0646  0.5069  0.0121
    8DOPE   O13  915   5.698   4.676   7.125  0.5677  0.0855  0.5253
    8DOPE   O14  916   5.779   4.861   7.275 -0.1256  0.0486  0.3624
    8DOPE   O11  917   5.810   4.881   7.029 -0.5426 -0.0685  0.1703
    8DOPE   O12  918   5.580   4.900   7.141 -0.4554 -0.2827 -0.0361
    8DOPE    C1  919   5.753   4.862   6.901 -0.6075 -0.0265  0.6162
    8DOPE    HA  920   5.654   4.910   6.887 -0.2451  0.1177 -2.0560
    8DOPE    HB  921   5.748   4.757   6.868  2.6048  0.4314 -1.8102
    8DOPE    C2  922   5.834   4.919   6.782 -0.7760  0.0304  0.2427
    8DOPE    HS  923   5.766   4.917   6.694 -0.6862 -3.8288  0.0878
    8DOPE   O21  924   5.953   4.841   6.758 -0.0975 -0.3971  0.6829
    8DOPE   C21  925   5.936   4.742   6.667 -0.2039 -0.3103 -0.4878
    8DOPE   O22  926   5.831   4.718   6.610  0.1152  0.7043 -0.3089
    8DOPE   C22  927   6.064   4.667   6.636  0.7140 -0.1671 -0.6459
    8DOPE   H2R  928   6.046   4.559   6.653 -0.3184 -0.3685 -2.7772
    8DOPE   H2S  929   6.144   4.695   6.708 -0.5651  1.0250  0.3734
    8DOPE    C3  930   5.879   5.067   6.808 -0.2552  0.4358 -0.1828
    8DOPE    HX  931   5.920   5.076   6.911  0.3242 -1.4028 -0.2252
    8DOPE    HY  932   5.794   5.139   6.804  0.3303  1.1350 -0.1516
    8DOPE   O31  933   5.981   5.102   6.712 -0.4825  0.9105  0.6395
    8DOPE   C31  934   6.105   5.104   6.748  0.2135 -0.1603 -0.2240
    8DOPE   O32  935   6.144   5.075   6.862 -0.5645 -0.1517 -0.4511
    8DOPE   C32  936   6.182   5.171   6.635  0.1463 -0.5856 -0.1237
    8DOPE   H2X  937   6.158   5.107   6.547 -2.7778  0.8525 -0.5037
    8DOPE   H2Y  938   6.139   5.272   6.615 -1.8412 -1.2173  0.6733
    8DOPE   C23  939   6.110   4.686   6.488 -0.6448 -0.0265  0.1973
    8DOPE   H3R  940   6.032   4.671   6.411  1.6089  1.0172 -2.4436
    8DOPE   H3S  941   6.185   4.605   6.473 -1.5320 -0.8533  0.0909
    8DOPE   C24  942   6.171   4.823   6.460  0.0019  0.4179  0.1013
    8DOPE   H4R  943   6.251   4.840   6.535  1.1327  1.8944 -1.3447
    8DOPE   H4S  944   6.093   4.901   6.472  0.2785  0.5588  1.1366
    8DOPE   C25  945   6.250   4.814   6.319  0.3818  0.4646 -0.8103
    8DOPE   H5R  946   6.304   4.716   6.314  0.5379  0.5370 -0.5391
    8DOPE   H5S  947   6.314   4.905   6.326  0.7256  0.1392  0.6003
    8DOPE   C26  948   6.163   4.815   6.196  0.2730 -0.1687  0.1336
    8DOPE   H6R  949   6.114   4.915   6.192  0.6533 -0.0220 -1.3440
    8DOPE   H6S  950   6.084   4.737   6.191 -2.3802  2.2442  1.4553
    8DOPE   C27  951   6.246   4.814   6.063 -0.0355  0.3573  0.2572
    8DOPE   H7R  952   6.288   4.712   6.049  1.6182  0.8883  1.0696
    8DOPE   H7S  953   6.323   4.894   6.073 -0.7020  1.3781 -2.1671
    8DOPE   C28  954   6.144   4.834   5.950  0.3185 -0.6627 -0.1295
    8DOPE   H8R  955   6.075   4.917   5.977  2.8922  1.0052  1.8434
    8DOPE   H8S  956   6.073   4.749   5.948 -1.2695  0.5778  0.7529
    8DOPE   C29  957   6.218   4.857   5.821  0.0813 -0.3294  0.0775
    8DOPE   H9R  958   6.270   4.954   5.816  1.1463 -0.9511 -3.3335
    8DOPE  C210  959   6.208   4.789   5.708  0.5779  0.7348 -0.1823
    8DOPE  H10R  960   6.253   4.825   5.615 -1.1015 -1.8202 -2.1327
    8DOPE  C211  961   6.134   4.666   5.675  0.9163 -0.5100  0.3485
    8DOPE  H11R  962   6.101   4.617   5.769 -1.0582  1.2593  0.6567
    8DOPE  H11S  963   6.202   4.599   5.618 -0.5126 -2.7126  1.0863
    8DOPE  C212  964   6.002   4.699   5.592 -0.0223 -0.2145  0.1659
    8DOPE  H12R  965   5.940   4.776   5.642 -1.6057  0.2463 -2.3108
    8DOPE  H12S  966   5.943   4.605   5.590  0.2751 -0.5181 -3.9068
    8DOPE  C213  967   6.028   4.731   5.443  0.6075  0.4086  0.1399
    8DOPE  H13R  968   6.084   4.643   5.406  0.5032  0.0268  0.8742
    8DOPE  H13S  969   6.105   4.810   5.433  1.1408 -0.0731  0.3693
    8DOPE  C214  970   5.892   4.772   5.389 -0.6205 -0.8279  0.5238
    8DOPE  H14R  971   5.863   4.864   5.444 -1.1403 -0.7424  0.1195
    8DOPE  H14S  972   5.820   4.688   5.385 -0.4227 -0.9730 -0.3421
    8DOPE  C215  973   5.894   4.804   5.234  0.3932  0.0502 -0.5770
    8DOPE  H15R  974   5.953   4.726   5.181 -2.0586 -3.2029  1.1115
    8DOPE  H15S  975   5.968   4.887   5.228  0.0587  0.5247  1.2851
    8DOPE  C216  976   5.765   4.831   5.156 -0.5152 -0.4915 -0.2444
    8DOPE  H16R  977   5.687   4.753   5.168 -0.8412 -0.1635 -0.2123
    8DOPE  H16S  978   5.789   4.835   5.048  0.9097 -2.7040 -0.0766
    8DOPE  C217  979   5.693   4.963   5.197 -0.3335 -0.1976 -0.1679
    8DOPE  H17R  980   5.761   5.050   5.208 -1.8546  0.9743  0.3679
    8DOPE  H17S  981   5.655   4.948   5.301  0.5732 -2.6005 -0.1264
    8DOPE  C218  982   5.578   4.990   5.101 -0.1053 -0.0572  0.2332
    8DOPE  H18R  983   5.608   5.000   4.994  0.0311  0.0855  0.2837
    8DOPE  H18S  984   5.518   5.079   5.130  0.4289  1.8564 -3.7526
    8DOPE  H18T  985   5.499   4.912   5.101 -0.8437  0.6438 -1.7079
    8DOPE   C33  986   6.332   5.159   6.647  0.7972 -0.3474  0.7298
    8DOPE   H3X  987   6.363   5.053   6.656 -0.6720 -0.8084  0.5901
    8DOPE   H3Y  988   6.376   5.201   6.740  0.7328  1.2713  0.0713
    8DOPE   C34  989   6.416   5.233   6.531  0.2847 -0.6720 -0.0228
    8DOPE   H4X  990   6.373   5.335   6.517 -1.5794 -1.4437 -0.1983
    8DOPE   H4Y  991   6.518   5.254   6.570 -0.3829 -1.6106  2.3738
    8DOPE   C35  992   6.426   5.155   6.395  0.3519 -0.0557  0.1988
    8DOPE   H5X  993   6.321   5.144   6.360  0.1279  0.2805  0.7463
    8DOPE   H5Y  994   6.471   5.056   6.417  0.9297 -0.0317 -0.8124
    8DOPE   C36  995   6.510   5.234   6.293 -0.1891 -0.0001  0.4365
    8DOPE   H6X  996   6.527   5.155   6.217 -0.6335  1.7932 -1.6060
    8DOPE   H6Y  997   6.602   5.282   6.334  0.0085  1.8788 -1.9907
    8DOPE   C37  998   6.437   5.351   6.222  0.0709  0.2325  0.0019
    8DOPE   H7X  999   6.347   5.309   6.172 -0.5136  1.2024  0.2025
    8DOPE   H7Y 1000   6.405   5.431   6.292  1.0641 -1.0772  2.0510
    8DOPE   C38 1001   6.539   5.407   6.118  0.4708  0.1572 -0.3106
    8DOPE   H8X 1002   6.561   5.330   6.040  1.3901  0.2599 -0.1527
    8DOPE   H8Y 1003   6.639   5.435   6.157  0.6388  0.1235 -0.7097
    8DOPE   C39 1004   6.487   5.531   6.054  0.0632  0.2159 -0.4482
    8DOPE   H9X 1005   6.458   5.608   6.127 -1.4258 -0.8606  0.1408
    8DOPE  C310 1006   6.487   5.560   5.923 -0.4582 -0.1705 -0.1578
    8DOPE  H10X 1007   6.457   5.660   5.887 -0.2746  0.3045  0.9586
    8DOPE  C311 1008   6.547   5.474   5.813 -0.3608  0.4918  0.0244
    8DOPE  H11X 1009   6.614   5.532   5.745 -0.0679 -1.9663 -1.9494
    8DOPE  H11Y 1010   6.624   5.401   5.845  0.4726  1.0536 -0.6238
    8DOPE  C312 1011   6.442   5.417   5.719  0.5634 -0.2490 -0.1200
    8DOPE  H12X 1012   6.421   5.489   5.637  0.3218 -1.6530 -1.3413
    8DOPE  H12Y 1013   6.348   5.404   5.777  0.7055 -0.1840  0.1253
    8DOPE  C313 1014   6.475   5.283   5.665  0.0098  0.4539  0.9925
    8DOPE  H13X 1015   6.412   5.273   5.573 -0.5670  1.8750  1.2094
    8DOPE  H13Y 1016   6.583   5.277   5.640 -0.2306 -0.1966  0.0553
    8DOPE  C314 1017   6.455   5.173   5.775 -0.7190 -0.2982  0.1872
    8DOPE  H14X 1018   6.348   5.150   5.792 -0.4817 -0.8614  1.0026
    8DOPE  H14Y 1019   6.496   5.204   5.874 -0.6988 -0.8328  0.3503
    8DOPE  C315 1020   6.530   5.048   5.749 -0.9424  0.3133  0.0385
    8DOPE  H15X 1021   6.504   4.981   5.833  2.2523 -0.1867  0.7472
    8DOPE  H15Y 1022   6.636   5.080   5.751 -1.4697  2.1699 -0.0857
    8DOPE  C316 1023   6.491   5.004   5.608  0.0567  0.0894  0.6691
    8DOPE  H16X 1024   6.525   5.069   5.525  0.2044 -1.8944 -0.9121
    8DOPE  H16Y 1025   6.380   5.005   5.609 -0.0104 -1.9861 -0.0014
    8DOPE  C317 1026   6.530   4.864   5.577 -0.6506  0.4125 -0.0530
    8DOPE  H17X 1027   6.640   4.858   5.590 -0.0239  3.4524 -2.6124
    8DOPE  H17Y 1028   6.488   4.789   5.647  2.5381 -3.0990 -1.5730
    8DOPE  C318 1029   6.488   4.815   5.441 -0.3039  1.0236  0.7546
    8DOPE  H18X 1030   6.517   4.708   5.436  0.7917  1.1990  2.5484
    8DOPE  H18Y 1031   6.549   4.869   5.365  0.3448 -0.1349  0.4381
    8DOPE  H18Z 1032   6.384   4.841   5.410 -0.0103  0.4760 -0.7424
    9DOPE     N 1033   0.085   3.848   7.362  0.0187 -1.0444  0.1391
    9DOPE   HN1 1034   0.132   3.900   7.285  1.0777 -1.7514  0.3001
    9DOPE   HN2 1035  -0.012   3.886   7.370 -0.9700 -3.0864 -1.2939
    9DOPE   HN3 1036   0.144   3.868   7.445 -0.5013  0.9947  0.0879
    9DOPE   C12 1037   0.101   3.704   7.348  0.2144  0.0707 -0.0953
    9DOPE  H12A 1038   0.014   3.652   7.393 -0.3973  2.3989  1.6207
    9DOPE  H12B 1039   0.194   3.677   7.401 -1.6753 -0.8096  2.9689
    9DOPE   C11 1040   0.106   3.684   7.194 -0.2089  0.3271 -0.1759
    9DOPE  H11A 1041   0.009   3.722   7.155 -0.3539  0.2642  0.1183
    9DOPE  H11B 1042   0.121   3.577   7.167  1.4365  0.9710 -1.9556
    9DOPE     P 1043   0.196   3.776   6.972  0.4072 -0.4601  0.0226
    9DOPE   O13 1044   0.309   3.722   6.901 -0.0607  0.0734 -0.3769
    9DOPE   O14 1045   0.169   3.918   6.942  0.4155 -0.3829 -0.5793
    9DOPE   O11 1046   0.067   3.692   6.931 -0.2066  0.1062 -1.3934
    9DOPE   O12 1047   0.210   3.746   7.124  0.0118 -0.1567  0.2538
    9DOPE    C1 1048   0.075   3.586   6.840 -0.4165  0.1756  0.0148
    9DOPE    HA 1049  -0.005   3.510   6.852 -0.1299  0.1744  2.3013
    9DOPE    HB 1050   0.174   3.536   6.847  0.6695  2.0595 -1.0512
    9DOPE    C2 1051   0.060   3.639   6.696 -0.0622  0.4039 -0.2415
    9DOPE    HS 1052   0.163   3.670   6.668  0.2390 -0.9787 -0.7692
    9DOPE   O21 1053  -0.037   3.742   6.694 -0.2298  0.2475 -0.2176
    9DOPE   C21 1054   0.007   3.851   6.631  0.0557  0.5154 -0.6713
    9DOPE   O22 1055   0.120   3.861   6.587  0.1615  0.7869  0.2229
    9DOPE   C22 1056  -0.082   3.966   6.636 -0.2183  0.5341 -0.7154
    9DOPE   H2R 1057  -0.020   4.040   6.691  1.1300 -1.3870  0.4673
    9DOPE   H2S 1058  -0.174   3.947   6.695  0.2328  1.7013  0.4112
    9DOPE    C3 1059   0.025   3.523   6.595  0.9970  0.4754 -0.8178
    9DOPE    HX 1060  -0.082   3.506   6.621  0.5906  1.3649 -1.8453
    9DOPE    HY 1061   0.082   3.431   6.616  1.1309  1.1856  2.5197
    9DOPE   O31 1062   0.023   3.570   6.461 -0.0609 -0.1168 -0.0452
    9DOPE   C31 1063   0.135   3.578   6.394 -0.0960  0.2817  0.2899
    9DOPE   O32 1064   0.236   3.522   6.434  0.5701 -0.5859 -0.0276
    9DOPE   C32 1065   0.119   3.658   6.259 -0.1139  0.3367  0.2055
    9DOPE   H2X 1066   0.087   3.588   6.179 -1.0479 -1.4602  2.0673
    9DOPE   H2Y 1067   0.048   3.741   6.278  0.9784  1.6334 -1.0744
    9DOPE   C23 1068  -0.091   4.027   6.490  0.3017  0.2299 -1.0166
    9DOPE   H3R 1069   0.004   4.017   6.434  0.0195 -1.1619 -1.2802
    9DOPE   H3S 1070  -0.107   4.135   6.509  2.6941  0.3964  0.4210
    9DOPE   C24 1071  -0.210   3.959   6.421  0.1829  0.6824 -0.1156
    9DOPE   H4R 1072  -0.301   3.969   6.485 -0.0464 -0.7685 -0.1859
    9DOPE   H4S 1073  -0.195   3.851   6.401 -1.7371  0.5363 -0.9010
    9DOPE   C25 1074  -0.238   4.018   6.287  0.5804 -0.3330 -0.1768
    9DOPE   H5R 1075  -0.245   4.129   6.286  1.8544 -0.2332 -0.5019
    9DOPE   H5S 1076  -0.343   3.991   6.261 -0.0060  0.1339  1.5783
    9DOPE   C26 1077  -0.144   3.968   6.169 -0.8205 -0.0621  0.1037
    9DOPE   H6R 1078  -0.163   3.858   6.168 -3.2457  0.2959 -1.1187
    9DOPE   H6S 1079  -0.038   3.985   6.198 -0.0983 -0.0452 -2.3649
    9DOPE   C27 1080  -0.180   4.013   6.032 -0.3717 -0.4394  0.1142
    9DOPE   H7R 1081  -0.165   4.123   6.026 -0.7858 -0.4301 -0.8994
    9DOPE   H7S 1082  -0.284   3.999   5.997 -0.5703  0.4240  0.3360
    9DOPE   C28 1083  -0.099   3.945   5.913 -0.3400 -0.0183 -0.0458
    9DOPE   H8R 1084  -0.137   3.841   5.902 -0.7705  0.2858 -1.7716
    9DOPE   H8S 1085   0.004   3.933   5.954  0.2265  1.3244 -1.0095
    9DOPE   C29 1086  -0.101   4.025   5.785 -0.3453  0.2632 -0.6694
    9DOPE   H9R 1087  -0.059   4.126   5.787  2.7322 -0.9257  1.6888
    9DOPE  C210 1088  -0.152   3.997   5.663 -0.0609 -0.1141 -1.4361
    9DOPE  H10R 1089  -0.140   4.070   5.581  0.6790  0.2170 -1.0488
    9DOPE  C211 1090  -0.213   3.868   5.623 -0.3767  0.0823 -0.5577
    9DOPE  H11R 1091  -0.300   3.880   5.555 -2.7869 -0.4852  2.2299
    9DOPE  H11S 1092  -0.256   3.817   5.712 -1.5800 -0.1325 -1.2460
    9DOPE  C212 1093  -0.123   3.759   5.556  0.0570  0.2046  0.4379
    9DOPE  H12R 1094  -0.177   3.665   5.582  2.5033 -1.1062  1.1342
    9DOPE  H12S 1095  -0.031   3.771   5.619 -0.5474  0.7416  1.2385
    9DOPE  C213 1096  -0.093   3.769   5.410 -0.4052 -0.8579  0.1868
    9DOPE  H13R 1097  -0.185   3.795   5.354  1.1013  0.4706 -1.7781
    9DOPE  H13S 1098  -0.047   3.671   5.383  1.2036 -0.5361  1.5787
    9DOPE  C214 1099  -0.007   3.891   5.376 -1.0459  0.1383  0.1328
    9DOPE  H14R 1100   0.101   3.890   5.404 -0.7552  0.5574 -0.9472
    9DOPE  H14S 1101  -0.056   3.983   5.415  0.4303  1.2984 -0.6508
    9DOPE  C215 1102  -0.001   3.917   5.225 -0.2400  0.4290 -0.2415
    9DOPE  H15R 1103   0.050   4.014   5.203 -0.2885  0.2871 -0.9994
    9DOPE  H15S 1104  -0.105   3.933   5.189 -0.6369  0.8257  1.0218
    9DOPE  C216 1105   0.069   3.807   5.146  0.3659  0.3681  0.5530
    9DOPE  H16R 1106   0.007   3.715   5.148  0.8888  0.0184  0.6595
    9DOPE  H16S 1107   0.168   3.776   5.184 -0.6500 -1.0653  2.1844
    9DOPE  C217 1108   0.079   3.846   4.999  0.6889  0.0809  0.5533
    9DOPE  H17R 1109   0.143   3.935   4.983 -2.1183  2.3205  0.9904
    9DOPE  H17S 1110  -0.023   3.859   4.959  0.9153  1.2523  0.3342
    9DOPE  C218 1111   0.145   3.736   4.920 -1.2954  0.2264  0.0693
    9DOPE  H18R 1112   0.190   3.773   4.826 -0.4360 -0.7863  0.0657
    9DOPE  H18S 1113   0.075   3.653   4.894 -0.3789  0.0743 -2.1116
    9DOPE  H18T 1114   0.222   3.691   4.986 -1.3753  0.2783  0.1988
    9DOPE   C33 1115   0.252   3.723   6.234  0.6895  0.5167 -0.7803
    9DOPE   H3X 1116   0.332   3.646   6.227  0.9215  0.0676  3.6910
    9DOPE   H3Y 1117   0.279   3.792   6.316  1.3065  0.2466 -0.7503
    9DOPE   C34 1118   0.251   3.802   6.105  0.1394  0.1835 -0.4576
    9DOPE   H4X 1119   0.176   3.884   6.106 -0.7302 -0.6024  0.3878
    9DOPE   H4Y 1120   0.350   3.851   6.093 -1.1445  2.2997 -4.1599
    9DOPE   C35 1121   0.223   3.716   5.984 -0.6812  0.3045 -0.2975
    9DOPE   H5X 1122   0.115   3.695   5.971 -1.0806  3.0076 -2.1948
    9DOPE   H5Y 1123   0.276   3.619   5.999 -0.3249  0.4839 -0.3753
    9DOPE   C36 1124   0.269   3.788   5.853 -0.6019 -0.4681  0.1297
    9DOPE   H6X 1125   0.379   3.803   5.859 -0.5848 -0.8423  0.8908
    9DOPE   H6Y 1126   0.222   3.888   5.851 -0.3487 -0.3321 -3.2349
    9DOPE   C37 1127   0.217   3.706   5.730  0.4869 -0.0161 -0.8848
    9DOPE   H7X 1128   0.268   3.608   5.742  2.4140  1.2191  2.2729
    9DOPE   H7Y 1129   0.109   3.693   5.748  0.6349  0.6090  0.5229
    9DOPE   C38 1130   0.253   3.774   5.596  0.2619  0.6466 -0.7108
    9DOPE   H8X 1131   0.217   3.879   5.602 -0.3596  0.4663 -1.2363
    9DOPE   H8Y 1132   0.190   3.725   5.518 -0.8490  0.8456  0.0350
    9DOPE   C39 1133   0.402   3.770   5.568  0.6101  0.4960  0.1406
    9DOPE   H9X 1134   0.449   3.677   5.604 -0.2297  0.1384  0.3403
    9DOPE  C310 1135   0.482   3.873   5.531  0.0038 -0.2207  0.4160
    9DOPE  H10X 1136   0.590   3.858   5.517 -0.0454  1.0796 -1.7132
    9DOPE  C311 1137   0.435   4.010   5.515 -0.1594 -0.0083 -0.3810
    9DOPE  H11X 1138   0.344   4.020   5.579 -0.1185 -2.2083  0.1042
    9DOPE  H11Y 1139   0.514   4.080   5.550  1.3674 -1.8358 -0.0462
    9DOPE  C312 1140   0.413   4.052   5.373 -0.1530  0.0850 -0.3425
    9DOPE  H12X 1141   0.369   4.152   5.353 -0.5823 -0.0927 -0.2953
    9DOPE  H12Y 1142   0.343   3.979   5.327 -0.3853  0.9235 -1.3593
    9DOPE  C313 1143   0.543   4.032   5.294  0.2952  0.0224  0.6393
    9DOPE  H13X 1144   0.617   4.074   5.364  0.5526  0.8825 -0.1352
    9DOPE  H13Y 1145   0.550   3.921   5.286 -0.5256  0.0001  0.0727
    9DOPE  C314 1146   0.550   4.089   5.151 -0.1037 -0.2687 -0.6735
    9DOPE  H14X 1147   0.527   4.197   5.156 -0.0365 -0.1852 -1.9626
    9DOPE  H14Y 1148   0.483   4.038   5.079 -0.5498 -1.6654  0.6770
    9DOPE  C315 1149   0.695   4.072   5.097 -0.6380 -0.2225  0.1485
    9DOPE  H15X 1150   0.766   4.136   5.153  1.2388  0.7133 -3.0250
    9DOPE  H15Y 1151   0.711   4.109   4.993  0.1687 -1.5862 -0.2492
    9DOPE  C316 1152   0.734   3.929   5.087  0.0268  0.4317  0.1290
    9DOPE  H16X 1153   0.746   3.874   5.183 -1.0292  3.5847  2.2146
    9DOPE  H16Y 1154   0.837   3.928   5.046 -1.1203 -0.8065 -3.0079
    9DOPE  C317 1155   0.658   3.852   4.987  1.2117 -1.2866  0.4709
    9DOPE  H17X 1156   0.554   3.848   5.027  0.7960  1.2415 -0.2320
    9DOPE  H17Y 1157   0.655   3.898   4.887  1.4819  1.2792  1.5768
    9DOPE  C318 1158   0.714   3.711   4.976 -0.3399  0.9596 -0.5490
    9DOPE  H18X 1159   0.812   3.713   4.924  0.9398  0.1901  1.7263
    9DOPE  H18Y 1160   0.732   3.657   5.071  0.0778  1.4378 -0.3576
    9DOPE  H18Z 1161   0.641   3.648   4.919  1.4054  0.3985 -2.2898
   10DOPE     N 1162   1.251   5.548   6.851  0.0893  0.6852 -0.2074
   10DOPE   HN1 1163   1.286   5.611   6.926 -0.8092  0.1505  0.6852
   10DOPE   HN2 1164   1.329   5.479   6.847  0.1102  0.5495  1.6178
   10DOPE   HN3 1165   1.242   5.606   6.765 -0.7243  1.7649  0.5718
   10DOPE   C12 1166   1.127   5.477   6.892  0.6877 -0.9997  0.2106
   10DOPE  H12A 1167   1.136   5.432   6.993 -1.1677  0.1348  0.9324
   10DOPE  H12B 1168   1.111   5.385   6.832 -0.9043  0.0090 -1.0061
   10DOPE   C11 1169   1.013   5.581   6.882  0.0076  0.4229  0.1593
   10DOPE  H11A 1170   0.999   5.590   6.772 -0.8765 -1.7752  0.0410
   10DOPE  H11B 1171   1.043   5.671   6.938  0.1959 -0.5369  1.6376
   10DOPE     P 1172   0.757   5.608   6.905 -0.1728 -0.1789  0.7636
   10DOPE   O13 1173   0.777   5.703   6.790 -0.4208  0.7775 -0.3264
   10DOPE   O14 1174   0.702   5.665   7.031 -0.0204  0.5420  0.3057
   10DOPE   O11 1175   0.663   5.489   6.860  0.3855 -0.0936  0.2882
   10DOPE   O12 1176   0.892   5.533   6.937 -0.8786  0.1400 -0.0543
   10DOPE    C1 1177   0.709   5.369   6.797 -0.0579 -0.6730  0.0314
   10DOPE    HA 1178   0.620   5.301   6.790 -0.3846 -0.3372  0.8287
   10DOPE    HB 1179   0.784   5.312   6.857 -0.0628 -2.9458 -1.9765
   10DOPE    C2 1180   0.754   5.385   6.653  0.1286 -0.2274  0.2040
   10DOPE    HS 1181   0.827   5.469   6.653 -0.8278  0.6450  1.1851
   10DOPE   O21 1182   0.635   5.411   6.573 -0.1477  0.3186 -0.3228
   10DOPE   C21 1183   0.640   5.516   6.494  0.4543 -0.6639 -0.0014
   10DOPE   O22 1184   0.728   5.599   6.487  0.5149  0.1906  0.0361
   10DOPE   C22 1185   0.510   5.519   6.411  0.3120 -0.8633 -0.2239
   10DOPE   H2R 1186   0.441   5.579   6.475 -3.1586 -1.6764 -2.8817
   10DOPE   H2S 1187   0.477   5.413   6.407 -0.9502 -0.4914 -0.4116
   10DOPE    C3 1188   0.817   5.259   6.593  0.1612  0.7860 -0.3277
   10DOPE    HX 1189   0.745   5.175   6.600  1.8173 -0.6667  0.3406
   10DOPE    HY 1190   0.902   5.231   6.660  0.7416  1.7411 -0.6460
   10DOPE   O31 1191   0.848   5.276   6.453  0.3493  0.2653  0.7820
   10DOPE   C31 1192   0.965   5.342   6.432 -0.2655 -0.7013  0.9915
   10DOPE   O32 1193   1.044   5.371   6.523 -0.5703 -0.1630 -0.1247
   10DOPE   C32 1194   0.993   5.351   6.278  0.1124 -0.7517 -0.3774
   10DOPE   H2X 1195   1.069   5.279   6.241  2.0305  2.1627 -2.5794
   10DOPE   H2Y 1196   0.896   5.325   6.229  0.1275  0.3572 -1.0210
   10DOPE   C23 1197   0.514   5.595   6.272  0.1624 -0.1902 -0.4854
   10DOPE   H3R 1198   0.584   5.682   6.272 -2.2849  1.9086 -1.1771
   10DOPE   H3S 1199   0.414   5.640   6.256 -0.7513 -1.8351  0.3751
   10DOPE   C24 1200   0.547   5.503   6.155 -0.6124 -0.4302  0.1842
   10DOPE   H4R 1201   0.471   5.422   6.165 -1.6208  0.4641  0.0121
   10DOPE   H4S 1202   0.644   5.451   6.172 -0.8799 -0.8898  0.3368
   10DOPE   C25 1203   0.541   5.563   6.012 -0.7237 -0.3334 -0.6551
   10DOPE   H5R 1204   0.610   5.650   6.019 -0.6199 -0.5369  2.9909
   10DOPE   H5S 1205   0.443   5.613   5.998 -1.4737 -1.7359 -0.6066
   10DOPE   C26 1206   0.572   5.470   5.891 -0.2143  0.4291 -0.2798
   10DOPE   H6R 1207   0.590   5.543   5.809  1.1417 -0.2122 -0.5828
   10DOPE   H6S 1208   0.486   5.402   5.874  0.4097 -0.4755  0.1060
   10DOPE   C27 1209   0.700   5.377   5.884 -0.1091  0.1516 -0.3045
   10DOPE   H7R 1210   0.675   5.292   5.950 -0.3782  0.7254  0.3505
   10DOPE   H7S 1211   0.787   5.418   5.939  0.5232 -1.2095 -0.2625
   10DOPE   C28 1212   0.742   5.332   5.739 -0.3056 -0.4936 -0.2608
   10DOPE   H8R 1213   0.789   5.425   5.701 -1.2151  1.3795  2.8755
   10DOPE   H8S 1214   0.658   5.304   5.672 -0.1669  0.3787 -0.8027
   10DOPE   C29 1215   0.838   5.218   5.730  0.1919 -0.5415 -0.2669
   10DOPE   H9R 1216   0.829   5.135   5.801  1.1935  0.0064  0.5361
   10DOPE  C210 1217   0.935   5.201   5.636 -0.6626  0.3994 -0.2720
   10DOPE  H10R 1218   0.998   5.113   5.651 -0.1353  0.9515  0.8271
   10DOPE  C211 1219   0.974   5.309   5.534 -0.3217 -0.0835  0.5711
   10DOPE  H11R 1220   1.083   5.292   5.521 -0.8626 -2.7355 -1.3605
   10DOPE  H11S 1221   0.950   5.410   5.573  0.4507  0.1320  0.4992
   10DOPE  C212 1222   0.918   5.291   5.392  0.2660  0.0093 -0.5574
   10DOPE  H12R 1223   0.812   5.321   5.403 -0.1889 -2.1301  1.8617
   10DOPE  H12S 1224   0.913   5.186   5.356 -2.2397  0.1042 -0.6876
   10DOPE  C213 1225   1.000   5.373   5.293 -0.0260 -0.4206 -0.5004
   10DOPE  H13R 1226   1.079   5.305   5.254 -0.4794 -0.0889 -2.0716
   10DOPE  H13S 1227   1.048   5.464   5.333 -1.2064 -0.2824  0.6759
   10DOPE  C214 1228   0.917   5.411   5.176 -0.1935  0.2523 -0.4489
   10DOPE  H14R 1229   0.821   5.462   5.200  0.2715  0.4272  1.1606
   10DOPE  H14S 1230   0.902   5.318   5.117  1.1133 -1.5552  1.8870
   10DOPE  C215 1231   1.000   5.501   5.081  0.7622 -0.4826  0.6048
   10DOPE  H15R 1232   1.105   5.466   5.072  1.2592  1.3089 -1.4078
   10DOPE  H15S 1233   0.998   5.608   5.112  0.2258 -0.1768 -0.3985
   10DOPE  C216 1234   0.937   5.514   4.938 -0.5031 -0.1976 -0.1549
   10DOPE  H16R 1235   0.839   5.565   4.954  0.6369  2.0102  0.2851
   10DOPE  H16S 1236   0.913   5.415   4.895 -0.4025 -0.8304  1.2076
   10DOPE  C217 1237   1.012   5.606   4.845 -0.2080  0.1138  0.0736
   10DOPE  H17R 1238   1.029   5.703   4.897 -3.3109 -0.4586  2.4803
   10DOPE  H17S 1239   0.954   5.619   4.751  1.2004 -1.3456 -1.0474
   10DOPE  C218 1240   1.150   5.551   4.796  0.0294  0.9233 -0.2559
   10DOPE  H18R 1241   1.180   5.613   4.708  0.8681  0.5041 -0.2782
   10DOPE  H18S 1242   1.134   5.445   4.768  2.4209  0.2970  0.5270
   10DOPE  H18T 1243   1.234   5.555   4.868 -2.2657  0.6641  2.5851
   10DOPE   C33 1244   1.027   5.490   6.237 -0.4179  0.8052  0.3354
   10DOPE   H3X 1245   1.124   5.516   6.285  0.2620  1.0375 -1.1251
   10DOPE   H3Y 1246   0.947   5.562   6.267 -0.0351  1.5899 -0.4754
   10DOPE   C34 1247   1.063   5.503   6.088  0.2602  0.4739 -0.3059
   10DOPE   H4X 1248   0.969   5.483   6.033 -0.3908  1.4120  0.4365
   10DOPE   H4Y 1249   1.096   5.606   6.063 -0.1790  1.0078  1.1814
   10DOPE   C35 1250   1.177   5.410   6.038  0.4788  0.2743  0.0863
   10DOPE   H5X 1251   1.157   5.302   6.059  1.2533 -0.1971 -1.4732
   10DOPE   H5Y 1252   1.271   5.429   6.094  1.0887 -2.2981  0.0711
   10DOPE   C36 1253   1.194   5.408   5.888  0.2124 -0.2109  0.5256
   10DOPE   H6X 1254   1.249   5.492   5.841  1.0241 -1.8849 -1.7465
   10DOPE   H6Y 1255   1.099   5.408   5.829  1.7650 -1.4920 -2.1603
   10DOPE   C37 1256   1.273   5.282   5.848 -0.1318  0.4523 -0.0050
   10DOPE   H7X 1257   1.349   5.255   5.925 -0.3565 -0.7855 -0.1943
   10DOPE   H7Y 1258   1.201   5.199   5.862 -0.1751  0.6255  0.8585
   10DOPE   C38 1259   1.339   5.301   5.715 -0.4412 -0.2865  0.2041
   10DOPE   H8X 1260   1.388   5.401   5.719 -0.9322 -0.0789  1.3085
   10DOPE   H8Y 1261   1.264   5.307   5.633 -1.0418  2.6998  0.8461
   10DOPE   C39 1262   1.449   5.197   5.680 -0.3368  0.3884 -0.1727
   10DOPE   H9X 1263   1.483   5.151   5.774 -4.8539  0.6629  1.8925
   10DOPE  C310 1264   1.495   5.151   5.565 -0.6719  0.0666  0.6959
   10DOPE  H10X 1265   1.570   5.071   5.571 -0.2626  0.4207  0.3863
   10DOPE  C311 1266   1.445   5.210   5.436  0.5267 -0.2622  0.2314
   10DOPE  H11X 1267   1.437   5.321   5.445  0.2013 -0.4020  2.1167
   10DOPE  H11Y 1268   1.526   5.192   5.362  1.4667  0.7244  0.9961
   10DOPE  C312 1269   1.315   5.147   5.384 -0.4106 -0.1040  0.4005
   10DOPE  H12X 1270   1.302   5.196   5.285  0.5199 -2.1433 -0.8027
   10DOPE  H12Y 1271   1.230   5.174   5.449 -1.0988  0.5605 -0.7495
   10DOPE  C313 1272   1.339   4.996   5.350 -0.3273  0.1595 -0.3195
   10DOPE  H13X 1273   1.428   4.992   5.284 -1.2406 -1.6555 -1.5031
   10DOPE  H13Y 1274   1.351   4.936   5.442 -1.6212  2.4996  1.4972
   10DOPE  C314 1275   1.222   4.940   5.264 -0.4872 -0.1958  0.1328
   10DOPE  H14X 1276   1.226   4.977   5.159  0.4591 -2.2521 -0.6148
   10DOPE  H14Y 1277   1.132   4.986   5.310  0.6952  1.0409  1.3197
   10DOPE  C315 1278   1.194   4.789   5.264 -0.6220  0.1812 -0.4024
   10DOPE  H15X 1279   1.110   4.769   5.194 -0.9963  1.6729 -0.4041
   10DOPE  H15Y 1280   1.155   4.756   5.363 -2.5075 -0.3551 -1.2844
   10DOPE  C316 1281   1.318   4.706   5.223  0.5456  0.0345 -0.0079
   10DOPE  H16X 1282   1.397   4.704   5.300  1.1342  1.1808 -0.5580
   10DOPE  H16Y 1283   1.347   4.754   5.127 -0.3419  0.9228  0.1477
   10DOPE  C317 1284   1.286   4.550   5.206  0.2625 -0.4943 -0.5447
   10DOPE  H17X 1285   1.187   4.538   5.156 -1.1918 -2.0249  2.4235
   10DOPE  H17Y 1286   1.365   4.505   5.143  0.6305 -0.7800  0.1151
   10DOPE  C318 1287   1.265   4.478   5.338 -1.0451  0.0011  0.2349
   10DOPE  H18X 1288   1.201   4.542   5.403 -2.4280 -1.1750  0.0882
   10DOPE  H18Y 1289   1.224   4.376   5.323 -0.2284 -0.1454 -1.1583
   10DOPE  H18Z 1290   1.367   4.469   5.382 -0.8101 -0.8226 -0.4440
   11DOPE     N 1291   6.137   2.047   6.840  0.3159 -0.1642 -0.3704
   11DOPE   HN1 1292   6.074   2.062   6.758  2.0160 -0.0093 -1.7263
   11DOPE   HN2 1293   6.105   1.956   6.878  1.9129 -0.6858 -0.2096
   11DOPE   HN3 1294   6.133   2.136   6.894  0.5072 -0.3760 -0.0106
   11DOPE   C12 1295   6.278   2.056   6.795 -0.2933  0.4226  0.4935
   11DOPE  H12A 1296   6.292   2.160   6.759 -0.7847  0.5048  0.5326
   11DOPE  H12B 1297   6.295   1.972   6.725 -0.2309 -0.3818  1.4540
   11DOPE   C11 1298   6.367   2.029   6.919  0.2018 -0.3439  0.5821
   11DOPE  H11A 1299   6.472   2.007   6.890  0.5375  0.5743  1.0623
   11DOPE  H11B 1300   6.334   1.932   6.962  0.5542 -0.6977  0.0755
   11DOPE     P 1301   6.464   2.247   7.009 -0.6717 -0.1144 -0.2758
   11DOPE   O13 1302   6.592   2.178   7.044  0.6785  0.1454  0.5107
   11DOPE   O14 1303   6.421   2.360   7.093  0.3343 -0.1373 -0.5759
   11DOPE   O11 1304   6.463   2.297   6.852  0.3590  0.2397 -0.4056
   11DOPE   O12 1305   6.354   2.133   7.010 -0.2364 -0.8676  0.3223
   11DOPE    C1 1306   6.572   2.262   6.766 -0.0378  0.4081 -0.1115
   11DOPE    HA 1307   6.623   2.166   6.790  1.6738  0.9006 -1.5739
   11DOPE    HB 1308   6.659   2.332   6.760  2.0404 -2.0383 -0.5397
   11DOPE    C2 1309   6.519   2.233   6.617  0.3920  0.4285  0.6598
   11DOPE    HS 1310   6.442   2.154   6.615 -0.8997  1.6580 -1.2351
   11DOPE   O21 1311   6.636   2.200   6.537  0.4836  0.0676 -0.0859
   11DOPE   C21 1312   6.665   2.072   6.535  0.0429  0.2392 -0.7379
   11DOPE   O22 1313   6.606   1.984   6.595  0.8315 -0.1376  0.3330
   11DOPE   C22 1314   6.802   2.048   6.470  0.1992 -0.5740  0.4323
   11DOPE   H2R 1315   6.870   2.009   6.548  0.9577  0.5055  0.3328
   11DOPE   H2S 1316   6.832   2.149   6.433 -1.1022  0.0032  0.8804
   11DOPE    C3 1317   6.444   2.356   6.564 -1.0116 -0.6575  0.5940
   11DOPE    HX 1318   6.503   2.448   6.586  1.6619 -1.1223 -3.6467
   11DOPE    HY 1319   6.354   2.369   6.628  0.7311 -0.2119  3.0985
   11DOPE   O31 1320   6.413   2.348   6.423 -0.5936  0.2544  0.1012
   11DOPE   C31 1321   6.517   2.398   6.346  0.0812 -0.0278  0.9297
   11DOPE   O32 1322   6.611   2.459   6.393  0.0052  0.2934 -0.5044
   11DOPE   C32 1323   6.510   2.351   6.201  0.5429  0.3090  0.3607
   11DOPE   H2X 1324   6.493   2.242   6.188  1.4578  0.3227 -1.2435
   11DOPE   H2Y 1325   6.416   2.395   6.161 -0.0908 -0.9840  0.3641
   11DOPE   C23 1326   6.801   1.950   6.351  0.5180 -0.1641  0.4833
   11DOPE   H3R 1327   6.734   1.869   6.386  2.4097 -0.4318  4.0149
   11DOPE   H3S 1328   6.905   1.913   6.334  1.5073  1.7448  1.9016
   11DOPE   C24 1329   6.760   2.017   6.218  0.4921  0.1941 -0.3478
   11DOPE   H4R 1330   6.834   2.095   6.188 -0.4613  0.8601 -1.0247
   11DOPE   H4S 1331   6.659   2.062   6.219  1.1029  1.6762 -1.1793
   11DOPE   C25 1332   6.770   1.916   6.112 -0.0946  0.3085  0.0842
   11DOPE   H5R 1333   6.722   1.820   6.140  1.6130 -0.0823  1.8064
   11DOPE   H5S 1334   6.875   1.887   6.093 -0.2810  0.5659 -1.5450
   11DOPE   C26 1335   6.718   1.962   5.970  0.4866  0.2436 -0.2673
   11DOPE   H6R 1336   6.795   2.024   5.919  1.1995  0.7193  1.3125
   11DOPE   H6S 1337   6.624   2.018   5.984  0.6907 -0.0237  2.9133
   11DOPE   C27 1338   6.693   1.838   5.888  1.1278  0.3436  0.4701
   11DOPE   H7R 1339   6.607   1.786   5.934  1.5038 -1.8842 -1.1684
   11DOPE   H7S 1340   6.768   1.757   5.889  0.5461 -0.3172 -2.0553
   11DOPE   C28 1341   6.665   1.866   5.737  0.2468  0.0245  0.1019
   11DOPE   H8R 1342   6.749   1.929   5.698 -0.6515  1.4577  0.3857
   11DOPE   H8S 1343   6.573   1.927   5.724  0.7781  0.2846 -3.5691
   11DOPE   C29 1344   6.648   1.738   5.666 -0.2316 -0.0699 -0.1664
   11DOPE   H9R 1345   6.554   1.690   5.697 -1.4153  0.0353 -3.2152
   11DOPE  C210 1346   6.735   1.669   5.593 -0.6722 -0.5428  0.4640
   11DOPE  H10R 1347   6.712   1.565   5.563  0.2888 -0.4650 -0.6051
   11DOPE  C211 1348   6.867   1.725   5.538 -0.1290  0.6257 -0.5525
   11DOPE  H11R 1349   6.951   1.655   5.558 -0.3291  0.9638  1.8264
   11DOPE  H11S 1350   6.890   1.825   5.580  0.7713  0.8951 -1.6492
   11DOPE  C212 1351   6.841   1.742   5.382 -0.6422 -0.1036 -0.1128
   11DOPE  H12R 1352   6.780   1.829   5.350  1.4466  1.8100  0.8791
   11DOPE  H12S 1353   6.804   1.642   5.348  0.5019 -0.1105 -1.4575
   11DOPE  C213 1354   6.965   1.767   5.299 -0.2221 -0.6577 -0.1539
   11DOPE  H13R 1355   7.008   1.868   5.320  0.2943 -0.4706 -1.8972
   11DOPE  H13S 1356   6.934   1.770   5.192  0.7893 -1.0011 -0.4769
   11DOPE  C214 1357   7.077   1.665   5.331 -0.0097 -0.2390  0.0897
   11DOPE  H14R 1358   7.031   1.566   5.349 -0.6340  0.3555  1.9897
   11DOPE  H14S 1359   7.121   1.684   5.432  0.0891 -0.5077  0.0982
   11DOPE  C215 1360   7.179   1.655   5.218 -0.6723 -0.1141  0.7245
   11DOPE  H15R 1361   7.277   1.618   5.255  0.7769  3.0183  0.3798
   11DOPE  H15S 1362   7.196   1.753   5.168 -0.5097 -0.4965  0.0135
   11DOPE  C216 1363   7.144   1.568   5.097  0.4700 -0.3753  0.3570
   11DOPE  H16R 1364   7.035   1.576   5.076  0.2071  0.6434  1.9194
   11DOPE  H16S 1365   7.174   1.462   5.113  0.2190 -0.1605  2.5613
   11DOPE  C217 1366   7.211   1.606   4.971  0.1699 -0.0100 -0.0629
   11DOPE  H17R 1367   7.204   1.717   4.967  0.3271 -0.0244 -1.1368
   11DOPE  H17S 1368   7.147   1.560   4.892 -2.4877 -0.2819  2.0830
   11DOPE  C218 1369   7.348   1.555   4.954  0.5007  0.0625  0.3755
   11DOPE  H18R 1370   7.417   1.624   5.007 -1.7267  2.3451  0.4873
   11DOPE  H18S 1371   7.375   1.556   4.846  1.5247 -1.3844  0.5980
   11DOPE  H18T 1372   7.352   1.460   5.012 -2.7445 -0.3439  0.1633
   11DOPE   C33 1373   6.645   2.392   6.122  0.0324  0.1906 -1.1829
   11DOPE   H3X 1374   6.734   2.339   6.162 -0.5078  1.3515  1.8047
   11DOPE   H3Y 1375   6.649   2.500   6.148 -2.3132  0.9792 -3.6177
   11DOPE   C34 1376   6.638   2.384   5.962  0.0850 -0.7092  0.1743
   11DOPE   H4X 1377   6.740   2.399   5.919  0.2427 -0.4956  0.6060
   11DOPE   H4Y 1378   6.612   2.282   5.928  2.5258 -1.2868 -0.2067
   11DOPE   C35 1379   6.543   2.489   5.897 -0.1237 -0.3470 -0.4486
   11DOPE   H5X 1380   6.568   2.590   5.935 -1.0496 -0.5558  0.7794
   11DOPE   H5Y 1381   6.440   2.468   5.933  0.4295  0.9979  2.2187
   11DOPE   C36 1382   6.552   2.490   5.745  0.2363 -0.5652 -0.3440
   11DOPE   H6X 1383   6.523   2.392   5.702  0.8257 -2.0742  2.4585
   11DOPE   H6Y 1384   6.652   2.525   5.710 -0.5899  1.8344 -0.4741
   11DOPE   C37 1385   6.443   2.590   5.700 -0.3428 -0.6305 -0.1790
   11DOPE   H7X 1386   6.343   2.551   5.729  0.7647 -2.8920  0.8678
   11DOPE   H7Y 1387   6.453   2.689   5.749 -1.6832 -0.3261 -0.4746
   11DOPE   C38 1388   6.443   2.613   5.548  0.0117  0.6038  0.2384
   11DOPE   H8X 1389   6.351   2.665   5.514 -0.9220 -1.1780 -0.1032
   11DOPE   H8Y 1390   6.427   2.515   5.497  2.3851  0.3300 -0.1103
   11DOPE   C39 1391   6.562   2.678   5.489 -0.0037 -0.5039 -0.0079
   11DOPE   H9X 1392   6.620   2.717   5.574  0.1035  0.4187 -0.4914
   11DOPE  C310 1393   6.598   2.692   5.361  0.0589 -0.2468 -0.5516
   11DOPE  H10X 1394   6.677   2.764   5.334  1.0686 -1.1116  0.0008
   11DOPE  C311 1395   6.527   2.629   5.239 -0.9802  0.0724 -0.6351
   11DOPE  H11X 1396   6.432   2.577   5.264 -0.6144 -0.0700  0.5084
   11DOPE  H11Y 1397   6.496   2.710   5.168 -2.1055 -0.9069 -1.2919
   11DOPE  C312 1398   6.630   2.539   5.164  0.1723 -0.3116  0.4030
   11DOPE  H12X 1399   6.566   2.487   5.090 -2.5980  2.2398  0.8198
   11DOPE  H12Y 1400   6.661   2.458   5.233 -1.0224  0.0140  1.3567
   11DOPE  C313 1401   6.759   2.600   5.101 -0.3161 -0.6201 -0.2318
   11DOPE  H13X 1402   6.731   2.669   5.020  0.2809 -0.7868 -0.5870
   11DOPE  H13Y 1403   6.822   2.646   5.180 -0.2763 -1.5402  0.2883
   11DOPE  C314 1404   6.850   2.496   5.030 -0.0212  0.3069 -0.3866
   11DOPE  H14X 1405   6.786   2.455   4.948 -0.6424  0.4512  0.0234
   11DOPE  H14Y 1406   6.871   2.419   5.107  2.3671  0.8952 -0.3736
   11DOPE  C315 1407   6.982   2.548   4.979  1.0384  0.0416 -0.0550
   11DOPE  H15X 1408   6.958   2.643   4.927 -0.7735  0.8290  2.0329
   11DOPE  H15Y 1409   7.029   2.476   4.909  2.1836  0.6322  0.0963
   11DOPE  C316 1410   7.089   2.572   5.087 -0.4501  0.3636 -0.0086
   11DOPE  H16X 1411   7.052   2.657   5.149 -1.9847 -1.2382  1.4047
   11DOPE  H16Y 1412   7.181   2.614   5.043  0.7017 -0.7057  1.2840
   11DOPE  C317 1413   7.118   2.452   5.183  0.0423 -0.1732 -0.3402
   11DOPE  H17X 1414   7.032   2.447   5.253 -0.2708  0.6934 -0.6496
   11DOPE  H17Y 1415   7.110   2.358   5.126  1.7886  0.2152 -1.2752
   11DOPE  C318 1416   7.253   2.463   5.267  1.3241 -0.2279  0.5306
   11DOPE  H18X 1417   7.336   2.476   5.193  1.3792  1.4122  0.8434
   11DOPE  H18Y 1418   7.248   2.552   5.333 -1.0649 -1.8592  2.7415
   11DOPE  H18Z 1419   7.274   2.371   5.325  1.0446 -0.3647  0.4144
   12DOPE     N 1420   3.981   6.102   7.115 -0.0679  0.7692 -0.2620
   12DOPE   HN1 1421   3.967   6.188   7.057 -2.4097  0.7947  0.2132
   12DOPE   HN2 1422   3.936   6.019   7.072  3.9352 -0.0519 -3.3366
   12DOPE   HN3 1423   3.942   6.125   7.209  1.0000 -1.0086  0.6505
   12DOPE   C12 1424   4.129   6.081   7.120 -0.1711 -0.8381  0.2587
   12DOPE  H12A 1425   4.150   5.976   7.148 -0.5896 -1.2642 -0.9435
   12DOPE  H12B 1426   4.184   6.148   7.190  0.7737 -0.8472 -0.4485
   12DOPE   C11 1427   4.194   6.096   6.978  0.0234  0.4136 -1.3304
   12DOPE  H11A 1428   4.137   6.041   6.900  0.5227 -0.3196 -1.1912
   12DOPE  H11B 1429   4.300   6.065   6.988  0.6957  2.8590 -0.3405
   12DOPE     P 1430   4.303   6.304   6.874  0.2807  0.0265  0.0059
   12DOPE   O13 1431   4.430   6.264   6.938  0.6229 -0.8127  0.1206
   12DOPE   O14 1432   4.277   6.445   6.865 -0.2902  0.0014  0.1648
   12DOPE   O11 1433   4.293   6.248   6.730 -0.2394  0.4055 -0.1314
   12DOPE   O12 1434   4.188   6.230   6.946 -0.0081  0.4518  0.7844
   12DOPE    C1 1435   4.389   6.140   6.690 -0.0741 -0.1135 -0.0504
   12DOPE    HA 1436   4.328   6.055   6.653 -2.1927  0.8142  1.1181
   12DOPE    HB 1437   4.451   6.101   6.774 -2.0688 -3.1624  0.2031
   12DOPE    C2 1438   4.489   6.190   6.589 -0.4505 -0.0575  0.1714
   12DOPE    HS 1439   4.555   6.262   6.643 -0.6235  0.9118 -0.8762
   12DOPE   O21 1440   4.432   6.251   6.466 -0.3379 -0.1397 -0.3912
   12DOPE   C21 1441   4.408   6.377   6.464  0.3433 -0.1904  0.4618
   12DOPE   O22 1442   4.437   6.450   6.556 -0.1229  0.7144 -0.1109
   12DOPE   C22 1443   4.373   6.412   6.321 -0.1237 -0.0514 -0.1677
   12DOPE   H2R 1444   4.359   6.522   6.308 -1.2052 -0.1471  0.1097
   12DOPE   H2S 1445   4.278   6.362   6.292 -0.0129 -0.2360 -0.2079
   12DOPE    C3 1446   4.574   6.066   6.534 -0.5771  0.1047  0.5097
   12DOPE    HX 1447   4.497   5.997   6.492 -2.3879  2.9417 -1.2439
   12DOPE    HY 1448   4.634   6.022   6.617 -0.7870 -1.5408 -0.1779
   12DOPE   O31 1449   4.656   6.090   6.414 -0.6342 -0.0577  0.0442
   12DOPE   C31 1450   4.769   6.158   6.443 -0.4646  0.2755  0.0868
   12DOPE   O32 1451   4.794   6.220   6.546  0.2527  0.0515  1.1857
   12DOPE   C32 1452   4.857   6.166   6.315  0.4657  0.2337  0.1652
   12DOPE   H2X 1453   4.952   6.116   6.343  0.8051  0.5309 -0.4465
   12DOPE   H2Y 1454   4.814   6.104   6.234  0.5084 -2.7498  2.2518
   12DOPE   C23 1455   4.485   6.372   6.222 -0.4141 -0.0178  0.6022
   12DOPE   H3R 1456   4.479   6.262   6.212  2.4345 -0.2850  1.0940
   12DOPE   H3S 1457   4.585   6.396   6.265  0.4274 -3.2145  0.6621
   12DOPE   C24 1458   4.474   6.431   6.083 -0.0113  1.0675  0.1697
   12DOPE   H4R 1459   4.459   6.540   6.095 -1.5201  0.7762  1.3465
   12DOPE   H4S 1460   4.377   6.396   6.041  0.3094 -3.3625  2.5030
   12DOPE   C25 1461   4.599   6.399   5.996  0.5579 -0.0247 -0.9563
   12DOPE   H5R 1462   4.607   6.289   5.988 -0.1919 -0.3456  1.7628
   12DOPE   H5S 1463   4.688   6.452   6.036 -0.1020  0.7721 -0.4912
   12DOPE   C26 1464   4.583   6.450   5.859 -0.0530 -0.0475  0.0928
   12DOPE   H6R 1465   4.503   6.406   5.795  0.0394  1.6472 -1.2850
   12DOPE   H6S 1466   4.684   6.455   5.811  1.0525 -1.1845  2.1668
   12DOPE   C27 1467   4.550   6.604   5.853 -0.6196  0.9827 -0.0204
   12DOPE   H7R 1468   4.596   6.657   5.940 -0.5865 -1.8031  1.7930
   12DOPE   H7S 1469   4.444   6.633   5.864 -0.3119  1.5461  1.8215
   12DOPE   C28 1470   4.619   6.681   5.736 -0.3277 -0.4378  0.4244
   12DOPE   H8R 1471   4.730   6.678   5.744 -0.2817 -0.4610 -0.2074
   12DOPE   H8S 1472   4.585   6.787   5.742 -0.0720 -0.3717  0.7542
   12DOPE   C29 1473   4.590   6.631   5.596  0.3128  0.3732 -0.5391
   12DOPE   H9R 1474   4.507   6.559   5.589  0.8830 -0.3468  0.0531
   12DOPE  C210 1475   4.651   6.668   5.482 -0.1987 -0.7050  0.0649
   12DOPE  H10R 1476   4.620   6.631   5.383  2.6213 -1.4108 -0.6444
   12DOPE  C211 1477   4.766   6.759   5.479 -0.1051 -0.1435  0.6348
   12DOPE  H11R 1478   4.859   6.702   5.457  1.1515  2.2345 -0.5656
   12DOPE  H11S 1479   4.778   6.819   5.572  1.4255 -0.7295  0.8484
   12DOPE  C212 1480   4.760   6.864   5.365  0.9825  0.1271  0.1983
   12DOPE  H12R 1481   4.659   6.909   5.379 -0.4765 -3.1158  1.2659
   12DOPE  H12S 1482   4.769   6.810   5.268 -1.4750 -3.3816  1.7066
   12DOPE  C213 1483   4.862   6.975   5.380 -0.1475  0.5670  0.0719
   12DOPE  H13R 1484   4.968   6.940   5.375  0.3351  2.1092 -1.9391
   12DOPE  H13S 1485   4.855   7.016   5.482  1.1803 -1.2680  0.9600
   12DOPE  C214 1486   4.837   7.091   5.283  0.5753  0.8158 -0.1868
   12DOPE  H14R 1487   4.873   7.186   5.328 -0.1615  1.0755 -0.1380
   12DOPE  H14S 1488   4.731   7.098   5.250  0.3502  3.0686  0.8700
   12DOPE  C215 1489   4.907   7.081   5.146  0.4100 -0.4085 -0.1920
   12DOPE  H15R 1490   4.866   6.998   5.083 -2.1851 -0.0813  0.9432
   12DOPE  H15S 1491   5.013   7.056   5.166  0.0914 -0.4884  1.5130
   12DOPE  C216 1492   4.892   7.211   5.064  0.0159  0.5124 -0.6589
   12DOPE  H16R 1493   4.838   7.288   5.124  1.1627  1.3987 -0.7249
   12DOPE  H16S 1494   4.828   7.194   4.975 -0.9335  0.0508  0.0933
   12DOPE  C217 1495   5.033   7.278   5.025 -0.1467  0.2747  0.2449
   12DOPE  H17R 1496   5.014   7.368   4.963 -2.4299 -0.4231 -0.1848
   12DOPE  H17S 1497   5.087   7.206   4.960 -0.3665 -1.5486  1.9670
   12DOPE  C218 1498   5.127   7.317   5.148 -0.3803 -0.8570  0.0233
   12DOPE  H18R 1499   5.149   7.226   5.208 -2.9228 -0.5065  1.6127
   12DOPE  H18S 1500   5.078   7.387   5.218 -0.8793 -0.6045 -0.5683
   12DOPE  H18T 1501   5.214   7.378   5.113 -2.0276  2.5821  1.4668
   12DOPE   C33 1502   4.906   6.311   6.285  0.2287  0.4790  0.1350
   12DOPE   H3X 1503   4.955   6.363   6.370  1.4646 -0.0273 -0.2417
   12DOPE   H3Y 1504   4.816   6.365   6.249  1.5554  1.9081 -1.1658
   12DOPE   C34 1505   5.011   6.298   6.171 -0.0610 -0.3533  0.2618
   12DOPE   H4X 1506   5.111   6.271   6.211  0.0309  0.0215  0.2899
   12DOPE   H4Y 1507   4.989   6.231   6.085 -0.4839 -1.1905  1.0125
   12DOPE   C35 1508   5.042   6.438   6.103 -0.1264  0.4122 -0.1984
   12DOPE   H5X 1509   5.047   6.506   6.191 -1.2601 -0.9603  1.0045
   12DOPE   H5Y 1510   4.954   6.464   6.040 -2.1999 -1.2349  1.8344
   12DOPE   C36 1511   5.173   6.433   6.025  0.1776  0.2309  0.7072
   12DOPE   H6X 1512   5.168   6.348   5.954 -1.3944  1.8346 -1.2203
   12DOPE   H6Y 1513   5.262   6.401   6.083  0.4838 -2.2088 -0.9795
   12DOPE   C37 1514   5.186   6.555   5.928 -0.1469 -0.2920  0.4562
   12DOPE   H7X 1515   5.165   6.650   5.981  1.6624  0.6973 -0.5319
   12DOPE   H7Y 1516   5.289   6.549   5.890  0.3034 -1.6479  1.7603
   12DOPE   C38 1517   5.091   6.549   5.810  0.2254  0.3723 -0.0079
   12DOPE   H8X 1518   4.990   6.522   5.849  0.0524  1.6468  0.4691
   12DOPE   H8Y 1519   5.104   6.457   5.748  0.3650 -1.9071  3.1582
   12DOPE   C39 1520   5.095   6.678   5.732  0.4350 -0.1256 -0.0976
   12DOPE   H9X 1521   5.048   6.757   5.792 -1.4191 -0.5730 -0.8999
   12DOPE  C310 1522   5.165   6.712   5.621 -0.5236 -0.1367 -1.1260
   12DOPE  H10X 1523   5.141   6.812   5.582 -0.5168  1.0081  1.5728
   12DOPE  C311 1524   5.246   6.624   5.532 -0.6332  0.3134  0.0571
   12DOPE  H11X 1525   5.357   6.635   5.539 -0.5088 -1.1445  0.9604
   12DOPE  H11Y 1526   5.235   6.517   5.559  0.6323 -0.0916 -0.9242
   12DOPE  C312 1527   5.200   6.651   5.387  0.2140  0.3590 -0.5256
   12DOPE  H12X 1528   5.091   6.634   5.372  0.5641 -1.0921 -1.6378
   12DOPE  H12Y 1529   5.249   6.572   5.327  0.4244 -0.1970  0.3514
   12DOPE  C313 1530   5.237   6.792   5.332 -0.1264 -0.5816 -0.2682
   12DOPE  H13X 1531   5.195   6.867   5.402  0.9504 -1.2985  1.1861
   12DOPE  H13Y 1532   5.348   6.795   5.331 -0.1031 -1.3369 -1.5033
   12DOPE  C314 1533   5.185   6.803   5.192  0.5559 -0.3002  0.1074
   12DOPE  H14X 1534   5.074   6.794   5.191  0.6805 -2.1815 -1.1770
   12DOPE  H14Y 1535   5.213   6.711   5.136 -0.2710 -0.9814  0.7663
   12DOPE  C315 1536   5.248   6.917   5.107  0.6608 -0.3723  0.3995
   12DOPE  H15X 1537   5.358   6.901   5.104  0.3271 -3.1266 -0.1587
   12DOPE  H15Y 1538   5.237   7.011   5.166 -2.0841  0.6351 -1.5144
   12DOPE  C316 1539   5.197   6.917   4.959 -0.2381  0.3679 -0.0925
   12DOPE  H16X 1540   5.094   6.955   4.972 -0.7032 -0.5611 -0.9601
   12DOPE  H16Y 1541   5.189   6.822   4.903 -1.9742  1.0164 -0.9958
   12DOPE  C317 1542   5.282   7.011   4.880  0.3699  0.2817  0.1150
   12DOPE  H17X 1543   5.282   7.114   4.922 -1.8090  0.8018 -0.9648
   12DOPE  H17Y 1544   5.387   6.977   4.873  0.3139  0.1094  0.0920
   12DOPE  C318 1545   5.223   7.035   4.740 -0.1773 -0.0081 -0.9591
   12DOPE  H18X 1546   5.113   7.049   4.742 -0.3501 -1.1251  2.0010
   12DOPE  H18Y 1547   5.262   7.133   4.702 -0.3846  0.4934  0.0758
   12DOPE  H18Z 1548   5.237   6.954   4.666  0.6841 -0.2048 -0.6014
   13DOPE     N 1549   2.877   1.243   7.111  0.0889 -0.1336  0.5766
   13DOPE   HN1 1550   2.849   1.169   7.043  0.2320  0.5334 -0.2211
   13DOPE   HN2 1551   2.883   1.196   7.204 -0.8264 -0.1978  0.6197
   13DOPE   HN3 1552   2.797   1.309   7.122  0.4738  0.1024  2.2322
   13DOPE   C12 1553   3.005   1.314   7.089  0.2838  0.2071 -0.4649
   13DOPE  H12A 1554   3.062   1.309   7.184 -1.9056  0.2844  0.9015
   13DOPE  H12B 1555   2.983   1.419   7.059  1.1336 -0.3447 -3.4132
   13DOPE   C11 1556   3.093   1.249   6.982 -0.5337  0.5372  0.3339
   13DOPE  H11A 1557   3.196   1.291   6.981 -0.2712 -0.0678 -1.7051
   13DOPE  H11B 1558   3.041   1.258   6.884 -2.1642 -1.5856  0.9231
   13DOPE     P 1559   3.229   1.022   7.007  0.1559 -0.0857 -0.0123
   13DOPE   O13 1560   3.187   0.877   7.013  0.1772 -0.2207 -0.2038
   13DOPE   O14 1561   3.333   1.068   7.103 -0.3369 -0.2345  0.3714
   13DOPE   O11 1562   3.287   1.046   6.862 -0.6786 -0.3766  0.1886
   13DOPE   O12 1563   3.097   1.113   7.010  0.0771  0.6807  0.1688
   13DOPE    C1 1564   3.420   1.096   6.839 -0.4423  0.4762 -0.1703
   13DOPE    HA 1565   3.488   1.062   6.919 -1.0259 -0.0472  0.1133
   13DOPE    HB 1566   3.415   1.207   6.842  0.6429  0.5449 -0.5625
   13DOPE    C2 1567   3.477   1.045   6.701  0.5730 -0.2473  0.1801
   13DOPE    HS 1568   3.588   1.042   6.704  0.8089  1.5140 -2.6523
   13DOPE   O21 1569   3.430   1.135   6.599 -0.2109  0.4245 -0.4915
   13DOPE   C21 1570   3.508   1.233   6.582 -0.1538 -0.1368 -0.0648
   13DOPE   O22 1571   3.604   1.270   6.651  0.2573 -0.3068 -0.1664
   13DOPE   C22 1572   3.457   1.312   6.461 -0.1481 -0.4687  0.3798
   13DOPE   H2R 1573   3.545   1.376   6.438 -0.4262 -0.0407  0.4935
   13DOPE   H2S 1574   3.374   1.375   6.499  0.4671  0.2503  0.5519
   13DOPE    C3 1575   3.435   0.891   6.674  0.5838  0.1818  0.0513
   13DOPE    HX 1576   3.325   0.901   6.669  0.5958  0.8003  0.8257
   13DOPE    HY 1577   3.478   0.821   6.750  1.8957 -0.6457 -1.3909
   13DOPE   O31 1578   3.467   0.841   6.543  0.3686  1.2318  0.2578
   13DOPE   C31 1579   3.592   0.819   6.509 -0.6072  0.4704 -0.6760
   13DOPE   O32 1580   3.683   0.809   6.592 -0.0292 -0.1326  0.3504
   13DOPE   C32 1581   3.594   0.804   6.355 -0.3807  0.0585  0.7957
   13DOPE   H2X 1582   3.529   0.718   6.328  0.5566 -0.5522  0.4233
   13DOPE   H2Y 1583   3.543   0.896   6.316 -2.0928 -0.5816  1.4320
   13DOPE   C23 1584   3.397   1.219   6.351 -0.6260  0.2168  0.3011
   13DOPE   H3R 1585   3.342   1.282   6.279  0.8226  1.5793  0.3183
   13DOPE   H3S 1586   3.325   1.139   6.379 -1.4939  0.8462 -0.1254
   13DOPE   C24 1587   3.498   1.157   6.261  0.2652 -0.0794  0.0747
   13DOPE   H4R 1588   3.573   1.095   6.315  0.6865 -0.2036 -0.6422
   13DOPE   H4S 1589   3.571   1.229   6.220  2.0723 -1.1745  1.2585
   13DOPE   C25 1590   3.440   1.073   6.148  0.3646  0.1161 -0.1103
   13DOPE   H5R 1591   3.374   0.996   6.193 -1.7731  0.8554 -1.7716
   13DOPE   H5S 1592   3.513   1.005   6.101 -2.0866 -4.1194  1.6504
   13DOPE   C26 1593   3.364   1.152   6.036  0.0943  0.4510 -0.2357
   13DOPE   H6R 1594   3.281   1.211   6.080 -1.9200 -0.3703 -2.7082
   13DOPE   H6S 1595   3.315   1.075   5.972  1.0146  1.8183 -2.6915
   13DOPE   C27 1596   3.453   1.237   5.951  0.1507 -0.0748  0.5888
   13DOPE   H7R 1597   3.509   1.304   6.020  2.0448 -0.1583 -0.7793
   13DOPE   H7S 1598   3.407   1.315   5.886  0.2627 -0.3043  0.2273
   13DOPE   C28 1599   3.553   1.165   5.860  0.6532  0.0345  0.3515
   13DOPE   H8R 1600   3.631   1.122   5.926  0.4940  0.7932  1.0548
   13DOPE   H8S 1601   3.608   1.238   5.797 -0.4298 -1.4277 -2.4507
   13DOPE   C29 1602   3.505   1.050   5.772 -0.9041 -0.1611 -0.9195
   13DOPE   H9R 1603   3.454   0.969   5.827  0.9206 -1.8055 -1.5587
   13DOPE  C210 1604   3.502   1.046   5.638 -0.3320  0.6809  0.2572
   13DOPE  H10R 1605   3.486   0.947   5.593  0.2635  0.6840  0.0278
   13DOPE  C211 1606   3.528   1.151   5.534 -0.6251  0.0592 -0.0547
   13DOPE  H11R 1607   3.624   1.130   5.483 -0.2686 -0.9704  1.0133
   13DOPE  H11S 1608   3.523   1.251   5.583 -1.3295  0.7496 -1.4740
   13DOPE  C212 1609   3.419   1.158   5.427 -0.6026 -0.1506 -0.5058
   13DOPE  H12R 1610   3.407   1.259   5.381 -0.3108 -1.2404 -3.1603
   13DOPE  H12S 1611   3.317   1.129   5.461 -1.2273  0.8877 -1.4025
   13DOPE  C213 1612   3.430   1.058   5.315 -0.1469  0.3152 -0.1847
   13DOPE  H13R 1613   3.436   0.962   5.370 -0.6228  0.2682 -0.2146
   13DOPE  H13S 1614   3.524   1.086   5.263  0.8056 -0.7091  0.9210
   13DOPE  C214 1615   3.320   1.056   5.207 -0.4048 -0.2064  0.0517
   13DOPE  H14R 1616   3.345   1.145   5.146 -0.3614 -0.0904  0.2369
   13DOPE  H14S 1617   3.225   1.057   5.265 -0.1300  0.3719  0.5076
   13DOPE  C215 1618   3.335   0.924   5.129  0.3798  0.5136 -0.3868
   13DOPE  H15R 1619   3.334   0.838   5.199 -2.0178 -0.7332 -1.8016
   13DOPE  H15S 1620   3.438   0.929   5.086  0.9885 -0.8197  0.8251
   13DOPE  C216 1621   3.219   0.908   5.025 -0.1790  0.4732 -0.5495
   13DOPE  H16R 1622   3.249   0.983   4.948  0.0746 -0.1344 -1.0549
   13DOPE  H16S 1623   3.123   0.928   5.076  0.2756  0.9863  0.1245
   13DOPE  C217 1624   3.212   0.776   4.953  0.9233 -0.1183  0.5507
   13DOPE  H17R 1625   3.201   0.697   5.030 -1.2874 -0.0608  0.3597
   13DOPE  H17S 1626   3.302   0.769   4.889  2.1639 -0.8898  2.2976
   13DOPE  C218 1627   3.097   0.764   4.860 -0.1106 -0.2194 -0.0072
   13DOPE  H18R 1628   3.104   0.675   4.795  0.5982  1.1454 -1.8842
   13DOPE  H18S 1629   3.090   0.848   4.788  1.1573  1.2120  1.4464
   13DOPE  H18T 1630   3.006   0.771   4.923  1.1170  1.6081  1.6919
   13DOPE   C33 1631   3.730   0.780   6.291 -0.9804  0.2617 -0.5232
   13DOPE   H3X 1632   3.756   0.673   6.306  0.7948  0.8906  1.3305
   13DOPE   H3Y 1633   3.814   0.829   6.342 -0.2625 -1.9523  0.5711
   13DOPE   C34 1634   3.734   0.813   6.144  0.4200  0.9095 -0.0808
   13DOPE   H4X 1635   3.727   0.924   6.137 -1.1228  0.8618  0.3189
   13DOPE   H4Y 1636   3.834   0.787   6.104  0.1559  1.3415 -1.0618
   13DOPE   C35 1637   3.630   0.724   6.066 -0.1251  0.2722 -0.4249
   13DOPE   H5X 1638   3.529   0.761   6.094  0.2785  1.9590 -1.0380
   13DOPE   H5Y 1639   3.625   0.617   6.094 -2.7076 -0.0850 -1.8949
   13DOPE   C36 1640   3.643   0.731   5.909 -0.9465  0.4041 -0.6009
   13DOPE   H6X 1641   3.650   0.839   5.883  2.0211  0.1590 -1.2442
   13DOPE   H6Y 1642   3.551   0.688   5.865 -2.5666  0.7138  2.2318
   13DOPE   C37 1643   3.773   0.673   5.847  0.1415 -0.2524 -0.0291
   13DOPE   H7X 1644   3.859   0.730   5.888 -0.7569  0.9491  0.2577
   13DOPE   H7Y 1645   3.786   0.567   5.878  0.8693  0.1080  0.9278
   13DOPE   C38 1646   3.774   0.665   5.698  0.1309 -0.7486 -0.1096
   13DOPE   H8X 1647   3.706   0.582   5.670  1.0890 -1.3996 -0.5494
   13DOPE   H8Y 1648   3.873   0.627   5.667  0.0689 -0.4178 -0.7291
   13DOPE   C39 1649   3.759   0.794   5.624  0.3172 -0.1553  0.3585
   13DOPE   H9X 1650   3.777   0.887   5.681 -0.9382 -0.6414  1.5954
   13DOPE  C310 1651   3.747   0.810   5.491  0.0028 -0.1700 -0.2789
   13DOPE  H10X 1652   3.742   0.910   5.447  1.6727 -0.8520 -2.1828
   13DOPE  C311 1653   3.751   0.703   5.386  0.7488  0.0732 -0.4371
   13DOPE  H11X 1654   3.781   0.603   5.423  0.0167 -0.1010 -0.2940
   13DOPE  H11Y 1655   3.646   0.700   5.350  1.2956  2.6269 -2.5264
   13DOPE  C312 1656   3.839   0.727   5.259 -0.1516 -0.3110 -0.5853
   13DOPE  H12X 1657   3.945   0.744   5.290 -0.3976  1.1263 -0.4412
   13DOPE  H12Y 1658   3.795   0.815   5.207  0.8177 -0.2814 -1.3816
   13DOPE  C313 1659   3.834   0.618   5.152  0.5935  0.0091  0.1635
   13DOPE  H13X 1660   3.869   0.518   5.184  0.0500 -0.2879 -0.1563
   13DOPE  H13Y 1661   3.726   0.618   5.123 -0.0575  2.5930  2.1311
   13DOPE  C314 1662   3.926   0.649   5.030  0.0526 -0.4981  0.0406
   13DOPE  H14X 1663   3.965   0.555   4.986  1.4384  0.8033 -1.6780
   13DOPE  H14Y 1664   4.012   0.713   5.059 -0.7330  1.0280 -0.7895
   13DOPE  C315 1665   3.851   0.721   4.916 -0.4551 -0.9343 -0.4260
   13DOPE  H15X 1666   3.797   0.809   4.956  0.9995 -0.5916  0.8939
   13DOPE  H15Y 1667   3.776   0.647   4.878 -0.2838 -1.5380  0.3635
   13DOPE  C316 1668   3.947   0.742   4.801 -0.5457 -0.3102  0.0953
   13DOPE  H16X 1669   3.895   0.769   4.707  0.2720 -1.4675 -0.7250
   13DOPE  H16Y 1670   4.009   0.651   4.783  1.8140  0.9934  1.1451
   13DOPE  C317 1671   4.052   0.846   4.831 -0.5667  0.7073  0.3436
   13DOPE  H17X 1672   4.009   0.944   4.860 -0.0251  0.7881  0.9051
   13DOPE  H17Y 1673   4.126   0.821   4.910 -1.2293  0.6970  0.9697
   13DOPE  C318 1674   4.144   0.866   4.708 -0.3025 -0.3519 -0.2585
   13DOPE  H18X 1675   4.203   0.778   4.677  0.3019 -0.4350  1.0448
   13DOPE  H18Y 1676   4.087   0.904   4.621 -2.1027 -0.9809  0.6073
   13DOPE  H18Z 1677   4.228   0.930   4.744 -0.2589 -1.0994  1.0445
   14DOPE     N 1678   5.074   4.135   6.910 -0.4236  0.2489 -0.1244
   14DOPE   HN1 1679   4.984   4.158   6.957  1.1495  1.3455  2.6048
   14DOPE   HN2 1680   5.054   4.146   6.809  0.8189 -1.7307 -0.6398
   14DOPE   HN3 1681   5.091   4.035   6.934  1.1176  0.4324 -0.3443
   14DOPE   C12 1682   5.183   4.230   6.960 -0.1088 -0.2042 -0.0767
   14DOPE  H12A 1683   5.249   4.249   6.873  2.5643 -2.6850  1.2296
   14DOPE  H12B 1684   5.228   4.167   7.040  0.2130  0.7247  0.4919
   14DOPE   C11 1685   5.126   4.356   7.024  0.3335 -0.2106 -1.1436
   14DOPE  H11A 1686   5.216   4.412   7.058 -1.1459  1.6654 -0.0995
   14DOPE  H11B 1687   5.065   4.332   7.114 -1.1472  0.2075 -2.0065
   14DOPE     P 1688   5.004   4.579   6.962  0.2725  0.0857 -0.1396
   14DOPE   O13 1689   5.114   4.663   6.908  0.2368  0.1305  0.0616
   14DOPE   O14 1690   4.971   4.597   7.101 -0.2445 -0.1050 -0.2718
   14DOPE   O11 1691   4.883   4.607   6.860 -0.5311 -0.5763 -0.5663
   14DOPE   O12 1692   5.042   4.428   6.931  0.1894 -0.0338  0.1799
   14DOPE    C1 1693   4.791   4.506   6.820 -0.4922 -0.2206  0.1146
   14DOPE    HA 1694   4.686   4.533   6.843 -0.1134  0.0660  1.6133
   14DOPE    HB 1695   4.817   4.409   6.868 -0.5880 -0.0565  0.4972
   14DOPE    C2 1696   4.800   4.491   6.664  0.0869  0.4204 -0.8085
   14DOPE    HS 1697   4.902   4.455   6.638 -0.0662 -1.3890  0.8155
   14DOPE   O21 1698   4.781   4.615   6.603  0.6552 -0.8998  0.1389
   14DOPE   C21 1699   4.799   4.623   6.471 -0.6766 -0.5094 -0.4478
   14DOPE   O22 1700   4.886   4.550   6.417 -0.1199 -0.0214  0.1236
   14DOPE   C22 1701   4.708   4.714   6.406  0.2889 -0.7597 -0.3435
   14DOPE   H2R 1702   4.733   4.813   6.451 -0.9241  0.4446 -2.1712
   14DOPE   H2S 1703   4.601   4.700   6.431  0.2575 -0.0758 -0.0687
   14DOPE    C3 1704   4.691   4.381   6.625 -0.0471  0.0285 -0.4228
   14DOPE    HX 1705   4.591   4.407   6.665 -1.1744 -0.2726 -2.8444
   14DOPE    HY 1706   4.729   4.288   6.672  2.3936  1.2285  0.1293
   14DOPE   O31 1707   4.680   4.372   6.482 -0.3588 -0.5582  0.1898
   14DOPE   C31 1708   4.721   4.258   6.427  0.1102 -0.5105  0.4844
   14DOPE   O32 1709   4.769   4.163   6.481  0.6271  0.6348 -0.2613
   14DOPE   C32 1710   4.689   4.275   6.276  0.0049 -0.2421  0.4576
   14DOPE   H2X 1711   4.582   4.297   6.256 -0.1818 -1.4177  0.0749
   14DOPE   H2Y 1712   4.754   4.356   6.238 -0.3584 -0.2956 -0.3042
   14DOPE   C23 1713   4.733   4.720   6.256  0.1731 -0.3452  0.4184
   14DOPE   H3R 1714   4.736   4.619   6.209  3.1061 -0.7753  1.2952
   14DOPE   H3S 1715   4.835   4.759   6.238 -0.6474  2.3533  1.1474
   14DOPE   C24 1716   4.627   4.804   6.184  0.1734 -0.3864  0.6069
   14DOPE   H4R 1717   4.617   4.905   6.227 -1.8287  0.4327 -1.5741
   14DOPE   H4S 1718   4.523   4.765   6.193 -0.4357  0.7610 -1.0162
   14DOPE   C25 1719   4.655   4.811   6.031  0.0421  0.3232 -0.6260
   14DOPE   H5R 1720   4.659   4.703   6.004 -3.5395 -0.0056 -0.3367
   14DOPE   H5S 1721   4.752   4.865   6.030 -0.8883  2.3099  2.4290
   14DOPE   C26 1722   4.557   4.891   5.956 -0.5997  0.0241 -0.9920
   14DOPE   H6R 1723   4.600   4.922   5.858 -1.9662 -0.1449 -1.6657
   14DOPE   H6S 1724   4.539   4.982   6.017 -1.4305 -0.3874 -0.6077
   14DOPE   C27 1725   4.417   4.813   5.931 -0.1692  0.3270 -0.1308
   14DOPE   H7R 1726   4.352   4.830   6.020  0.2962  0.1626  0.2428
   14DOPE   H7S 1727   4.443   4.705   5.929 -1.4191  0.0027  0.2521
   14DOPE   C28 1728   4.361   4.840   5.789  0.3483 -0.4508 -0.2482
   14DOPE   H8R 1729   4.261   4.791   5.790 -0.1566  0.5543  0.5537
   14DOPE   H8S 1730   4.421   4.792   5.709 -0.3206 -0.9612 -0.4534
   14DOPE   C29 1731   4.329   4.988   5.777  0.6962  0.1361 -0.1877
   14DOPE   H9R 1732   4.304   5.041   5.870  1.6372 -0.3170  0.3311
   14DOPE  C210 1733   4.319   5.057   5.660  0.0840 -0.0308  0.4879
   14DOPE  H10R 1734   4.288   5.162   5.649  1.8383  0.4691  0.0373
   14DOPE  C211 1735   4.336   4.998   5.523 -0.0161  0.1271  0.1726
   14DOPE  H11R 1736   4.291   4.896   5.516 -0.2840  0.1764  1.0931
   14DOPE  H11S 1737   4.444   5.002   5.498  0.1304  1.3648  0.9299
   14DOPE  C212 1738   4.248   5.082   5.425  0.7973  0.5272 -0.5126
   14DOPE  H12R 1739   4.280   5.188   5.434  0.6992  0.4551  0.9191
   14DOPE  H12S 1740   4.140   5.079   5.450  1.3965  0.1404  2.4730
   14DOPE  C213 1741   4.261   5.037   5.280 -0.1888  0.5249  0.0907
   14DOPE  H13R 1742   4.236   4.929   5.274  0.2162  0.3058  1.8697
   14DOPE  H13S 1743   4.368   5.038   5.250  0.0928 -1.0557  0.9480
   14DOPE  C214 1744   4.168   5.116   5.192  0.1561 -0.1835  0.5931
   14DOPE  H14R 1745   4.186   5.225   5.207  1.1421  0.0295 -1.6900
   14DOPE  H14S 1746   4.068   5.099   5.236  1.0628 -2.2137  2.0716
   14DOPE  C215 1747   4.182   5.073   5.045  0.4463 -0.0487  0.0251
   14DOPE  H15R 1748   4.170   4.962   5.039  0.5219  0.0286 -1.9843
   14DOPE  H15S 1749   4.280   5.108   5.007 -0.2404  0.2910 -1.4702
   14DOPE  C216 1750   4.078   5.145   4.962  0.3068 -0.1500 -0.0395
   14DOPE  H16R 1751   4.088   5.253   4.989 -0.8473 -0.6955  3.0439
   14DOPE  H16S 1752   3.976   5.127   5.002  0.3639 -0.5639 -0.0720
   14DOPE  C217 1753   4.095   5.121   4.812 -0.5019  0.2949  0.2369
   14DOPE  H17R 1754   4.083   5.012   4.797 -0.3484  0.1249  1.2538
   14DOPE  H17S 1755   4.184   5.166   4.764 -2.1425 -0.8822 -4.4227
   14DOPE  C218 1756   3.987   5.197   4.734 -0.4279 -0.6422  0.0824
   14DOPE  H18R 1757   3.979   5.162   4.629  0.2450 -2.3908  0.5625
   14DOPE  H18S 1758   4.002   5.306   4.748 -1.0097 -0.6152  0.5201
   14DOPE  H18T 1759   3.897   5.173   4.795 -0.4960 -1.3874 -0.2950
   14DOPE   C33 1760   4.717   4.146   6.202 -0.0265 -0.0784 -0.7059
   14DOPE   H3X 1761   4.811   4.093   6.227 -1.1463 -2.9507 -2.1853
   14DOPE   H3Y 1762   4.730   4.169   6.094 -1.0231 -1.5601 -1.1687
   14DOPE   C34 1763   4.603   4.041   6.213  0.4703  1.0722 -0.1398
   14DOPE   H4X 1764   4.570   4.028   6.318  0.1625  0.0870 -0.3486
   14DOPE   H4Y 1765   4.513   4.084   6.164 -0.6115 -1.7640 -0.8322
   14DOPE   C35 1766   4.622   3.905   6.136 -0.1392  0.1558 -0.2080
   14DOPE   H5X 1767   4.563   3.822   6.179  0.2740  0.2278  0.5219
   14DOPE   H5Y 1768   4.730   3.879   6.140  0.6587  3.0557 -0.2980
   14DOPE   C36 1769   4.580   3.929   5.992 -0.5083  0.5547  0.3953
   14DOPE   H6X 1770   4.631   4.022   5.959  0.8176 -0.2127  0.1800
   14DOPE   H6Y 1771   4.471   3.948   5.978 -0.5788 -0.2815 -0.2693
   14DOPE   C37 1772   4.618   3.814   5.915 -0.3221 -0.3325  0.6950
   14DOPE   H7X 1773   4.728   3.801   5.913 -0.3497 -1.0610  2.3147
   14DOPE   H7Y 1774   4.578   3.721   5.961  0.4856 -0.7710  0.5232
   14DOPE   C38 1775   4.560   3.824   5.780  0.2204 -0.4164 -0.1364
   14DOPE   H8X 1776   4.617   3.907   5.733 -0.5403  0.4870  0.4745
   14DOPE   H8Y 1777   4.456   3.863   5.787  0.5478  0.4727 -0.1098
   14DOPE   C39 1778   4.576   3.705   5.693  0.8036 -0.0675 -0.3778
   14DOPE   H9X 1779   4.604   3.612   5.745  1.6657 -0.3176 -1.2653
   14DOPE  C310 1780   4.574   3.707   5.559 -0.1067 -0.9776 -0.6401
   14DOPE  H10X 1781   4.571   3.612   5.503 -1.2398 -0.3061 -1.7707
   14DOPE  C311 1782   4.555   3.826   5.468 -0.2894 -0.1144  0.4810
   14DOPE  H11X 1783   4.504   3.909   5.522 -1.5110  1.3964 -2.7713
   14DOPE  H11Y 1784   4.651   3.870   5.432 -0.2520 -0.9587 -0.4671
   14DOPE  C312 1785   4.471   3.796   5.346  0.3075 -0.1264  0.8785
   14DOPE  H12X 1786   4.381   3.746   5.387  0.9122 -1.3586  0.7586
   14DOPE  H12Y 1787   4.521   3.713   5.291  0.1054 -1.6247  2.8332
   14DOPE  C313 1788   4.463   3.918   5.251 -0.2489 -0.0871  0.0400
   14DOPE  H13X 1789   4.438   4.017   5.296 -2.2302 -0.0748 -0.9998
   14DOPE  H13Y 1790   4.566   3.932   5.213 -0.2329  0.3438  0.2233
   14DOPE  C314 1791   4.359   3.883   5.141 -0.1017 -0.3548  0.3339
   14DOPE  H14X 1792   4.270   3.851   5.199 -1.3277  1.3580 -0.5088
   14DOPE  H14Y 1793   4.395   3.792   5.088  2.9024 -0.5622  2.4837
   14DOPE  C315 1794   4.349   3.991   5.031 -0.3634 -0.2819  0.4492
   14DOPE  H15X 1795   4.295   3.946   4.945  0.0680 -1.4129  0.7435
   14DOPE  H15Y 1796   4.450   4.010   4.987  0.2526 -3.0541  0.4960
   14DOPE  C316 1797   4.285   4.127   5.063  0.7302 -0.4055 -0.7683
   14DOPE  H16X 1798   4.346   4.181   5.138  2.6178 -2.0352 -1.0394
   14DOPE  H16Y 1799   4.190   4.104   5.115  1.0411  2.3341  1.1909
   14DOPE  C317 1800   4.244   4.215   4.937  0.3887 -0.1780 -0.7479
   14DOPE  H17X 1801   4.338   4.226   4.877 -1.0418 -1.4100 -3.4188
   14DOPE  H17Y 1802   4.170   4.159   4.876  0.6716 -1.5542  0.1408
   14DOPE  C318 1803   4.184   4.351   4.983 -0.5093  0.6034 -0.0012
   14DOPE  H18X 1804   4.138   4.416   4.905 -0.5714  2.6067  1.6284
   14DOPE  H18Y 1805   4.105   4.313   5.051  2.5872 -1.0405  2.9526
   14DOPE  H18Z 1806   4.250   4.414   5.046  0.0302  1.7063 -1.5894
   15DOPE     N 1807   1.565   1.077   7.234  0.1165 -0.8939 -0.4253
   15DOPE   HN1 1808   1.606   1.004   7.173 -0.5064 -1.2472 -0.4226
   15DOPE   HN2 1809   1.641   1.102   7.301 -0.2996 -1.7660  0.3946
   15DOPE   HN3 1810   1.483   1.036   7.283 -0.3554 -0.4776 -0.8625
   15DOPE   C12 1811   1.534   1.196   7.139  0.1365 -0.5828  0.1529
   15DOPE  H12A 1812   1.464   1.258   7.198 -1.3015 -2.2131  0.2634
   15DOPE  H12B 1813   1.476   1.150   7.056 -1.2287  1.0726  0.1373
   15DOPE   C11 1814   1.655   1.271   7.097 -0.4517 -0.3190 -0.6487
   15DOPE  H11A 1815   1.727   1.295   7.178 -0.1723  1.3949 -1.3706
   15DOPE  H11B 1816   1.632   1.377   7.074  1.8456  0.2874 -0.3499
   15DOPE     P 1817   1.712   1.280   6.842 -0.0382 -0.1138 -0.3399
   15DOPE   O13 1818   1.586   1.358   6.838  0.1328  0.1493  0.4348
   15DOPE   O14 1819   1.735   1.184   6.730 -0.1759 -0.6585  0.3522
   15DOPE   O11 1820   1.843   1.380   6.848  0.3160  0.0629  0.3290
   15DOPE   O12 1821   1.719   1.209   6.982  1.0420 -0.3542  0.0625
   15DOPE    C1 1822   1.827   1.519   6.880  0.4342  0.4907  0.1061
   15DOPE    HA 1823   1.922   1.561   6.920  0.5925  0.5635 -0.3456
   15DOPE    HB 1824   1.753   1.531   6.962  1.4796 -2.6108  1.6875
   15DOPE    C2 1825   1.790   1.607   6.750 -0.3176  0.0954  0.1723
   15DOPE    HS 1826   1.697   1.564   6.709  0.6024 -0.9059 -0.9574
   15DOPE   O21 1827   1.903   1.597   6.657  0.3006 -0.0124  0.1118
   15DOPE   C21 1828   1.872   1.588   6.523 -0.2675 -0.2892  0.3379
   15DOPE   O22 1829   1.757   1.588   6.482  0.3515  0.4393  0.5518
   15DOPE   C22 1830   1.995   1.588   6.439 -0.0724  0.1596  0.6511
   15DOPE   H2R 1831   2.051   1.494   6.458 -1.0635 -0.5217  0.2586
   15DOPE   H2S 1832   2.045   1.684   6.464 -1.8239  1.2966 -0.0329
   15DOPE    C3 1833   1.758   1.755   6.773 -0.3643 -0.7464  0.7660
   15DOPE    HX 1834   1.854   1.804   6.799 -0.8123 -0.8171  2.6947
   15DOPE    HY 1835   1.684   1.783   6.852 -0.2051 -0.9129  0.9753
   15DOPE   O31 1836   1.721   1.813   6.645  0.1672 -0.2495  0.0349
   15DOPE   C31 1837   1.595   1.792   6.612  0.2382 -0.1076 -0.4027
   15DOPE   O32 1838   1.507   1.738   6.685  0.3059  0.2985  0.8827
   15DOPE   C32 1839   1.578   1.864   6.476  0.2086  0.1867  1.2255
   15DOPE   H2X 1840   1.561   1.971   6.500 -0.3672  0.1678  0.9145
   15DOPE   H2Y 1841   1.671   1.848   6.417 -0.5335 -0.1246  0.1021
   15DOPE   C23 1842   1.970   1.581   6.282 -0.4181 -0.5038 -0.9843
   15DOPE   H3R 1843   2.064   1.605   6.228  0.6398 -2.9323 -0.3813
   15DOPE   H3S 1844   1.890   1.656   6.262 -0.1685  0.6532  1.7808
   15DOPE   C24 1845   1.937   1.440   6.236 -0.0746  0.8923  0.1590
   15DOPE   H4R 1846   1.849   1.409   6.295  0.8055 -1.5245  0.2792
   15DOPE   H4S 1847   2.018   1.370   6.265 -1.4232  0.0490  2.0469
   15DOPE   C25 1848   1.888   1.421   6.094  0.6414  0.2512  0.0521
   15DOPE   H5R 1849   1.797   1.484   6.088  0.8311  0.5954  0.6997
   15DOPE   H5S 1850   1.854   1.318   6.069 -0.6743  1.1417 -2.1739
   15DOPE   C26 1851   1.984   1.467   5.980  1.0868 -0.6572 -0.2010
   15DOPE   H6R 1852   2.077   1.405   5.984  1.5027 -0.1322 -1.2265
   15DOPE   H6S 1853   2.012   1.572   6.002 -0.7442 -0.1415 -0.2097
   15DOPE   C27 1854   1.925   1.460   5.837  0.2050 -0.1762  0.6101
   15DOPE   H7R 1855   1.978   1.532   5.770  1.0596 -2.8394 -1.7770
   15DOPE   H7S 1856   1.824   1.504   5.855 -0.0568  0.5504 -2.1171
   15DOPE   C28 1857   1.921   1.321   5.771  0.2467  0.0748 -0.5698
   15DOPE   H8R 1858   1.913   1.253   5.859  0.3428  1.2120  0.3419
   15DOPE   H8S 1859   2.025   1.297   5.742 -0.3970 -0.7912 -2.2918
   15DOPE   C29 1860   1.808   1.298   5.675 -0.4126 -0.6244  0.3919
   15DOPE   H9R 1861   1.714   1.261   5.718 -0.5585 -0.2153  0.4388
   15DOPE  C210 1862   1.800   1.333   5.545  0.2964 -0.0247  1.0782
   15DOPE  H10R 1863   1.709   1.305   5.490  0.8727  1.0858 -0.5071
   15DOPE  C211 1864   1.902   1.395   5.456  0.0740  0.2750 -0.3607
   15DOPE  H11R 1865   1.940   1.309   5.398 -0.2283  0.1854 -0.4257
   15DOPE  H11S 1866   1.982   1.445   5.515 -1.4318  1.1771  1.0023
   15DOPE  C212 1867   1.850   1.511   5.371  0.5512  0.2716  0.0289
   15DOPE  H12R 1868   1.795   1.589   5.429  2.6110  0.9408  1.1646
   15DOPE  H12S 1869   1.777   1.469   5.298 -0.2362  1.6902 -0.0486
   15DOPE  C213 1870   1.972   1.572   5.299 -0.3885 -0.1617  0.1551
   15DOPE  H13R 1871   2.050   1.493   5.292 -0.3731 -0.3508  2.0426
   15DOPE  H13S 1872   2.019   1.646   5.368  0.2349  0.2468 -0.6771
   15DOPE  C214 1873   1.955   1.622   5.156  0.2267  0.8262 -0.7817
   15DOPE  H14R 1874   1.867   1.690   5.161 -0.6466 -0.3075 -0.0470
   15DOPE  H14S 1875   1.927   1.535   5.092 -1.8168  0.3561  0.6609
   15DOPE  C215 1876   2.074   1.699   5.111  0.1797 -0.5230 -0.7523
   15DOPE  H15R 1877   2.157   1.627   5.100  0.5563 -0.2532  0.2002
   15DOPE  H15S 1878   2.093   1.775   5.190 -1.3557 -0.2913 -0.5663
   15DOPE  C216 1879   2.050   1.772   4.982  0.3040 -0.8651 -0.7085
   15DOPE  H16R 1880   1.970   1.847   4.999  0.7801 -0.1279 -1.5888
   15DOPE  H16S 1881   2.011   1.702   4.904  1.0454 -1.6536 -0.3807
   15DOPE  C217 1882   2.177   1.848   4.922 -0.8300 -0.4316  0.2475
   15DOPE  H17R 1883   2.250   1.772   4.889 -0.9281 -0.9764  1.2275
   15DOPE  H17S 1884   2.221   1.904   5.008  1.6776  0.0737 -1.2879
   15DOPE  C218 1885   2.151   1.939   4.804  0.4158  0.1236  0.2407
   15DOPE  H18R 1886   2.066   2.006   4.830  0.5051  0.5751 -0.5783
   15DOPE  H18S 1887   2.124   1.887   4.710 -1.7831  1.5205  0.0267
   15DOPE  H18T 1888   2.243   1.996   4.781  0.4950 -0.9506 -2.4271
   15DOPE   C33 1889   1.463   1.811   6.386 -0.2907 -0.9780  0.6828
   15DOPE   H3X 1890   1.367   1.858   6.418  0.9825  1.3433  1.3313
   15DOPE   H3Y 1891   1.458   1.700   6.390  0.8997 -1.0631  0.0096
   15DOPE   C34 1892   1.476   1.849   6.231  0.9698 -0.2970  0.2824
   15DOPE   H4X 1893   1.378   1.819   6.188  0.2427 -0.3874  1.9316
   15DOPE   H4Y 1894   1.504   1.955   6.213 -0.2232 -0.0366 -0.1435
   15DOPE   C35 1895   1.588   1.769   6.162  0.3362 -0.0263 -0.2995
   15DOPE   H5X 1896   1.567   1.661   6.179  0.8683 -0.2097 -0.7407
   15DOPE   H5Y 1897   1.676   1.814   6.213 -0.7634 -0.5669  2.2227
   15DOPE   C36 1898   1.599   1.804   6.015 -0.2886 -0.2059  0.0778
   15DOPE   H6X 1899   1.694   1.760   5.979 -0.2009  0.3483 -0.3815
   15DOPE   H6Y 1900   1.610   1.910   5.983  1.3240  0.1169  1.5222
   15DOPE   C37 1901   1.498   1.735   5.917 -0.5458 -0.1431 -0.0539
   15DOPE   H7X 1902   1.483   1.630   5.949 -2.0190  0.3611  1.0301
   15DOPE   H7Y 1903   1.405   1.795   5.920  2.2647  4.7952  0.1065
   15DOPE   C38 1904   1.546   1.733   5.769 -0.6306  0.0435 -0.2261
   15DOPE   H8X 1905   1.486   1.666   5.704 -1.8783  0.4852  0.4147
   15DOPE   H8Y 1906   1.647   1.687   5.768 -1.0905 -0.9892 -0.4860
   15DOPE   C39 1907   1.555   1.872   5.707  0.0182  0.3120 -0.6018
   15DOPE   H9X 1908   1.460   1.918   5.677  0.4821  2.0447  0.4216
   15DOPE  C310 1909   1.662   1.952   5.697 -0.3512 -0.1727 -0.3248
   15DOPE  H10X 1910   1.645   2.056   5.664 -0.8749  0.0747  0.6727
   15DOPE  C311 1911   1.797   1.916   5.737  0.0913  0.2649 -0.0050
   15DOPE  H11X 1912   1.815   1.949   5.842 -0.5033 -0.3200  0.2876
   15DOPE  H11Y 1913   1.819   1.807   5.738  0.1829  0.2833  0.3910
   15DOPE  C312 1914   1.901   1.988   5.650  0.3981 -0.4926  0.3172
   15DOPE  H12X 1915   2.004   1.951   5.673  0.6254 -0.1169 -0.0757
   15DOPE  H12Y 1916   1.903   2.099   5.658 -0.1858 -0.3866 -0.7922
   15DOPE  C313 1917   1.872   1.972   5.498  0.2154 -0.2925  0.5224
   15DOPE  H13X 1918   1.865   1.862   5.480 -0.4423  0.0353 -1.4080
   15DOPE  H13Y 1919   1.777   2.021   5.471  0.7945  0.1980 -0.7171
   15DOPE  C314 1920   1.978   2.042   5.407 -0.1681  0.5685  0.4069
   15DOPE  H14X 1921   2.083   2.016   5.433  0.0127 -0.0414 -0.8213
   15DOPE  H14Y 1922   1.958   2.147   5.437  0.5838  1.0841 -0.7851
   15DOPE  C315 1923   1.929   2.017   5.262  0.1407 -0.5632 -0.0921
   15DOPE  H15X 1924   1.875   1.920   5.249  2.9638 -2.2429  0.0109
   15DOPE  H15Y 1925   2.022   1.992   5.207  0.4466 -0.3359  0.3238
   15DOPE  C316 1926   1.862   2.145   5.211  0.5816 -0.8639  0.4084
   15DOPE  H16X 1927   1.914   2.239   5.241 -2.1521  0.8472  0.1686
   15DOPE  H16Y 1928   1.763   2.139   5.262 -0.1120 -1.5233 -0.9680
   15DOPE  C317 1929   1.836   2.125   5.063 -0.7206  0.2651 -0.1178
   15DOPE  H17X 1930   1.927   2.100   5.005 -1.2120 -0.8547 -0.4164
   15DOPE  H17Y 1931   1.778   2.032   5.048  0.6106 -0.8764  1.4448
   15DOPE  C318 1932   1.765   2.238   4.992 -0.1361  0.2381 -0.7396
   15DOPE  H18X 1933   1.818   2.333   5.012  1.4073 -0.8922  0.8403
   15DOPE  H18Y 1934   1.744   2.214   4.886  2.1009  2.4968 -1.7924
   15DOPE  H18Z 1935   1.663   2.238   5.037 -1.6336 -0.2860 -3.8526
   16DOPE     N 1936   0.028   2.774   6.569  0.9392 -0.0847  0.4599
   16DOPE   HN1 1937   0.047   2.677   6.533 -1.2692 -0.8111  1.1444
   16DOPE   HN2 1938   0.076   2.853   6.522 -1.0347 -0.1958 -1.9399
   16DOPE   HN3 1939   0.058   2.771   6.668  0.5148  0.1337  0.5931
   16DOPE   C12 1940  -0.122   2.786   6.567  0.0221 -0.1826 -0.5734
   16DOPE  H12A 1941  -0.151   2.714   6.646  2.0370 -0.7378 -0.2727
   16DOPE  H12B 1942  -0.172   2.761   6.471 -0.2939  2.8274 -1.2800
   16DOPE   C11 1943  -0.168   2.931   6.601  0.3426 -0.2965  0.2420
   16DOPE  H11A 1944  -0.125   2.966   6.697 -0.0202 -1.6657  0.9405
   16DOPE  H11B 1945  -0.279   2.932   6.611  0.2718  1.4150 -0.4291
   16DOPE     P 1946  -0.165   3.179   6.523  0.1456 -0.9063 -0.1030
   16DOPE   O13 1947  -0.118   3.225   6.660 -0.4531 -0.0646  0.1642
   16DOPE   O14 1948  -0.308   3.207   6.496 -0.4085 -0.3665  0.1134
   16DOPE   O11 1949  -0.074   3.251   6.412 -0.1269 -0.2692 -1.0941
   16DOPE   O12 1950  -0.129   3.028   6.495  0.2067 -0.1591 -0.2980
   16DOPE    C1 1951   0.063   3.224   6.403  0.2095 -0.1579 -0.2191
   16DOPE    HA 1952   0.109   3.186   6.497  2.3773  2.1077 -0.2750
   16DOPE    HB 1953   0.120   3.315   6.377 -1.9418  2.1439  2.3986
   16DOPE    C2 1954   0.100   3.117   6.298 -0.8791 -0.0170 -0.3343
   16DOPE    HS 1955   0.130   3.021   6.346 -0.2595 -0.2879 -1.2307
   16DOPE   O21 1956   0.204   3.172   6.218 -0.7825  0.0177  0.7545
   16DOPE   C21 1957   0.319   3.168   6.274 -0.4577 -0.0210  0.2036
   16DOPE   O22 1958   0.348   3.091   6.367 -0.1987  0.1436  0.0668
   16DOPE   C22 1959   0.415   3.263   6.210 -0.7356  0.2793 -0.9339
   16DOPE   H2R 1960   0.521   3.237   6.225 -0.6894  1.8091  2.3049
   16DOPE   H2S 1961   0.398   3.359   6.264  1.4052  0.5062 -0.6027
   16DOPE    C3 1962  -0.018   3.092   6.206  0.1715 -0.3065  0.5629
   16DOPE    HX 1963  -0.037   3.185   6.148  1.9141  0.0742  0.5550
   16DOPE    HY 1964  -0.109   3.053   6.257 -1.1089  0.4764 -1.0164
   16DOPE   O31 1965   0.008   2.997   6.103 -0.0448  0.0346 -0.0909
   16DOPE   C31 1966   0.034   2.881   6.157 -0.8361 -0.0725 -1.2855
   16DOPE   O32 1967   0.013   2.848   6.271  0.0090  0.0110 -0.2227
   16DOPE   C32 1968   0.085   2.786   6.045 -0.3720 -0.4424  0.0170
   16DOPE   H2X 1969   0.026   2.815   5.956  1.0536  1.3527 -0.4035
   16DOPE   H2Y 1970   0.187   2.818   6.016 -1.2970  4.7881  1.5113
   16DOPE   C23 1971   0.382   3.287   6.063  0.2687  0.4478  0.1610
   16DOPE   H3R 1972   0.276   3.316   6.045  0.0652 -1.5518 -2.3240
   16DOPE   H3S 1973   0.400   3.193   6.007  3.5369  1.2002 -0.2552
   16DOPE   C24 1974   0.460   3.401   6.004  0.2661 -0.3445 -0.1950
   16DOPE   H4R 1975   0.568   3.376   5.998  0.5010  0.2910  0.9877
   16DOPE   H4S 1976   0.444   3.490   6.068 -1.0654 -2.8560  3.2658
   16DOPE   C25 1977   0.433   3.427   5.853  1.1645  0.2991 -0.7693
   16DOPE   H5R 1978   0.464   3.531   5.831 -0.3703  0.7498 -0.8483
   16DOPE   H5S 1979   0.327   3.408   5.827  0.8809  1.2993 -0.3790
   16DOPE   C26 1980   0.520   3.340   5.766 -0.0548 -0.1583  0.2726
   16DOPE   H6R 1981   0.505   3.231   5.775 -0.0886 -0.2469 -0.7566
   16DOPE   H6S 1982   0.625   3.363   5.793  0.2371 -0.0383 -0.8933
   16DOPE   C27 1983   0.501   3.365   5.614  0.0100 -0.1793  0.2206
   16DOPE   H7R 1984   0.525   3.470   5.588  0.2551 -0.5534 -1.1202
   16DOPE   H7S 1985   0.392   3.352   5.597 -0.1229  0.4562  0.5807
   16DOPE   C28 1986   0.561   3.263   5.524 -0.5589 -0.2746  0.2214
   16DOPE   H8R 1987   0.574   3.303   5.421  0.3748  0.4453  0.6031
   16DOPE   H8S 1988   0.491   3.177   5.515 -1.8287  0.6412  1.1311
   16DOPE   C29 1989   0.702   3.222   5.576 -0.5646  0.0052 -0.2150
   16DOPE   H9R 1990   0.764   3.312   5.590  2.4797 -1.6281 -1.9715
   16DOPE  C210 1991   0.759   3.101   5.615 -0.0798 -0.3367  0.1054
   16DOPE  H10R 1992   0.865   3.112   5.644 -0.0705  0.1169 -0.0924
   16DOPE  C211 1993   0.712   2.960   5.609 -0.1225 -0.1440  0.1544
   16DOPE  H11R 1994   0.788   2.888   5.573 -0.1379 -1.1928  2.1121
   16DOPE  H11S 1995   0.622   2.951   5.545 -1.1109  3.2177  0.8606
   16DOPE  C212 1996   0.665   2.919   5.752  0.8751 -0.0219  0.0786
   16DOPE  H12R 1997   0.572   2.978   5.768  1.4732  1.6306 -2.1208
   16DOPE  H12S 1998   0.732   2.943   5.837  0.1489  0.3916  0.5484
   16DOPE  C213 1999   0.635   2.766   5.769 -0.0823 -0.1166  0.0669
   16DOPE  H13R 2000   0.727   2.705   5.780 -0.0023 -0.1529 -0.7425
   16DOPE  H13S 2001   0.605   2.736   5.666  1.2061 -0.0469 -0.3485
   16DOPE  C214 2002   0.531   2.726   5.873 -0.1034  0.4913 -0.8886
   16DOPE  H14R 2003   0.522   2.616   5.883  0.4214  0.5768  0.8924
   16DOPE  H14S 2004   0.429   2.753   5.836  0.2626 -0.6620 -2.8832
   16DOPE  C215 2005   0.554   2.783   6.016 -0.6646 -0.3334  0.8758
   16DOPE  H15R 2006   0.540   2.893   6.015  0.8347 -0.1024  1.8496
   16DOPE  H15S 2007   0.660   2.756   6.038  0.2791  1.5468 -1.0659
   16DOPE  C216 2008   0.460   2.727   6.118  0.3231 -0.1944  0.7380
   16DOPE  H16R 2009   0.464   2.619   6.142 -0.3047 -0.3484  0.1776
   16DOPE  H16S 2010   0.355   2.740   6.082  0.1133 -1.8892  0.6714
   16DOPE  C217 2011   0.476   2.795   6.257  0.6080 -0.0973  0.1438
   16DOPE  H17R 2012   0.477   2.905   6.249 -3.5603  0.1431  0.8262
   16DOPE  H17S 2013   0.574   2.772   6.303  0.8672  0.2533 -0.2227
   16DOPE  C218 2014   0.362   2.744   6.350  0.5954  0.0331 -0.0363
   16DOPE  H18R 2015   0.359   2.634   6.356  0.8431  0.0479  0.3660
   16DOPE  H18S 2016   0.264   2.773   6.305  1.4635 -0.2486 -2.2197
   16DOPE  H18T 2017   0.380   2.784   6.452 -1.2633  0.1777  0.2775
   16DOPE   C33 2018   0.064   2.634   6.083  0.3312  0.0722  1.2052
   16DOPE   H3X 2019  -0.043   2.607   6.092  0.3209 -0.0137  0.8520
   16DOPE   H3Y 2020   0.112   2.613   6.181  3.0377  1.4561  0.2820
   16DOPE   C34 2021   0.139   2.531   5.986 -0.2511 -0.3134  0.5777
   16DOPE   H4X 2022   0.244   2.565   5.993 -0.3668  1.7275 -3.9805
   16DOPE   H4Y 2023   0.140   2.424   6.017  2.0591 -0.3981  0.3508
   16DOPE   C35 2024   0.105   2.529   5.837 -0.5760 -0.2740  0.1376
   16DOPE   H5X 2025   0.113   2.632   5.796  0.5900 -0.1752  0.5979
   16DOPE   H5Y 2026   0.000   2.496   5.819 -0.4071 -1.1349  0.7275
   16DOPE   C36 2027   0.206   2.458   5.745 -0.0907  0.3085 -0.2668
   16DOPE   H6X 2028   0.209   2.357   5.793 -3.0763  0.5329  0.6098
   16DOPE   H6Y 2029   0.309   2.495   5.763  1.0008 -3.2250  1.8433
   16DOPE   C37 2030   0.174   2.471   5.598 -0.5626 -0.0131  0.8508
   16DOPE   H7X 2031   0.094   2.400   5.568 -2.0609  1.5974  0.8706
   16DOPE   H7Y 2032   0.130   2.571   5.581 -1.9178 -0.6868  0.1798
   16DOPE   C38 2033   0.296   2.441   5.513  0.1458  0.3470 -1.3858
   16DOPE   H8X 2034   0.259   2.428   5.409  0.5574 -0.5326 -1.4347
   16DOPE   H8Y 2035   0.352   2.349   5.541 -2.7613 -0.6263  2.0044
   16DOPE   C39 2036   0.402   2.550   5.512  0.7708 -0.4233 -0.1323
   16DOPE   H9X 2037   0.471   2.563   5.597 -0.0688  1.9625  0.2672
   16DOPE  C310 2038   0.432   2.643   5.420  1.0269  1.0339  0.7901
   16DOPE  H10X 2039   0.487   2.733   5.450  0.5417  1.2251  1.1195
   16DOPE  C311 2040   0.353   2.656   5.291 -0.2951 -0.0504  0.1580
   16DOPE  H11X 2041   0.412   2.698   5.207  1.7015 -1.9991  0.4998
   16DOPE  H11Y 2042   0.320   2.554   5.261  0.5551  0.1012 -1.3645
   16DOPE  C312 2043   0.231   2.741   5.311 -0.1188 -0.4055 -0.4179
   16DOPE  H12X 2044   0.249   2.830   5.375 -1.1862  0.8956 -1.8523
   16DOPE  H12Y 2045   0.161   2.677   5.369 -0.5754 -0.6655 -1.2454
   16DOPE  C313 2046   0.163   2.779   5.176 -0.6555  0.0504  0.8056
   16DOPE  H13X 2047   0.149   2.699   5.100  0.3628  1.5853 -1.0840
   16DOPE  H13Y 2048   0.059   2.808   5.204 -0.7713 -0.2184  0.6553
   16DOPE  C314 2049   0.232   2.897   5.099  0.0591  0.7082 -0.0985
   16DOPE  H14X 2050   0.332   2.857   5.071  0.0137  0.2989  0.3071
   16DOPE  H14Y 2051   0.241   2.984   5.168 -2.0051  1.0573 -0.1905
   16DOPE  C315 2052   0.144   2.938   4.977  0.1315 -0.2517 -0.0079
   16DOPE  H15X 2053   0.050   2.966   5.030  0.1244  0.0088 -0.1551
   16DOPE  H15Y 2054   0.135   2.861   4.898  1.3805 -0.0352 -0.3762
   16DOPE  C316 2055   0.192   3.067   4.912  1.2445 -0.4907 -0.4310
   16DOPE  H16X 2056   0.247   3.124   4.991  0.5374 -0.3561 -0.0253
   16DOPE  H16Y 2057   0.102   3.121   4.878 -1.0372 -3.4721  0.4416
   16DOPE  C317 2058   0.284   3.058   4.789  0.1134 -0.4078  0.0071
   16DOPE  H17X 2059   0.359   2.979   4.809  1.2134 -0.0001 -2.1822
   16DOPE  H17Y 2060   0.216   3.024   4.709 -0.8481  1.1529  0.1142
   16DOPE  C318 2061   0.351   3.190   4.764  0.2248  0.0758  0.4596
   16DOPE  H18X 2062   0.402   3.235   4.852  0.5159  0.1494  0.2545
   16DOPE  H18Y 2063   0.430   3.175   4.688 -0.7159 -0.2997 -0.4766
   16DOPE  H18Z 2064   0.289   3.272   4.720 -0.4901  0.5843  2.3153
   17DOPE     N 2065   4.243   7.163   6.818 -0.7631 -0.3677 -0.2571
   17DOPE   HN1 2066   4.277   7.064   6.819  4.1648  1.0457 -1.6212
   17DOPE   HN2 2067   4.162   7.174   6.754 -0.0184 -0.5066 -1.2440
   17DOPE   HN3 2068   4.325   7.218   6.786  0.1931 -1.1603  0.7301
   17DOPE   C12 2069   4.190   7.194   6.952  0.3538 -0.5973 -0.4759
   17DOPE  H12A 2070   4.104   7.264   6.950 -0.6353 -1.7981 -1.0140
   17DOPE  H12B 2071   4.274   7.242   7.006 -0.0938  0.5915 -0.7985
   17DOPE   C11 2072   4.147   7.069   7.029 -0.1306 -0.2930  0.1714
   17DOPE  H11A 2073   4.108   7.099   7.128  0.3322  2.0519 -0.3009
   17DOPE  H11B 2074   4.234   7.001   7.036  0.0106  0.0625  2.4324
   17DOPE     P 2075   3.889   7.025   6.993 -0.2088  0.4877  0.2348
   17DOPE   O13 2076   3.888   7.147   7.070 -0.0514  0.7244  0.5354
   17DOPE   O14 2077   3.831   6.910   7.058 -0.0918  0.2290 -0.6057
   17DOPE   O11 2078   3.817   7.039   6.854 -0.1916 -0.4148 -0.0521
   17DOPE   O12 2079   4.041   6.993   6.963 -0.2025 -0.7216  0.0559
   17DOPE    C1 2080   3.800   6.930   6.765 -0.8594 -0.0809 -0.0476
   17DOPE    HA 2081   3.693   6.929   6.733 -0.8009  0.3099 -0.2588
   17DOPE    HB 2082   3.827   6.834   6.813 -1.2138  0.0139  0.3469
   17DOPE    C2 2083   3.882   6.945   6.638  0.3474  0.3655 -0.6192
   17DOPE    HS 2084   3.991   6.948   6.663  0.3232  1.2839 -0.5884
   17DOPE   O21 2085   3.844   7.059   6.563  0.3528  0.1655  0.1271
   17DOPE   C21 2086   3.924   7.164   6.569 -0.1030  0.1924  0.8979
   17DOPE   O22 2087   4.027   7.175   6.634  0.0591 -0.1847 -0.2167
   17DOPE   C22 2088   3.879   7.272   6.474  0.2002 -0.6467  0.6965
   17DOPE   H2R 2089   3.849   7.360   6.535 -1.6448  0.5337 -1.7270
   17DOPE   H2S 2090   3.779   7.238   6.438  1.8299 -4.5071 -0.6681
   17DOPE    C3 2091   3.854   6.818   6.558 -0.3106 -0.2486  0.4555
   17DOPE    HX 2092   3.744   6.820   6.538 -0.2951  1.1072  0.4109
   17DOPE    HY 2093   3.867   6.728   6.621  0.0638 -0.2227  0.4189
   17DOPE   O31 2094   3.937   6.805   6.444 -0.1946 -0.0159 -0.2323
   17DOPE   C31 2095   3.879   6.756   6.330 -0.6210  0.3667  0.4098
   17DOPE   O32 2096   3.764   6.720   6.311 -0.1936 -0.5235 -0.6935
   17DOPE   C32 2097   3.998   6.722   6.235  0.1884  0.9738 -0.3953
   17DOPE   H2X 2098   4.072   6.803   6.246 -0.2064  1.1322  1.4656
   17DOPE   H2Y 2099   4.054   6.630   6.264  1.3837  1.8288  0.0676
   17DOPE   C23 2100   3.967   7.286   6.343  0.2828 -0.3486  0.1556
   17DOPE   H3R 2101   4.070   7.318   6.370 -0.5179  2.8676 -0.2446
   17DOPE   H3S 2102   3.937   7.381   6.295  1.1888  0.3661  0.9560
   17DOPE   C24 2103   3.985   7.169   6.239  0.3933 -0.4382  0.2701
   17DOPE   H4R 2104   3.882   7.150   6.203 -0.7710 -0.0432  3.0692
   17DOPE   H4S 2105   4.016   7.078   6.295 -1.9398 -0.5559  1.5200
   17DOPE   C25 2106   4.073   7.202   6.121  0.5367 -0.4956  0.0428
   17DOPE   H5R 2107   4.140   7.290   6.135  1.5330 -1.0038 -1.2996
   17DOPE   H5S 2108   4.006   7.230   6.036 -0.7550 -1.0699  0.8424
   17DOPE   C26 2109   4.175   7.088   6.083 -0.2360 -0.8326 -0.0794
   17DOPE   H6R 2110   4.110   6.999   6.068 -1.8565  0.1348  0.8511
   17DOPE   H6S 2111   4.250   7.071   6.162  1.7878  0.3269 -1.6471
   17DOPE   C27 2112   4.255   7.110   5.957  0.0871 -0.6136  0.2359
   17DOPE   H7R 2113   4.308   7.206   5.975 -4.0960  2.2445 -0.9649
   17DOPE   H7S 2114   4.189   7.121   5.868 -0.0035 -0.8995  0.2668
   17DOPE   C28 2115   4.354   6.998   5.910 -0.2366  0.1487  0.0479
   17DOPE   H8R 2116   4.307   6.916   5.851  2.7633 -2.5051  1.0130
   17DOPE   H8S 2117   4.395   6.942   5.997  0.6087 -0.5504 -0.7746
   17DOPE   C29 2118   4.470   7.040   5.829 -0.5419 -0.0612  0.2568
   17DOPE   H9R 2119   4.560   7.066   5.888  0.4503  0.0132 -1.2487
   17DOPE  C210 2120   4.466   7.064   5.698 -0.4862 -0.7129  0.2432
   17DOPE  H10R 2121   4.557   7.096   5.644 -1.3564  1.7204  0.0816
   17DOPE  C211 2122   4.346   7.047   5.612  0.6383  0.3428 -0.1161
   17DOPE  H11R 2123   4.285   7.138   5.596 -0.7259 -0.8558 -2.2728
   17DOPE  H11S 2124   4.263   6.981   5.647 -0.4915  1.2309 -1.0181
   17DOPE  C212 2125   4.405   6.985   5.486 -0.2155  0.8634  0.1195
   17DOPE  H12R 2126   4.319   6.932   5.438  0.4360  1.3381 -1.6757
   17DOPE  H12S 2127   4.479   6.907   5.513  0.0996  1.7459  1.9641
   17DOPE  C213 2128   4.473   7.077   5.384 -0.8338  0.5182  0.5784
   17DOPE  H13R 2129   4.504   7.019   5.294  0.0630  1.5228  0.2330
   17DOPE  H13S 2130   4.557   7.126   5.437  0.7507 -0.5011 -0.8962
   17DOPE  C214 2131   4.394   7.203   5.329  0.8353  0.0349 -0.2062
   17DOPE  H14R 2132   4.358   7.263   5.416  0.5409  1.3037 -1.1819
   17DOPE  H14S 2133   4.310   7.159   5.270  0.0260  0.5183  0.5447
   17DOPE  C215 2134   4.467   7.300   5.237 -0.5483  0.2801  0.3409
   17DOPE  H15R 2135   4.569   7.322   5.276 -0.7199 -0.9218  1.4996
   17DOPE  H15S 2136   4.417   7.398   5.219  1.0620  0.9524 -0.8264
   17DOPE  C216 2137   4.475   7.234   5.097  0.0126 -0.6742  0.2074
   17DOPE  H16R 2138   4.377   7.189   5.072  1.0869 -3.3248  0.4377
   17DOPE  H16S 2139   4.541   7.146   5.087  2.0850  0.9381 -1.2714
   17DOPE  C217 2140   4.521   7.330   4.988 -0.2137 -0.0050  0.4345
   17DOPE  H17R 2141   4.628   7.355   5.004  0.0046 -1.1093  0.8364
   17DOPE  H17S 2142   4.467   7.427   4.989 -0.8195 -0.3326 -0.1730
   17DOPE  C218 2143   4.508   7.265   4.844 -0.4612  0.2508 -0.0162
   17DOPE  H18R 2144   4.407   7.224   4.823 -0.4305  0.3133 -0.2956
   17DOPE  H18S 2145   4.591   7.193   4.829 -0.3265  0.3870  0.0733
   17DOPE  H18T 2146   4.524   7.353   4.778 -1.5950  0.5720  0.1055
   17DOPE   C33 2147   3.956   6.701   6.086 -0.3859 -0.1214 -0.2425
   17DOPE   H3X 2148   3.898   6.782   6.037 -0.5793  0.3559  0.7527
   17DOPE   H3Y 2149   3.887   6.614   6.081  0.0639 -0.6453  1.7993
   17DOPE   C34 2150   4.073   6.674   5.994 -0.4289  0.1830 -0.1409
   17DOPE   H4X 2151   4.147   6.757   5.988  0.1533 -0.3595 -0.6447
   17DOPE   H4Y 2152   4.126   6.586   6.036  0.8972  0.7252 -0.6386
   17DOPE   C35 2153   4.022   6.645   5.846  0.0081  0.9679  0.3236
   17DOPE   H5X 2154   3.975   6.738   5.806  2.4971  1.7937 -0.8814
   17DOPE   H5Y 2155   3.961   6.554   5.864  1.4287  0.0933  0.8630
   17DOPE   C36 2156   4.135   6.612   5.752 -0.4928  0.1555  0.5877
   17DOPE   H6X 2157   4.214   6.538   5.779  0.9481  1.1237 -0.7969
   17DOPE   H6Y 2158   4.191   6.706   5.731 -0.4759 -0.1979 -1.0676
   17DOPE   C37 2159   4.064   6.577   5.616  0.3199 -0.1217 -0.4428
   17DOPE   H7X 2160   3.983   6.504   5.636 -1.9321  2.5439  0.7799
   17DOPE   H7Y 2161   4.023   6.674   5.581  1.1787 -0.1787 -1.6900
   17DOPE   C38 2162   4.154   6.532   5.504 -0.0278  1.0540  0.6791
   17DOPE   H8X 2163   4.200   6.434   5.529 -0.8938  0.1805 -0.9316
   17DOPE   H8Y 2164   4.239   6.604   5.501 -0.9884  2.2499 -2.9235
   17DOPE   C39 2165   4.075   6.524   5.376 -0.1385  0.7951  0.2886
   17DOPE   H9X 2166   4.008   6.439   5.355  0.2232  1.4195 -4.7830
   17DOPE  C310 2167   4.092   6.610   5.278 -0.1799 -0.0477  0.0639
   17DOPE  H10X 2168   4.034   6.603   5.185 -1.0385  0.7533  0.5256
   17DOPE  C311 2169   4.168   6.739   5.275  0.9122  1.2207  0.5721
   17DOPE  H11X 2170   4.207   6.754   5.378 -0.0465  0.8343  1.0065
   17DOPE  H11Y 2171   4.247   6.741   5.198  1.5604 -0.6959  1.1310
   17DOPE  C312 2172   4.069   6.857   5.261  1.1950 -0.3429  0.9286
   17DOPE  H12X 2173   4.119   6.950   5.297  0.5423  1.3118 -2.0870
   17DOPE  H12Y 2174   3.981   6.841   5.327  1.2008 -1.7374  0.6110
   17DOPE  C313 2175   4.029   6.890   5.115 -0.2654  0.3720 -1.6290
   17DOPE  H13X 2176   4.123   6.913   5.062  1.2581  1.1626  1.1907
   17DOPE  H13Y 2177   3.969   6.802   5.082 -1.1306 -0.2052  1.1778
   17DOPE  C314 2178   3.926   7.003   5.106 -0.6979 -0.8913 -0.0498
   17DOPE  H14X 2179   3.862   6.999   5.197 -2.0603 -2.2269 -1.0249
   17DOPE  H14Y 2180   3.859   6.995   5.017 -0.7383 -0.2015 -0.0891
   17DOPE  C315 2181   3.993   7.136   5.088 -0.6068  0.0415 -0.6501
   17DOPE  H15X 2182   4.065   7.150   5.171  0.4163  1.9482 -1.7727
   17DOPE  H15Y 2183   3.913   7.211   5.101  1.2201  1.5934  3.1712
   17DOPE  C316 2184   4.074   7.156   4.961 -0.5755  0.4757 -0.1156
   17DOPE  H16X 2185   4.008   7.117   4.881 -1.2782 -0.1121  0.7225
   17DOPE  H16Y 2186   4.165   7.092   4.964  0.8563  2.3688 -1.4050
   17DOPE  C317 2187   4.107   7.300   4.925  0.1843  0.1968  0.1320
   17DOPE  H17X 2188   4.156   7.346   5.013  0.6214 -0.3051  0.1500
   17DOPE  H17Y 2189   4.174   7.322   4.840 -0.3452 -0.2112 -0.3964
   17DOPE  C318 2190   3.978   7.382   4.901 -0.4076 -0.1817  0.6857
   17DOPE  H18X 2191   3.922   7.400   4.996 -1.7702 -1.9825  0.2874
   17DOPE  H18Y 2192   3.994   7.477   4.845 -2.3497 -0.5496 -0.6085
   17DOPE  H18Z 2193   3.912   7.326   4.832  0.1008  1.1948 -0.9857
   18DOPE     N 2194   5.897   4.119   6.921  0.1813  0.0605 -0.0589
   18DOPE   HN1 2195   5.899   4.150   7.020 -0.3830 -1.9523  0.6456
   18DOPE   HN2 2196   5.797   4.108   6.893  0.4280 -0.1025 -0.8857
   18DOPE   HN3 2197   5.951   4.031   6.910  4.2820  2.5971 -2.8056
   18DOPE   C12 2198   5.972   4.214   6.837 -0.0784  0.7196  0.0800
   18DOPE  H12A 2199   5.947   4.319   6.861 -1.1413  0.5363 -0.1870
   18DOPE  H12B 2200   5.947   4.183   6.733  0.7811  2.0714 -0.5622
   18DOPE   C11 2201   6.122   4.197   6.865  0.2623 -0.8771 -0.0425
   18DOPE  H11A 2202   6.184   4.232   6.780 -1.0191  4.5514  0.9056
   18DOPE  H11B 2203   6.149   4.089   6.865 -0.0394 -0.9598 -1.1341
   18DOPE     P 2204   6.217   4.186   7.105  0.3399  0.4705 -0.0159
   18DOPE   O13 2205   6.129   4.065   7.129  0.0661 -0.0932  0.0447
   18DOPE   O14 2206   6.228   4.279   7.213 -0.6198  0.7075 -0.4017
   18DOPE   O11 2207   6.358   4.141   7.070 -0.5479 -0.1613 -0.1354
   18DOPE   O12 2208   6.160   4.264   6.985  0.1631 -0.4075  0.3466
   18DOPE    C1 2209   6.463   4.222   7.023  0.5312 -0.3499 -1.0804
   18DOPE    HA 2210   6.548   4.190   7.088 -0.4030  0.0426  0.3910
   18DOPE    HB 2211   6.447   4.328   7.053  0.1012 -0.2899 -1.5058
   18DOPE    C2 2212   6.504   4.204   6.881 -0.5770 -0.3518  0.8917
   18DOPE    HS 2213   6.429   4.244   6.809  1.0771  0.4909 -0.4433
   18DOPE   O21 2214   6.503   4.062   6.864 -0.4412 -0.3108  0.5246
   18DOPE   C21 2215   6.487   4.007   6.742 -0.6024 -0.6016 -0.3323
   18DOPE   O22 2216   6.448   4.066   6.643  0.1186  0.9091  0.3482
   18DOPE   C22 2217   6.520   3.853   6.750  0.1024 -0.2745 -0.5981
   18DOPE   H2R 2218   6.436   3.803   6.803  0.1461  0.6609  0.3873
   18DOPE   H2S 2219   6.609   3.834   6.813  1.6048  0.9181 -2.2666
   18DOPE    C3 2220   6.640   4.257   6.847 -0.4999  0.4012  0.4202
   18DOPE    HX 2221   6.706   4.229   6.932  0.5656  2.0471  0.1599
   18DOPE    HY 2222   6.655   4.366   6.859  4.3029 -0.2675  3.1129
   18DOPE   O31 2223   6.695   4.207   6.724 -0.4972 -0.3648  0.0825
   18DOPE   C31 2224   6.644   4.268   6.615  0.5710  1.0230  0.0706
   18DOPE   O32 2225   6.560   4.355   6.611 -0.1942 -0.1863  0.3524
   18DOPE   C32 2226   6.692   4.195   6.493 -0.2126 -0.3133  0.4233
   18DOPE   H2X 2227   6.800   4.174   6.507 -0.7141 -1.4290  3.1904
   18DOPE   H2Y 2228   6.630   4.102   6.497  2.2598 -2.0548  4.3515
   18DOPE   C23 2229   6.518   3.777   6.614 -0.0207  0.2184  0.0848
   18DOPE   H3R 2230   6.436   3.816   6.550  1.0625 -0.5651 -1.8699
   18DOPE   H3S 2231   6.497   3.669   6.630 -1.8668  0.6195  0.6099
   18DOPE   C24 2232   6.656   3.772   6.544 -0.2735  0.8772  0.0795
   18DOPE   H4R 2233   6.730   3.721   6.610 -0.0829  1.0860  0.0279
   18DOPE   H4S 2234   6.698   3.872   6.520  1.4425  0.1565 -0.0455
   18DOPE   C25 2235   6.636   3.686   6.422 -0.1295  0.2342  0.4991
   18DOPE   H5R 2236   6.549   3.723   6.364 -1.1502 -1.4600  0.8842
   18DOPE   H5S 2237   6.611   3.581   6.447 -2.6087  0.8917  0.9891
   18DOPE   C26 2238   6.764   3.673   6.335 -0.1248 -0.7263  0.4929
   18DOPE   H6R 2239   6.807   3.770   6.300 -0.9617 -1.7295 -3.9185
   18DOPE   H6S 2240   6.736   3.618   6.243 -1.3345  0.6075  0.0243
   18DOPE   C27 2241   6.862   3.591   6.410 -0.2616 -0.0188  0.0906
   18DOPE   H7R 2242   6.822   3.492   6.440  0.0391  0.1465  1.0755
   18DOPE   H7S 2243   6.899   3.640   6.503 -0.6123  3.2376 -1.3641
   18DOPE   C28 2244   6.989   3.561   6.322  0.4121 -0.2063  0.5752
   18DOPE   H8R 2245   7.070   3.525   6.388  1.6826  1.1154 -0.2163
   18DOPE   H8S 2246   7.023   3.660   6.285  0.8889 -0.4881  0.2451
   18DOPE   C29 2247   6.956   3.471   6.198  0.0177  0.5207 -1.3253
   18DOPE   H9R 2248   6.878   3.398   6.226 -0.2823  0.6442 -1.8303
   18DOPE  C210 2249   6.987   3.491   6.073 -0.6226  0.5510 -0.1249
   18DOPE  H10R 2250   6.937   3.431   5.997 -0.0344  0.5399 -0.5068
   18DOPE  C211 2251   7.087   3.595   6.028  0.4289 -0.2012  0.9980
   18DOPE  H11R 2252   7.161   3.633   6.102  2.1844  0.7746 -1.1358
   18DOPE  H11S 2253   7.026   3.683   6.002  1.8297  0.9185  1.3512
   18DOPE  C212 2254   7.154   3.541   5.898  0.0326  0.3910 -0.5995
   18DOPE  H12R 2255   7.231   3.617   5.873 -0.2212  1.3037  1.1963
   18DOPE  H12S 2256   7.081   3.544   5.814 -0.4155  0.7741 -0.2009
   18DOPE  C213 2257   7.225   3.410   5.917  0.8722  0.2448 -0.2011
   18DOPE  H13R 2258   7.154   3.338   5.964  0.4958  1.7500  1.6864
   18DOPE  H13S 2259   7.304   3.422   5.994  0.3430 -1.4241  0.6689
   18DOPE  C214 2260   7.301   3.354   5.795 -0.3874 -0.3812 -0.4439
   18DOPE  H14R 2261   7.382   3.425   5.767 -1.5267  0.6381 -1.2608
   18DOPE  H14S 2262   7.236   3.345   5.705  1.6174 -1.6794 -1.8529
   18DOPE  C215 2263   7.364   3.214   5.827  0.3889 -0.5163  0.0425
   18DOPE  H15R 2264   7.283   3.144   5.855  0.6588 -0.1966  1.7203
   18DOPE  H15S 2265   7.430   3.221   5.916  1.2350  1.9445 -0.6825
   18DOPE  C216 2266   7.451   3.156   5.712  0.0408  0.2196 -0.0296
   18DOPE  H16R 2267   7.543   3.216   5.694  0.5839 -0.8613 -1.0097
   18DOPE  H16S 2268   7.393   3.148   5.618  0.6797 -1.1794 -0.3324
   18DOPE  C217 2269   7.509   3.018   5.752  1.0373  0.2019  0.2111
   18DOPE  H17R 2270   7.422   2.953   5.774  2.4840 -0.9118  3.1645
   18DOPE  H17S 2271   7.567   3.040   5.844 -0.6916  1.0240  1.1579
   18DOPE  C218 2272   7.590   2.951   5.641 -0.6763  0.2132  0.5139
   18DOPE  H18R 2273   7.515   2.938   5.560 -0.4825  0.8006  0.2344
   18DOPE  H18S 2274   7.626   2.849   5.665  2.0288  0.9039 -0.3678
   18DOPE  H18T 2275   7.682   3.010   5.623  0.5538 -1.5135  1.0167
   18DOPE   C33 2276   6.656   4.263   6.357  0.5671 -0.2965  0.1242
   18DOPE   H3X 2277   6.704   4.363   6.358  0.4709 -0.2039 -1.7569
   18DOPE   H3Y 2278   6.547   4.284   6.355  0.6132  0.1842  1.5455
   18DOPE   C34 2279   6.684   4.178   6.237 -0.2823  0.1513  0.1834
   18DOPE   H4X 2280   6.747   4.238   6.167 -0.8981 -1.3068 -1.7297
   18DOPE   H4Y 2281   6.743   4.086   6.257  0.6132  0.8654  0.9169
   18DOPE   C35 2282   6.559   4.142   6.155  0.5773 -0.6334 -0.0153
   18DOPE   H5X 2283   6.540   4.233   6.095  3.3562  1.4532  2.0010
   18DOPE   H5Y 2284   6.470   4.128   6.220  1.7859 -0.1816  1.8177
   18DOPE   C36 2285   6.589   4.016   6.072  0.0191  0.1736 -0.3096
   18DOPE   H6X 2286   6.592   3.942   6.154  0.7813  1.5854  0.9910
   18DOPE   H6Y 2287   6.685   4.028   6.018  1.5317 -1.0803  1.9361
   18DOPE   C37 2288   6.476   3.973   5.967 -0.9088  0.3676 -0.1327
   18DOPE   H7X 2289   6.503   3.866   5.951  1.0067  0.8793 -0.6286
   18DOPE   H7Y 2290   6.380   3.977   6.022  0.6432  0.0723  2.8485
   18DOPE   C38 2291   6.480   4.049   5.834  0.1161 -0.1336 -0.0102
   18DOPE   H8X 2292   6.464   4.158   5.849 -0.3429 -0.3569  1.2341
   18DOPE   H8Y 2293   6.394   4.013   5.773 -1.1022  0.9702  1.0191
   18DOPE   C39 2294   6.609   4.050   5.754 -0.0304 -0.6323  0.3129
   18DOPE   H9X 2295   6.683   4.122   5.792 -1.4908 -0.5037  3.2269
   18DOPE  C310 2296   6.629   3.979   5.638  0.1741 -0.1036  0.2128
   18DOPE  H10X 2297   6.714   4.007   5.573  0.2335 -0.1882  0.2535
   18DOPE  C311 2298   6.540   3.877   5.571 -0.2314 -0.1831  0.6072
   18DOPE  H11X 2299   6.590   3.786   5.530 -0.1766  0.7290 -1.5089
   18DOPE  H11Y 2300   6.460   3.836   5.636 -0.4483 -1.3482 -0.3402
   18DOPE  C312 2301   6.484   3.944   5.443 -0.2799  0.1426 -1.0457
   18DOPE  H12X 2302   6.569   3.985   5.384 -0.2278  1.4604 -0.0945
   18DOPE  H12Y 2303   6.425   4.033   5.473 -0.2620  0.1150 -0.9304
   18DOPE  C313 2304   6.397   3.839   5.370  0.0220  0.1621 -0.7323
   18DOPE  H13X 2305   6.452   3.759   5.317  1.7335  0.3593  0.6668
   18DOPE  H13Y 2306   6.331   3.795   5.447 -1.0883  2.3300 -0.3606
   18DOPE  C314 2307   6.299   3.905   5.269  0.2021 -0.6660  0.0856
   18DOPE  H14X 2308   6.348   3.933   5.173 -0.2793  0.0893  0.0493
   18DOPE  H14Y 2309   6.265   4.003   5.309  1.1843  0.1913 -1.0822
   18DOPE  C315 2310   6.186   3.816   5.225  0.1665  0.0492 -0.7861
   18DOPE  H15X 2311   6.110   3.795   5.304 -0.3303 -3.0136 -1.9156
   18DOPE  H15Y 2312   6.226   3.719   5.189  2.3653  0.6077 -0.0003
   18DOPE  C316 2313   6.108   3.873   5.101  0.1594  0.1761 -0.3554
   18DOPE  H16X 2314   6.173   3.888   5.013 -0.7083  1.3027 -0.8316
   18DOPE  H16Y 2315   6.068   3.971   5.136  1.3186  0.0567  1.4286
   18DOPE  C317 2316   5.997   3.786   5.041  0.0382 -0.2611  0.4730
   18DOPE  H17X 2317   5.920   3.767   5.119 -1.7000  0.6675 -0.9402
   18DOPE  H17Y 2318   5.956   3.849   4.959  0.5360 -0.5745 -0.0267
   18DOPE  C318 2319   6.042   3.658   4.978 -0.1973  0.5815 -1.3884
   18DOPE  H18X 2320   6.144   3.654   4.935 -0.5413  0.5568 -2.2174
   18DOPE  H18Y 2321   6.039   3.581   5.059 -0.2863  0.6202 -1.3543
   18DOPE  H18Z 2322   5.967   3.620   4.905 -1.4826  0.2319  0.0404
   19DOPE     N 2323   5.369   4.604   6.807  0.1577  0.7039  0.4451
   19DOPE   HN1 2324   5.291   4.669   6.833 -0.2886  0.4904 -0.3326
   19DOPE   HN2 2325   5.429   4.652   6.737  1.6900  0.5730  1.6144
   19DOPE   HN3 2326   5.330   4.523   6.755 -0.8271  0.3232  1.7019
   19DOPE   C12 2327   5.452   4.550   6.921 -0.6268  0.0992 -0.1807
   19DOPE  H12A 2328   5.388   4.523   7.007 -0.1492 -0.4382  0.0101
   19DOPE  H12B 2329   5.516   4.636   6.949  0.9969 -1.4665  1.1374
   19DOPE   C11 2330   5.544   4.434   6.877 -0.1059  0.4676 -0.2929
   19DOPE  H11A 2331   5.584   4.388   6.970 -0.7140 -1.3142 -0.8614
   19DOPE  H11B 2332   5.632   4.480   6.826  0.7363 -1.3656 -0.5779
   19DOPE     P 2333   5.565   4.208   6.762 -0.1683  0.4322 -0.0633
   19DOPE   O13 2334   5.483   4.104   6.704  0.0869  0.5825  0.3517
   19DOPE   O14 2335   5.640   4.157   6.883  0.7133 -0.2633  0.5922
   19DOPE   O11 2336   5.665   4.263   6.653 -0.2753 -0.1522  0.5102
   19DOPE   O12 2337   5.476   4.333   6.798  0.5545  0.1182 -0.4123
   19DOPE    C1 2338   5.625   4.367   6.562 -0.0562 -0.3609 -0.2532
   19DOPE    HA 2339   5.713   4.419   6.518 -0.1107  0.7297  0.8536
   19DOPE    HB 2340   5.583   4.457   6.612 -1.2605 -1.1402  0.1711
   19DOPE    C2 2341   5.538   4.320   6.441  0.3223 -0.2120  0.7946
   19DOPE    HS 2342   5.449   4.274   6.489 -1.2065  2.5133  0.8309
   19DOPE   O21 2343   5.605   4.226   6.354  0.2201 -0.2353  0.7174
   19DOPE   C21 2344   5.520   4.137   6.291  0.7947  0.4945 -0.3297
   19DOPE   O22 2345   5.401   4.126   6.324  0.0027  0.5592 -0.7272
   19DOPE   C22 2346   5.603   4.055   6.199  0.5301  1.1569 -0.0736
   19DOPE   H2R 2347   5.560   3.953   6.190  0.0895  1.4127 -0.9484
   19DOPE   H2S 2348   5.706   4.047   6.240  0.3099 -0.0244  0.2935
   19DOPE    C3 2349   5.494   4.446   6.369 -0.5535 -0.3220  0.4710
   19DOPE    HX 2350   5.587   4.495   6.334 -1.8545  2.0344  0.1313
   19DOPE    HY 2351   5.445   4.522   6.434 -1.0547 -0.1510 -0.1006
   19DOPE   O31 2352   5.410   4.426   6.247  1.1210 -0.1102 -0.6343
   19DOPE   C31 2353   5.276   4.422   6.276  0.1029  0.3328 -0.9872
   19DOPE   O32 2354   5.223   4.432   6.384 -0.5753  0.0481  0.2446
   19DOPE   C32 2355   5.194   4.387   6.152 -0.1363 -0.2001 -0.4590
   19DOPE   H2X 2356   5.255   4.328   6.080 -1.4404  1.5054 -3.1424
   19DOPE   H2Y 2357   5.111   4.321   6.184  1.4963 -1.0611  2.3487
   19DOPE   C23 2358   5.624   4.118   6.063  0.0386 -0.1496 -0.0526
   19DOPE   H3R 2359   5.704   4.069   6.004 -1.3251  0.0886 -2.2086
   19DOPE   H3S 2360   5.650   4.225   6.082  0.1175 -0.4590  1.7851
   19DOPE   C24 2361   5.506   4.095   5.968 -0.6225 -1.3977 -0.4807
   19DOPE   H4R 2362   5.421   4.144   6.021  0.7068  0.5533 -0.0437
   19DOPE   H4S 2363   5.484   3.987   5.958 -0.6595 -1.2299 -2.4745
   19DOPE   C25 2364   5.528   4.152   5.826 -0.2164  0.6379  0.0955
   19DOPE   H5R 2365   5.620   4.103   5.788 -0.2463  0.3662  0.3749
   19DOPE   H5S 2366   5.542   4.262   5.829  0.7474  0.5556 -0.6425
   19DOPE   C26 2367   5.414   4.107   5.739  0.6015  0.0649  0.3329
   19DOPE   H6R 2368   5.333   4.183   5.738  0.0137 -0.5065 -2.2573
   19DOPE   H6S 2369   5.368   4.014   5.781 -1.3182 -0.5429 -2.7723
   19DOPE   C27 2370   5.449   4.075   5.593  1.0372 -0.3297 -0.5006
   19DOPE   H7R 2371   5.534   4.004   5.595  2.1921  0.9494 -2.0186
   19DOPE   H7S 2372   5.480   4.174   5.552 -3.1494  1.6377  0.4546
   19DOPE   C28 2373   5.325   4.022   5.521  0.4513 -0.0366 -0.1772
   19DOPE   H8R 2374   5.242   4.084   5.563 -0.2622 -2.1264  1.7375
   19DOPE   H8S 2375   5.310   3.916   5.549  0.8553 -0.3886 -1.2674
   19DOPE   C29 2376   5.337   4.032   5.369 -0.3896 -0.1029  0.5898
   19DOPE   H9R 2377   5.392   3.954   5.314 -0.4511 -0.0260  0.4199
   19DOPE  C210 2378   5.298   4.139   5.297 -0.3134 -1.3428  0.3766
   19DOPE  H10R 2379   5.313   4.135   5.188 -0.5618 -0.8391  0.3189
   19DOPE  C211 2380   5.242   4.276   5.354  0.4878  0.5446  0.1386
   19DOPE  H11R 2381   5.254   4.268   5.464 -0.4519 -1.2817  0.1545
   19DOPE  H11S 2382   5.131   4.273   5.344  0.2814 -3.5202  1.4444
   19DOPE  C212 2383   5.302   4.401   5.298  0.8260 -0.7636  0.4942
   19DOPE  H12R 2384   5.259   4.476   5.367  0.4291 -0.8684  0.3634
   19DOPE  H12S 2385   5.262   4.419   5.196 -0.1177  0.1978  1.0105
   19DOPE  C213 2386   5.454   4.403   5.295 -0.5125  0.0400 -0.2092
   19DOPE  H13R 2387   5.496   4.309   5.253 -2.4318 -1.3959  0.9158
   19DOPE  H13S 2388   5.489   4.422   5.398 -0.6718  0.0247 -0.1524
   19DOPE  C214 2389   5.523   4.506   5.209 -0.1410  0.1451  0.4374
   19DOPE  H14R 2390   5.633   4.510   5.225 -0.2745  2.1884  1.2082
   19DOPE  H14S 2391   5.481   4.606   5.234  0.4060 -0.0842  2.3536
   19DOPE  C215 2392   5.497   4.474   5.058  0.4985  0.7686  0.4429
   19DOPE  H15R 2393   5.395   4.436   5.037  0.8800  0.6824 -1.3654
   19DOPE  H15S 2394   5.564   4.390   5.031  0.8609  0.7031  1.4762
   19DOPE  C216 2395   5.531   4.603   4.971 -0.4471  0.3159 -0.8222
   19DOPE  H16R 2396   5.628   4.654   4.990 -0.3204  1.2861 -3.5760
   19DOPE  H16S 2397   5.445   4.667   5.000  0.1196  0.3024  0.9800
   19DOPE  C217 2398   5.543   4.570   4.820 -0.9084  0.0912 -0.0891
   19DOPE  H17R 2399   5.450   4.522   4.783 -0.7167 -1.6081  1.4865
   19DOPE  H17S 2400   5.633   4.505   4.812 -1.0652 -0.0768 -0.5335
   19DOPE  C218 2401   5.566   4.703   4.753  0.1008 -0.3393  0.7111
   19DOPE  H18R 2402   5.637   4.772   4.804  1.7730 -0.0970 -1.7375
   19DOPE  H18S 2403   5.470   4.758   4.743  0.3885  0.1633  0.6632
   19DOPE  H18T 2404   5.614   4.693   4.653  0.1144 -2.9744  0.9109
   19DOPE   C33 2405   5.141   4.516   6.084  0.3284  0.3423 -0.1475
   19DOPE   H3X 2406   5.228   4.581   6.060  0.4161  0.3204  0.1103
   19DOPE   H3Y 2407   5.077   4.568   6.158  1.0641  0.6045  0.3202
   19DOPE   C34 2408   5.081   4.480   5.955 -0.1848  0.7413 -0.4493
   19DOPE   H4X 2409   5.154   4.447   5.878 -0.5105 -1.1803  0.0178
   19DOPE   H4Y 2410   5.004   4.400   5.955  1.7743 -1.2614 -1.8041
   19DOPE   C35 2411   5.013   4.611   5.898  0.2466 -0.0082  0.1570
   19DOPE   H5X 2412   5.091   4.688   5.884 -1.8451  2.1462 -0.2349
   19DOPE   H5Y 2413   4.936   4.651   5.967  0.0137 -1.2592  0.6686
   19DOPE   C36 2414   4.955   4.583   5.766  0.3562  0.4837  0.3527
   19DOPE   H6X 2415   4.904   4.485   5.766  1.5791 -0.2200 -1.9997
   19DOPE   H6Y 2416   5.035   4.560   5.692  1.5758 -0.0277  1.7905
   19DOPE   C37 2417   4.873   4.703   5.706 -0.0510  0.0631 -0.1371
   19DOPE   H7X 2418   4.791   4.740   5.771 -0.7549  0.0300 -0.9873
   19DOPE   H7Y 2419   4.950   4.782   5.716  0.6726 -0.7880  1.5653
   19DOPE   C38 2420   4.803   4.673   5.570 -0.1583  0.7252  0.4049
   19DOPE   H8X 2421   4.720   4.602   5.593 -0.7596  1.5687  0.8890
   19DOPE   H8Y 2422   4.878   4.624   5.503  0.0262  0.7530  0.5886
   19DOPE   C39 2423   4.740   4.796   5.512  0.0335 -0.1390 -0.3439
   19DOPE   H9X 2424   4.806   4.884   5.525 -0.0914  0.1123 -1.3241
   19DOPE  C310 2425   4.638   4.796   5.430 -0.0368  0.3105 -0.7528
   19DOPE  H10X 2426   4.613   4.889   5.379 -0.2989  1.0160  0.6033
   19DOPE  C311 2427   4.558   4.670   5.398  0.5226  0.5788  0.2740
   19DOPE  H11X 2428   4.596   4.576   5.444  0.5148 -1.1022 -2.8657
   19DOPE  H11Y 2429   4.461   4.688   5.449 -0.7303 -0.3500 -1.6667
   19DOPE  C312 2430   4.536   4.634   5.247 -0.0552 -0.0223  0.0164
   19DOPE  H12X 2431   4.494   4.531   5.242  0.1074 -0.0303 -2.2984
   19DOPE  H12Y 2432   4.635   4.630   5.198 -0.5894  1.7231 -1.2964
   19DOPE  C313 2433   4.447   4.731   5.169  0.7337  0.2687 -0.1524
   19DOPE  H13X 2434   4.348   4.744   5.217  0.1202 -0.9558 -1.0257
   19DOPE  H13Y 2435   4.501   4.828   5.157  0.1101  0.4837 -1.3482
   19DOPE  C314 2436   4.432   4.674   5.017  0.5753 -0.1350 -0.3694
   19DOPE  H14X 2437   4.383   4.574   5.017  1.0112 -0.3501 -0.4867
   19DOPE  H14Y 2438   4.536   4.648   4.986  1.3654  0.9307  1.2128
   19DOPE  C315 2439   4.362   4.759   4.907  0.2114  0.4747  0.2778
   19DOPE  H15X 2440   4.429   4.843   4.878  1.6332  0.0751  2.2047
   19DOPE  H15Y 2441   4.263   4.794   4.945  0.4899  2.3496 -0.6121
   19DOPE  C316 2442   4.334   4.666   4.785 -0.0603 -0.6667  0.5556
   19DOPE  H16X 2443   4.294   4.573   4.831 -1.5974  0.8093  2.3803
   19DOPE  H16Y 2444   4.430   4.640   4.735 -0.1135  0.7368 -0.3307
   19DOPE  C317 2445   4.237   4.728   4.690  0.4077 -0.1089  0.0474
   19DOPE  H17X 2446   4.156   4.766   4.756  2.0030  0.7880  1.5934
   19DOPE  H17Y 2447   4.274   4.818   4.638 -2.9991  1.7678  0.5846
   19DOPE  C318 2448   4.179   4.624   4.592 -0.0847  0.0285  0.0953
   19DOPE  H18X 2449   4.263   4.586   4.530  0.5212  2.3134 -0.6002
   19DOPE  H18Y 2450   4.126   4.538   4.639  0.2039 -1.3962 -2.0311
   19DOPE  H18Z 2451   4.101   4.677   4.532  0.4534  0.6399 -0.0735
   20DOPE     N 2452   6.799   5.863   7.343 -0.2752 -0.1379 -0.2389
   20DOPE   HN1 2453   6.892   5.897   7.313 -0.8732  0.5215 -1.3863
   20DOPE   HN2 2454   6.729   5.928   7.384 -0.6761 -0.8044  0.1626
   20DOPE   HN3 2455   6.815   5.791   7.417  1.3219  0.1460 -0.2856
   20DOPE   C12 2456   6.729   5.803   7.223  0.5356 -0.3011  0.1365
   20DOPE  H12A 2457   6.797   5.736   7.167  0.4255 -0.0650 -0.2903
   20DOPE  H12B 2458   6.692   5.886   7.159  2.1758  1.8801  1.8462
   20DOPE   C11 2459   6.612   5.721   7.279  0.6028 -0.4069 -0.1049
   20DOPE  H11A 2460   6.541   5.789   7.331  1.3695 -0.3219  0.8582
   20DOPE  H11B 2461   6.628   5.644   7.357 -2.5485 -1.9015 -0.7639
   20DOPE     P 2462   6.429   5.742   7.086  0.1777  0.0630 -0.0559
   20DOPE   O13 2463   6.499   5.814   6.976 -0.6507  0.1144  0.1761
   20DOPE   O14 2464   6.339   5.814   7.183  0.0515 -0.4407  0.4506
   20DOPE   O11 2465   6.351   5.619   7.024 -0.1793  0.7904  0.2970
   20DOPE   O12 2466   6.540   5.662   7.171  0.2659 -0.4621 -0.4936
   20DOPE    C1 2467   6.428   5.527   6.944 -0.1838 -0.6012 -0.1006
   20DOPE    HA 2468   6.383   5.427   6.958  0.0081 -0.6628  0.0716
   20DOPE    HB 2469   6.530   5.511   6.984 -0.0504 -2.4686 -1.0466
   20DOPE    C2 2470   6.449   5.567   6.796  0.1405 -0.7658  0.0012
   20DOPE    HS 2471   6.481   5.673   6.787 -0.7145 -0.6454 -2.2825
   20DOPE   O21 2472   6.316   5.553   6.732 -0.1610  0.2651  0.0428
   20DOPE   C21 2473   6.271   5.655   6.667  0.7585 -0.3427 -0.2912
   20DOPE   O22 2474   6.315   5.770   6.663 -0.3592 -0.2484  0.4735
   20DOPE   C22 2475   6.140   5.624   6.592  0.3145  0.5143  0.5736
   20DOPE   H2R 2476   6.051   5.669   6.642 -0.7519  1.0717 -1.6878
   20DOPE   H2S 2477   6.129   5.514   6.598 -0.3274  0.4458 -1.1796
   20DOPE    C3 2478   6.542   5.470   6.722  0.0598 -0.4846  0.0761
   20DOPE    HX 2479   6.495   5.370   6.735 -0.9698 -0.0762 -0.3432
   20DOPE    HY 2480   6.636   5.474   6.780  0.2623 -2.3209 -0.0828
   20DOPE   O31 2481   6.559   5.510   6.581  0.2145 -0.0041 -0.2869
   20DOPE   C31 2482   6.640   5.608   6.569  0.0785 -0.5711  0.1653
   20DOPE   O32 2483   6.703   5.665   6.652 -0.1299  0.5267  0.2976
   20DOPE   C32 2484   6.637   5.648   6.421 -0.2427  0.1853 -0.7127
   20DOPE   H2X 2485   6.638   5.550   6.369  1.7877 -1.5591  2.2680
   20DOPE   H2Y 2486   6.543   5.701   6.394 -0.3211  0.6169  0.3492
   20DOPE   C23 2487   6.141   5.665   6.446  0.3397  0.2874 -0.0918
   20DOPE   H3R 2488   6.176   5.575   6.391 -1.3914 -0.6627  0.2731
   20DOPE   H3S 2489   6.199   5.755   6.416  2.7330 -0.5598  1.7218
   20DOPE   C24 2490   5.996   5.687   6.389 -0.5023  0.5303  0.5597
   20DOPE   H4R 2491   5.932   5.733   6.468  0.1286 -0.8012  1.8821
   20DOPE   H4S 2492   5.949   5.592   6.355  2.3167  0.4114 -3.6806
   20DOPE   C25 2493   6.002   5.791   6.274 -0.2088 -0.7674 -0.6665
   20DOPE   H5R 2494   6.031   5.890   6.312  0.1023 -1.1865  0.2105
   20DOPE   H5S 2495   5.899   5.811   6.235 -0.2602 -1.6388 -1.0053
   20DOPE   C26 2496   6.089   5.747   6.154  0.6182  0.1058 -0.2606
   20DOPE   H6R 2497   6.057   5.642   6.136 -0.6320  0.0890  1.7735
   20DOPE   H6S 2498   6.195   5.751   6.185  0.8006  2.4994 -1.0011
   20DOPE   C27 2499   6.067   5.831   6.035  0.4637 -0.2742  0.2637
   20DOPE   H7R 2500   6.098   5.935   6.059  0.1704  0.0641 -0.7353
   20DOPE   H7S 2501   5.958   5.834   6.016 -0.0491  1.1651  3.0163
   20DOPE   C28 2502   6.139   5.783   5.910  0.0534 -0.2627  0.0185
   20DOPE   H8R 2503   6.245   5.810   5.931  0.1639 -0.7957  0.1673
   20DOPE   H8S 2504   6.106   5.850   5.827  0.9690 -0.4453 -0.5044
   20DOPE   C29 2505   6.127   5.644   5.868  0.2279  0.8461 -0.0020
   20DOPE   H9R 2506   6.161   5.577   5.948  0.4041  1.6282  0.5860
   20DOPE  C210 2507   6.086   5.594   5.741 -0.7281  0.9718 -0.1913
   20DOPE  H10R 2508   6.096   5.485   5.732  0.4405  0.6930  2.9648
   20DOPE  C211 2509   6.033   5.678   5.627 -0.5250 -0.2104 -0.4909
   20DOPE  H11R 2510   6.024   5.785   5.656 -0.6154 -0.4801  0.5292
   20DOPE  H11S 2511   5.929   5.650   5.599  0.1793  0.0326 -3.7359
   20DOPE  C212 2512   6.117   5.669   5.497 -0.2052 -0.3443 -0.4293
   20DOPE  H12R 2513   6.170   5.574   5.473  1.8950  0.7020 -0.2506
   20DOPE  H12S 2514   6.195   5.749   5.503 -1.1124  0.4805  0.7677
   20DOPE  C213 2515   6.040   5.727   5.373 -0.0630 -0.0097  0.3467
   20DOPE  H13R 2516   6.007   5.827   5.408 -0.5491 -0.1630  0.3219
   20DOPE  H13S 2517   5.951   5.670   5.340  0.4813  0.8447 -2.9381
   20DOPE  C214 2518   6.109   5.731   5.239  0.2942 -0.6328  0.5416
   20DOPE  H14R 2519   6.126   5.631   5.194 -0.2121  0.2045 -1.6239
   20DOPE  H14S 2520   6.208   5.781   5.247 -0.4018  0.8929  0.0921
   20DOPE  C215 2521   6.023   5.814   5.146 -0.0518 -0.1647  0.6389
   20DOPE  H15R 2522   6.017   5.921   5.176  0.9269  0.4265 -1.1500
   20DOPE  H15S 2523   5.917   5.782   5.140  0.3304 -1.3463 -0.0222
   20DOPE  C216 2524   6.087   5.804   5.006 -1.7476  0.0791 -0.1599
   20DOPE  H16R 2525   6.197   5.812   5.024 -1.5599 -2.0173 -0.1144
   20DOPE  H16S 2526   6.050   5.898   4.960 -0.6474  1.4950  1.7079
   20DOPE  C217 2527   6.050   5.684   4.927  0.3224  0.2317  0.1969
   20DOPE  H17R 2528   5.944   5.671   4.898  0.8240 -0.6335 -1.3684
   20DOPE  H17S 2529   6.074   5.599   4.994 -0.9626  0.6073  1.1771
   20DOPE  C218 2530   6.117   5.671   4.788 -0.1803 -0.3979 -0.2978
   20DOPE  H18R 2531   6.077   5.580   4.738 -0.2487 -0.2877 -0.4423
   20DOPE  H18S 2532   6.224   5.650   4.808 -0.7533 -3.9448 -0.3665
   20DOPE  H18T 2533   6.114   5.765   4.729  4.3328 -1.0619 -1.9886
   20DOPE   C33 2534   6.756   5.732   6.390 -0.6232 -0.9721 -0.0805
   20DOPE   H3X 2535   6.850   5.677   6.415  0.9683  0.9486 -1.5123
   20DOPE   H3Y 2536   6.758   5.834   6.434  1.2356 -0.5044 -1.1451
   20DOPE   C34 2537   6.766   5.751   6.231  0.1228 -0.0589 -0.1786
   20DOPE   H4X 2538   6.733   5.659   6.178  0.8651  1.3250 -3.2893
   20DOPE   H4Y 2539   6.687   5.823   6.200  1.1804  1.7622  1.1453
   20DOPE   C35 2540   6.899   5.810   6.180  0.7304 -0.3121 -0.8791
   20DOPE   H5X 2541   6.968   5.725   6.201 -0.6938 -1.8624 -2.1100
   20DOPE   H5Y 2542   6.919   5.897   6.245  0.5271 -1.4247  0.7386
   20DOPE   C36 2543   6.900   5.853   6.039 -0.2716  0.2662  0.3057
   20DOPE   H6X 2544   6.992   5.915   6.029  0.0905 -0.5267 -1.7696
   20DOPE   H6Y 2545   6.816   5.924   6.024  0.3548  0.8347 -0.6804
   20DOPE   C37 2546   6.892   5.755   5.920  0.2886  0.5714  0.1220
   20DOPE   H7X 2547   6.978   5.685   5.921  0.4255  0.7412  0.2033
   20DOPE   H7Y 2548   6.808   5.684   5.942  0.5947  0.6216  1.5456
   20DOPE   C38 2549   6.889   5.823   5.780  0.3051  0.0220 -0.2059
   20DOPE   H8X 2550   6.984   5.880   5.769  1.0223 -1.3452 -1.2357
   20DOPE   H8Y 2551   6.802   5.892   5.777 -0.6771 -1.2361 -1.9627
   20DOPE   C39 2552   6.868   5.724   5.667  0.2470  0.5435 -0.0485
   20DOPE   H9X 2553   6.833   5.630   5.711 -0.5063  1.2022  0.7899
   20DOPE  C310 2554   6.888   5.741   5.536 -0.4622 -0.1750 -0.5003
   20DOPE  H10X 2555   6.866   5.659   5.467  0.7080  1.3289 -2.8117
   20DOPE  C311 2556   6.931   5.867   5.465 -0.4256 -0.3063  0.2106
   20DOPE  H11X 2557   6.882   5.954   5.513 -2.2513 -1.0687 -0.2166
   20DOPE  H11Y 2558   7.035   5.899   5.490 -0.3393  0.4962 -1.0853
   20DOPE  C312 2559   6.919   5.863   5.316  0.0576 -0.9149  0.4539
   20DOPE  H12X 2560   6.818   5.837   5.278  0.4803 -2.2671  0.2146
   20DOPE  H12Y 2561   6.988   5.793   5.265  2.0059  1.6688 -0.6638
   20DOPE  C313 2562   6.935   6.002   5.241 -0.0833  0.2212  0.2335
   20DOPE  H13X 2563   6.860   6.077   5.273  0.1154  0.4723  0.1129
   20DOPE  H13Y 2564   7.037   6.036   5.270  0.4136 -0.4083 -0.7285
   20DOPE  C314 2565   6.921   5.986   5.095 -0.3416 -0.1629  0.0063
   20DOPE  H14X 2566   6.814   5.974   5.067 -0.2664  1.3484 -1.0918
   20DOPE  H14Y 2567   6.988   5.908   5.054 -0.8894 -0.0953 -1.0621
   20DOPE  C315 2568   6.964   6.117   5.026  0.7419  0.7943 -0.2831
   20DOPE  H15X 2569   7.071   6.145   5.043  0.5666  1.9679 -1.0001
   20DOPE  H15Y 2570   6.913   6.202   5.075  1.0043 -0.2107  1.8277
   20DOPE  C316 2571   6.941   6.120   4.874  0.1983 -0.4316 -0.5700
   20DOPE  H16X 2572   6.966   6.029   4.814 -0.9561 -1.0306 -0.1614
   20DOPE  H16Y 2573   7.012   6.192   4.826 -0.8775  1.9785  1.2795
   20DOPE  C317 2574   6.804   6.201   4.849 -0.4678 -0.4364  0.2960
   20DOPE  H17X 2575   6.716   6.156   4.900 -1.6514  1.7718  0.3302
   20DOPE  H17Y 2576   6.816   6.302   4.895  0.5629 -0.1366 -0.5837
   20DOPE  C318 2577   6.766   6.208   4.700 -0.7450 -0.1174 -0.2066
   20DOPE  H18X 2578   6.662   6.241   4.683 -1.1004 -1.8934 -1.7522
   20DOPE  H18Y 2579   6.846   6.258   4.642  0.7819 -1.4371  0.6609
   20DOPE  H18Z 2580   6.772   6.104   4.663 -2.8007 -0.4649  0.3202
   21DOPE     N 2581   3.173   0.614   6.972  0.3986 -0.1422  0.5027
   21DOPE   HN1 2582   3.193   0.597   6.872  2.2017 -2.1958  1.1518
   21DOPE   HN2 2583   3.078   0.582   6.998  1.2521 -1.1001  2.6513
   21DOPE   HN3 2584   3.179   0.717   6.985  2.5974 -0.1437 -0.1493
   21DOPE   C12 2585   3.283   0.540   7.045  0.0427 -0.3004 -0.0746
   21DOPE  H12A 2586   3.265   0.432   7.024 -1.4783  0.0673 -0.8146
   21DOPE  H12B 2587   3.279   0.557   7.155  1.2753  1.7839 -0.2988
   21DOPE   C11 2588   3.419   0.593   6.989 -0.5416 -0.5453 -0.2765
   21DOPE  H11A 2589   3.494   0.542   7.054  0.2416  1.7750  0.7382
   21DOPE  H11B 2590   3.425   0.704   6.991 -1.6982 -0.4596 -0.6602
   21DOPE     P 2591   3.493   0.422   6.799  0.4562 -0.0039  0.0703
   21DOPE   O13 2592   3.494   0.317   6.902 -0.4479  0.3704 -0.6588
   21DOPE   O14 2593   3.622   0.464   6.742  0.0619  0.6594 -0.6024
   21DOPE   O11 2594   3.401   0.369   6.679 -0.3471 -0.8710  0.4924
   21DOPE   O12 2595   3.427   0.558   6.853  0.0194  0.2792  0.1244
   21DOPE    C1 2596   3.332   0.461   6.595 -0.4450 -0.0197 -0.3145
   21DOPE    HA 2597   3.347   0.566   6.628 -2.9378 -0.1383  1.4481
   21DOPE    HB 2598   3.223   0.442   6.588 -0.2718 -0.3553 -3.4185
   21DOPE    C2 2599   3.377   0.443   6.447  0.5778 -0.5246  0.2650
   21DOPE    HS 2600   3.330   0.345   6.422 -1.6615  0.5707 -0.1456
   21DOPE   O21 2601   3.519   0.459   6.432 -0.1391 -1.1630  0.4287
   21DOPE   C21 2602   3.584   0.343   6.425  0.1573 -0.1744 -0.1337
   21DOPE   O22 2603   3.534   0.237   6.443 -0.0740  0.5889  0.0715
   21DOPE   C22 2604   3.724   0.368   6.377 -0.1465 -0.1184 -0.5663
   21DOPE   H2R 2605   3.781   0.287   6.428 -0.2764  0.3409  0.3243
   21DOPE   H2S 2606   3.763   0.469   6.405 -2.3767  1.1914 -1.9190
   21DOPE    C3 2607   3.294   0.551   6.368  0.1478 -0.3020  0.1807
   21DOPE    HX 2608   3.312   0.652   6.409  1.3468 -0.8347  1.0239
   21DOPE    HY 2609   3.186   0.525   6.379  0.1148  0.1086  0.8713
   21DOPE   O31 2610   3.343   0.551   6.231  0.8099  0.2188 -0.0834
   21DOPE   C31 2611   3.297   0.442   6.157 -0.1003  0.6254 -0.0119
   21DOPE   O32 2612   3.205   0.368   6.200 -0.5692 -0.2484  0.5773
   21DOPE   C32 2613   3.366   0.425   6.022 -0.3258 -0.6663  0.2223
   21DOPE   H2X 2614   3.448   0.501   6.023  0.0514 -1.0701  1.2134
   21DOPE   H2Y 2615   3.407   0.322   6.020 -0.0213 -0.6001  1.8101
   21DOPE   C23 2616   3.743   0.333   6.226 -0.6968  0.0599  0.3306
   21DOPE   H3R 2617   3.668   0.382   6.160 -0.7599 -0.6963 -0.1606
   21DOPE   H3S 2618   3.719   0.225   6.221 -0.8782 -0.0114  2.0475
   21DOPE   C24 2619   3.885   0.372   6.176  0.1780  0.1260  0.4765
   21DOPE   H4R 2620   3.963   0.341   6.250  0.1934 -0.6546  0.1394
   21DOPE   H4S 2621   3.901   0.482   6.179  0.2539  0.1474 -0.4790
   21DOPE   C25 2622   3.908   0.313   6.034  0.0217 -0.7731 -0.3610
   21DOPE   H5R 2623   3.856   0.357   5.947 -0.0028 -1.5655 -0.7542
   21DOPE   H5S 2624   3.883   0.204   6.034 -4.3054  0.0453 -0.0592
   21DOPE   C26 2625   4.058   0.319   6.010 -0.1781 -0.5411 -0.0330
   21DOPE   H6R 2626   4.106   0.278   6.102  1.5219 -1.4287 -1.2607
   21DOPE   H6S 2627   4.095   0.424   6.011  2.3828 -1.3620  0.7787
   21DOPE   C27 2628   4.106   0.243   5.891  0.6298  0.9322  0.2488
   21DOPE   H7R 2629   4.084   0.296   5.796  2.3814  1.6176  0.1922
   21DOPE   H7S 2630   4.046   0.149   5.885  0.1165  1.3495 -2.5506
   21DOPE   C28 2631   4.258   0.202   5.888  0.7535  0.7486  0.3498
   21DOPE   H8R 2632   4.279   0.138   5.977 -2.5020 -1.6458 -0.4250
   21DOPE   H8S 2633   4.331   0.285   5.901  0.9515  0.4361  1.3017
   21DOPE   C29 2634   4.290   0.124   5.760  0.4319  0.0782 -0.0294
   21DOPE   H9R 2635   4.270   0.016   5.761 -0.4846  0.2349 -0.3738
   21DOPE  C210 2636   4.365   0.175   5.663  0.2184  0.3063  0.4588
   21DOPE  H10R 2637   4.385   0.106   5.579 -1.0785  0.5042 -0.0338
   21DOPE  C211 2638   4.430   0.303   5.638 -0.9711 -0.4213  0.0680
   21DOPE  H11R 2639   4.393   0.369   5.720  1.7898  1.1743  0.1222
   21DOPE  H11S 2640   4.393   0.338   5.539  0.3282 -1.2660 -0.7376
   21DOPE  C212 2641   4.586   0.324   5.655  0.0693  0.8712 -0.3420
   21DOPE  H12R 2642   4.615   0.275   5.750  1.2187 -0.5391 -1.3599
   21DOPE  H12S 2643   4.590   0.435   5.661 -1.0606  0.9607 -0.9091
   21DOPE  C213 2644   4.670   0.263   5.539 -0.3400  0.6474 -0.5817
   21DOPE  H13R 2645   4.660   0.152   5.536 -0.8082  0.5445  2.4300
   21DOPE  H13S 2646   4.776   0.284   5.563  0.1366 -1.1517 -0.9645
   21DOPE  C214 2647   4.640   0.332   5.409  0.4708 -0.1181 -0.6418
   21DOPE  H14R 2648   4.625   0.438   5.440 -1.0180 -0.3295 -0.5775
   21DOPE  H14S 2649   4.550   0.286   5.364  0.0464 -1.5184  1.5035
   21DOPE  C215 2650   4.756   0.312   5.311  0.3195 -0.3254 -0.4736
   21DOPE  H15R 2651   4.744   0.208   5.276 -2.0454 -0.2659 -0.0610
   21DOPE  H15S 2652   4.856   0.322   5.358  0.3560 -3.2046  0.2357
   21DOPE  C216 2653   4.750   0.400   5.182  0.3538 -0.2809 -0.3945
   21DOPE  H16R 2654   4.781   0.505   5.202 -0.9938  0.1632 -0.4665
   21DOPE  H16S 2655   4.650   0.413   5.135 -0.8838 -1.5129  1.7435
   21DOPE  C217 2656   4.834   0.344   5.066 -0.1988  0.7792  0.2134
   21DOPE  H17R 2657   4.782   0.343   4.968 -0.4355  1.3622  0.3305
   21DOPE  H17S 2658   4.853   0.240   5.103  2.6046  1.4343  0.8252
   21DOPE  C218 2659   4.971   0.412   5.039 -0.6751  0.1129 -0.2204
   21DOPE  H18R 2660   4.949   0.520   5.030 -1.9149 -0.2068 -1.3989
   21DOPE  H18S 2661   5.031   0.365   4.958  0.2138  2.6713 -1.1219
   21DOPE  H18T 2662   5.026   0.405   5.135 -1.8357  0.2378  0.4689
   21DOPE   C33 2663   3.269   0.463   5.908 -0.1224 -0.2631 -0.7881
   21DOPE   H3X 2664   3.247   0.572   5.904 -2.4443 -0.6768 -0.2808
   21DOPE   H3Y 2665   3.174   0.407   5.919 -0.0828 -0.0315  0.9269
   21DOPE   C34 2666   3.322   0.426   5.761  0.1582 -0.0071  0.4178
   21DOPE   H4X 2667   3.402   0.501   5.741  0.5819 -0.6035 -0.1829
   21DOPE   H4Y 2668   3.366   0.324   5.757  0.3606  0.1242 -0.9050
   21DOPE   C35 2669   3.200   0.434   5.663  0.0865 -0.5589 -0.0712
   21DOPE   H5X 2670   3.148   0.530   5.683 -1.9261 -1.7116  0.4859
   21DOPE   H5Y 2671   3.139   0.349   5.699  0.2339 -0.2245  1.0051
   21DOPE   C36 2672   3.242   0.423   5.515  0.0373 -0.3596  0.0196
   21DOPE   H6X 2673   3.316   0.343   5.493 -0.9362 -1.2762 -0.0309
   21DOPE   H6Y 2674   3.294   0.520   5.501 -2.4991  1.2789  1.1947
   21DOPE   C37 2675   3.122   0.418   5.423 -0.5202 -0.0422 -0.5014
   21DOPE   H7X 2676   3.069   0.321   5.439 -2.4405  1.0104 -0.1119
   21DOPE   H7Y 2677   3.041   0.486   5.459  0.3443  0.8276 -0.1449
   21DOPE   C38 2678   3.152   0.454   5.273  0.1621 -0.5217  0.5512
   21DOPE   H8X 2679   3.216   0.544   5.271  2.2656 -1.9521 -1.3189
   21DOPE   H8Y 2680   3.064   0.490   5.216 -0.0887  0.8457  1.7239
   21DOPE   C39 2681   3.229   0.343   5.193  0.0091 -0.4033 -0.0745
   21DOPE   H9X 2682   3.334   0.333   5.225 -0.1901 -1.8343  0.1801
   21DOPE  C310 2683   3.191   0.284   5.078  0.1085  0.4759 -0.2890
   21DOPE  H10X 2684   3.256   0.206   5.035  0.7987  0.6758  0.3659
   21DOPE  C311 2685   3.049   0.286   5.022 -0.1422 -0.4795 -0.6681
   21DOPE  H11X 2686   3.023   0.186   4.983 -0.6558  0.0509 -1.7118
   21DOPE  H11Y 2687   2.974   0.310   5.100  1.3538 -0.1685  0.7365
   21DOPE  C312 2688   3.038   0.403   4.916  0.1765  0.5486 -0.1615
   21DOPE  H12X 2689   3.101   0.389   4.826  1.3796 -0.0018  0.7382
   21DOPE  H12Y 2690   3.066   0.502   4.958  0.3434  1.1999 -1.7399
   21DOPE  C313 2691   2.887   0.403   4.849  0.1266  0.1230 -0.6122
   21DOPE  H13X 2692   2.822   0.428   4.936 -0.7852  0.7698 -1.4688
   21DOPE  H13Y 2693   2.891   0.486   4.776  2.7679  0.1445 -0.5269
   21DOPE  C314 2694   2.839   0.272   4.784  0.6194  0.0591 -0.2708
   21DOPE  H14X 2695   2.874   0.186   4.846  1.0761 -1.7283 -2.8628
   21DOPE  H14Y 2696   2.885   0.263   4.684 -0.3382  1.5625 -0.8848
   21DOPE  C315 2697   2.686   0.251   4.770 -0.3836  0.2694 -0.1821
   21DOPE  H15X 2698   2.636   0.250   4.869  0.1935 -1.7770  0.1305
   21DOPE  H15Y 2699   2.663   0.153   4.723 -2.1419 -0.4602  2.0456
   21DOPE  C316 2700   2.636   0.370   4.688  0.1862 -0.2661  0.0596
   21DOPE  H16X 2701   2.684   0.383   4.589 -0.4723 -0.4648 -0.2937
   21DOPE  H16Y 2702   2.648   0.458   4.755 -1.9369 -0.1826  0.4117
   21DOPE  C317 2703   2.483   0.360   4.656 -0.0667 -0.6521 -0.4338
   21DOPE  H17X 2704   2.476   0.284   4.575 -0.6552 -2.8193  1.5318
   21DOPE  H17Y 2705   2.422   0.336   4.745 -1.4339 -0.4241 -1.2822
   21DOPE  C318 2706   2.435   0.498   4.601 -0.0277 -0.0303 -0.3201
   21DOPE  H18X 2707   2.340   0.473   4.551  0.5316  0.4706 -1.6852
   21DOPE  H18Y 2708   2.426   0.567   4.688 -0.8849  0.5679 -0.8690
   21DOPE  H18Z 2709   2.498   0.534   4.517 -0.2703 -2.4362 -1.5921
   22DOPE     N 2710   5.230   5.593   6.797  0.0189  0.9191  0.2970
   22DOPE   HN1 2711   5.162   5.622   6.871  0.9926  0.1694  1.5161
   22DOPE   HN2 2712   5.324   5.581   6.838  0.2711  2.8580  0.3822
   22DOPE   HN3 2713   5.235   5.658   6.716 -0.0181 -0.7528 -1.1069
   22DOPE   C12 2714   5.190   5.457   6.742  0.6059 -0.5652 -0.1560
   22DOPE  H12A 2715   5.112   5.466   6.663 -0.7752  1.2381  1.3128
   22DOPE  H12B 2716   5.150   5.396   6.826  1.9748  0.0517  0.9867
   22DOPE   C11 2717   5.322   5.394   6.690 -0.3671 -0.0149  0.2821
   22DOPE  H11A 2718   5.345   5.426   6.586  1.1047  0.6559  0.8003
   22DOPE  H11B 2719   5.299   5.285   6.678 -1.9926  0.2422  0.7831
   22DOPE     P 2720   5.529   5.295   6.829  0.2765 -0.2364 -0.2903
   22DOPE   O13 2721   5.438   5.185   6.867  0.2572 -0.0017  0.5441
   22DOPE   O14 2722   5.607   5.348   6.943 -0.0375  0.0544  0.0960
   22DOPE   O11 2723   5.618   5.252   6.710  0.5502  0.1546 -0.4656
   22DOPE   O12 2724   5.442   5.419   6.771  0.9985  0.2532 -0.2699
   22DOPE    C1 2725   5.559   5.220   6.584  0.5232  0.6951  0.6286
   22DOPE    HA 2726   5.512   5.305   6.531 -0.2063  0.1130  0.3313
   22DOPE    HB 2727   5.474   5.150   6.595  1.4236 -0.1854  2.3233
   22DOPE    C2 2728   5.656   5.149   6.498 -0.1332 -0.0233  0.8457
   22DOPE    HS 2729   5.691   5.060   6.553  0.4800  1.1497  2.4299
   22DOPE   O21 2730   5.772   5.235   6.480 -0.1975  0.7043  0.4218
   22DOPE   C21 2731   5.887   5.182   6.426 -0.4925  0.3772 -0.2306
   22DOPE   O22 2732   5.910   5.062   6.415  0.1091  0.0045 -0.1347
   22DOPE   C22 2733   5.975   5.298   6.383 -0.3803  0.6310  1.1185
   22DOPE   H2R 2734   6.074   5.249   6.370 -1.7535 -2.2257  0.3462
   22DOPE   H2S 2735   5.982   5.377   6.460  2.3948  0.1416  1.4671
   22DOPE    C3 2736   5.592   5.114   6.364 -0.1050  0.3019 -0.4564
   22DOPE    HX 2737   5.570   5.205   6.305 -0.9576 -0.1001 -0.7787
   22DOPE    HY 2738   5.487   5.079   6.380 -0.1429  0.7022  0.1688
   22DOPE   O31 2739   5.662   5.011   6.293 -0.0162 -0.2322  0.3333
   22DOPE   C31 2740   5.657   4.887   6.347  0.0765  0.3736 -0.3323
   22DOPE   O32 2741   5.591   4.855   6.445 -0.2072  0.4186 -0.3135
   22DOPE   C32 2742   5.754   4.798   6.277 -0.3620  0.4317  0.0212
   22DOPE   H2X 2743   5.856   4.843   6.286 -1.1449  2.2194  0.5044
   22DOPE   H2Y 2744   5.757   4.702   6.332 -1.9290  0.1344 -0.3774
   22DOPE   C23 2745   5.927   5.354   6.246  0.1349  0.3947 -0.0169
   22DOPE   H3R 2746   5.984   5.447   6.223 -1.3042  1.4539  0.5745
   22DOPE   H3S 2747   5.820   5.381   6.256  0.3454  1.0563  0.6001
   22DOPE   C24 2748   5.956   5.257   6.131 -0.2836 -0.1915 -1.1201
   22DOPE   H4R 2749   5.878   5.178   6.137 -1.2797  0.8677  0.6238
   22DOPE   H4S 2750   6.058   5.215   6.139  0.2792  1.4483  1.4100
   22DOPE   C25 2751   5.945   5.320   5.993 -0.6454 -1.0463  0.0219
   22DOPE   H5R 2752   6.024   5.398   5.997 -0.9379 -0.7590  0.1938
   22DOPE   H5S 2753   5.848   5.372   5.977 -0.2706 -0.4151 -0.2203
   22DOPE   C26 2754   5.967   5.219   5.873  0.7173  0.4070 -0.1397
   22DOPE   H6R 2755   6.054   5.153   5.894  0.1948 -1.0277 -2.1908
   22DOPE   H6S 2756   5.988   5.277   5.781  2.1322 -2.8686 -2.0594
   22DOPE   C27 2757   5.843   5.126   5.846 -0.1206  0.4733  0.3374
   22DOPE   H7R 2758   5.757   5.196   5.840  1.6958  2.7960 -0.1024
   22DOPE   H7S 2759   5.830   5.060   5.935 -0.8485  0.5993  0.3308
   22DOPE   C28 2760   5.862   5.033   5.727 -0.1049 -0.1117  0.6890
   22DOPE   H8R 2761   5.783   4.955   5.732  1.5837 -1.8492  1.8000
   22DOPE   H8S 2762   5.959   4.979   5.736 -0.2258 -0.3720  0.4502
   22DOPE   C29 2763   5.843   5.119   5.603  0.2425  0.1903  0.0108
   22DOPE   H9R 2764   5.740   5.158   5.596 -0.1208 -0.3892  1.7757
   22DOPE  C210 2765   5.937   5.163   5.517  0.0294  0.1256 -0.0244
   22DOPE  H10R 2766   5.899   5.222   5.433  0.5566  0.2432 -0.1862
   22DOPE  C211 2767   6.081   5.132   5.530 -0.5677  0.4101 -0.0968
   22DOPE  H11R 2768   6.103   5.028   5.563  0.9106  1.1171  1.2600
   22DOPE  H11S 2769   6.120   5.194   5.613  0.0093  0.8288 -0.6726
   22DOPE  C212 2770   6.157   5.161   5.403 -0.7691  0.5221 -0.1262
   22DOPE  H12R 2771   6.123   5.094   5.321  0.7956  0.1395 -0.4930
   22DOPE  H12S 2772   6.261   5.128   5.425 -1.7137 -1.3474  2.0312
   22DOPE  C213 2773   6.154   5.308   5.353 -0.7183 -0.5408  0.1142
   22DOPE  H13R 2774   6.191   5.369   5.438 -1.8309  0.6569 -0.2338
   22DOPE  H13S 2775   6.048   5.339   5.339 -0.5812  0.1135  0.5053
   22DOPE  C214 2776   6.231   5.332   5.223  0.2207  0.3394 -0.0096
   22DOPE  H14R 2777   6.231   5.439   5.193  1.7853 -0.1179 -1.7877
   22DOPE  H14S 2778   6.175   5.279   5.143  1.2439  3.0837 -2.7298
   22DOPE  C215 2779   6.374   5.296   5.229 -0.4596  0.1829 -0.1739
   22DOPE  H15R 2780   6.380   5.185   5.224  0.1638  0.2640 -1.5229
   22DOPE  H15S 2781   6.420   5.342   5.320  1.5979  0.9173 -1.5139
   22DOPE  C216 2782   6.453   5.360   5.114  0.8739  0.3588  0.5922
   22DOPE  H16R 2783   6.403   5.448   5.069  0.9094  0.2256  0.2922
   22DOPE  H16S 2784   6.463   5.286   5.032  0.9206  0.9272  0.0755
   22DOPE  C217 2785   6.596   5.401   5.161 -0.5689 -0.0917 -0.0982
   22DOPE  H17R 2786   6.652   5.394   5.065 -0.8831  0.2157 -0.3072
   22DOPE  H17S 2787   6.646   5.335   5.235  0.1600  1.3131  0.6946
   22DOPE  C218 2788   6.614   5.541   5.219  0.2059  0.2309  0.5587
   22DOPE  H18R 2789   6.718   5.550   5.256  1.5629  0.6358 -2.9145
   22DOPE  H18S 2790   6.548   5.571   5.302  0.5574  1.9259  0.2610
   22DOPE  H18T 2791   6.592   5.607   5.132 -1.2020 -1.5628 -0.5124
   22DOPE   C33 2792   5.727   4.766   6.128 -0.3613  0.1254  0.0730
   22DOPE   H3X 2793   5.824   4.748   6.076 -1.5021 -0.4644 -1.9373
   22DOPE   H3Y 2794   5.683   4.857   6.082  1.0849 -0.3377 -2.3944
   22DOPE   C34 2795   5.647   4.636   6.106 -0.7489  0.3244  0.5642
   22DOPE   H4X 2796   5.705   4.554   6.154 -0.7979  1.3301  2.4116
   22DOPE   H4Y 2797   5.545   4.640   6.148 -1.2124 -2.2685 -0.1118
   22DOPE   C35 2798   5.618   4.596   5.958 -0.3645  0.0475 -1.1626
   22DOPE   H5X 2799   5.617   4.485   5.961  2.5758 -0.0235  0.8752
   22DOPE   H5Y 2800   5.710   4.634   5.909  1.3365 -0.1319  1.7128
   22DOPE   C36 2801   5.498   4.651   5.894 -0.1848 -0.1897 -0.7554
   22DOPE   H6X 2802   5.487   4.760   5.915  2.2196 -0.4397  2.6343
   22DOPE   H6Y 2803   5.408   4.607   5.941 -0.0425  1.2878  1.0386
   22DOPE   C37 2804   5.487   4.616   5.747  0.0236  0.1187 -0.0076
   22DOPE   H7X 2805   5.584   4.637   5.697 -0.3790  2.1184 -0.0494
   22DOPE   H7Y 2806   5.471   4.507   5.739 -2.5726  0.4509  0.0252
   22DOPE   C38 2807   5.372   4.673   5.669 -0.0012  0.0854  0.0601
   22DOPE   H8X 2808   5.270   4.672   5.713 -0.5679 -0.6968 -1.1946
   22DOPE   H8Y 2809   5.371   4.618   5.572 -1.4337  1.6939 -0.9128
   22DOPE   C39 2810   5.395   4.824   5.648 -0.7140 -0.3245 -0.4305
   22DOPE   H9X 2811   5.440   4.867   5.738  0.5526 -0.2225 -1.0853
   22DOPE  C310 2812   5.383   4.893   5.531 -0.2125 -0.4203 -0.1399
   22DOPE  H10X 2813   5.416   4.997   5.525 -0.9319 -0.2278 -0.9961
   22DOPE  C311 2814   5.322   4.847   5.401 -0.3510  0.3783 -0.2243
   22DOPE  H11X 2815   5.395   4.873   5.322 -1.4167 -0.8007 -1.6308
   22DOPE  H11Y 2816   5.306   4.737   5.397  0.5190  0.0950  2.1649
   22DOPE  C312 2817   5.187   4.906   5.368  0.2152  0.3217 -0.2279
   22DOPE  H12X 2818   5.198   5.017   5.368 -2.4082  0.6794 -1.8491
   22DOPE  H12Y 2819   5.114   4.882   5.447 -0.6840  1.7480 -0.5778
   22DOPE  C313 2820   5.124   4.854   5.238  0.1137  0.1295 -0.2193
   22DOPE  H13X 2821   5.036   4.916   5.212 -1.0810 -1.4145  0.0051
   22DOPE  H13Y 2822   5.202   4.867   5.159  2.4681 -1.4262  1.7154
   22DOPE  C314 2823   5.083   4.703   5.240 -0.6042  0.4501 -0.4438
   22DOPE  H14X 2824   5.015   4.694   5.328 -0.8886 -2.2051 -0.8665
   22DOPE  H14Y 2825   5.170   4.643   5.274 -1.5452 -0.3882  0.5436
   22DOPE  C315 2826   5.006   4.660   5.110  1.2291  0.2935 -0.0129
   22DOPE  H15X 2827   4.950   4.569   5.141 -0.0804  0.6571 -1.2220
   22DOPE  H15Y 2828   5.076   4.627   5.029  0.3779 -1.0909 -0.2141
   22DOPE  C316 2829   4.912   4.760   5.048 -0.0074 -0.3983  0.0675
   22DOPE  H16X 2830   4.956   4.858   5.020 -0.6718 -0.4176 -1.1474
   22DOPE  H16Y 2831   4.829   4.781   5.119 -0.3323  0.4331 -0.5296
   22DOPE  C317 2832   4.847   4.710   4.920  0.2840 -0.0839  0.0748
   22DOPE  H17X 2833   4.810   4.606   4.928 -0.9648  0.1242 -2.1948
   22DOPE  H17Y 2834   4.761   4.774   4.888  0.0043 -0.0063  0.9569
   22DOPE  C318 2835   4.944   4.700   4.806  0.0108  0.7858  0.0548
   22DOPE  H18X 2836   5.028   4.630   4.826  1.0964  1.6946 -1.1478
   22DOPE  H18Y 2837   4.900   4.684   4.705 -0.2807  1.1068  0.1295
   22DOPE  H18Z 2838   4.994   4.799   4.797 -0.9392  1.3401  0.7757
   23DOPE     N 2839   4.770   6.690   6.618  0.1370  0.5672  0.6451
   23DOPE   HN1 2840   4.713   6.715   6.534 -0.7162 -0.4178  0.9117
   23DOPE   HN2 2841   4.740   6.743   6.702 -0.2819  3.5307 -1.2269
   23DOPE   HN3 2842   4.867   6.712   6.590 -0.0362 -1.2485 -1.7254
   23DOPE   C12 2843   4.754   6.545   6.657 -0.6558 -0.1474  0.6588
   23DOPE  H12A 2844   4.754   6.490   6.560 -0.3398 -0.6040  0.9172
   23DOPE  H12B 2845   4.661   6.527   6.715 -0.9332  2.0927  0.9854
   23DOPE   C11 2846   4.874   6.491   6.725  0.3804 -0.0080 -0.1332
   23DOPE  H11A 2847   4.968   6.522   6.673  0.4538  1.7362  0.9515
   23DOPE  H11B 2848   4.876   6.380   6.728 -0.8061 -0.0118  1.5757
   23DOPE     P 2849   4.984   6.646   6.910 -0.0155 -0.1701  0.0504
   23DOPE   O13 2850   5.110   6.571   6.938 -0.0452  0.2759  0.0023
   23DOPE   O14 2851   4.924   6.721   7.021 -0.2057 -0.0114  0.3118
   23DOPE   O11 2852   4.995   6.737   6.780  0.3133  0.0329  0.2256
   23DOPE   O12 2853   4.877   6.550   6.856 -0.3564 -0.2887  0.3378
   23DOPE    C1 2854   5.039   6.870   6.787  0.3934  0.2110 -0.2888
   23DOPE    HA 2855   5.140   6.876   6.833 -0.3705  1.8303  1.2768
   23DOPE    HB 2856   4.975   6.932   6.852  0.7357  0.0723  0.1809
   23DOPE    C2 2857   5.061   6.930   6.648 -0.6424  0.3422 -0.3285
   23DOPE    HS 2858   4.966   6.913   6.593 -0.2735 -1.2854 -0.5165
   23DOPE   O21 2859   5.172   6.855   6.589 -0.1811  0.4057  0.3019
   23DOPE   C21 2860   5.135   6.750   6.516 -0.1676 -0.3798 -0.5594
   23DOPE   O22 2861   5.022   6.719   6.486  0.3470  0.0276 -0.2723
   23DOPE   C22 2862   5.261   6.663   6.500  0.0222  0.0032 -0.4371
   23DOPE   H2R 2863   5.285   6.620   6.600 -0.0834  0.8745 -0.0212
   23DOPE   H2S 2864   5.353   6.713   6.463  0.9294  0.0671  1.7210
   23DOPE    C3 2865   5.086   7.088   6.645  0.2802  0.5584  0.2197
   23DOPE    HX 2866   5.192   7.113   6.664  0.6805 -0.5088 -0.5058
   23DOPE    HY 2867   5.024   7.127   6.729  0.3212  2.2338 -0.4880
   23DOPE   O31 2868   5.040   7.137   6.517 -0.2017 -0.1416  0.4094
   23DOPE   C31 2869   5.019   7.268   6.503 -0.4690  0.4028 -0.4500
   23DOPE   O32 2870   5.030   7.351   6.590 -0.4563  0.4012  0.2791
   23DOPE   C32 2871   4.973   7.292   6.360 -0.1477 -0.0363 -0.2392
   23DOPE   H2X 2872   5.058   7.275   6.290 -0.5642 -1.8192 -0.3572
   23DOPE   H2Y 2873   4.902   7.209   6.339  0.8688 -0.5630 -1.7371
   23DOPE   C23 2874   5.233   6.544   6.408 -0.5269 -0.2123 -0.2662
   23DOPE   H3R 2875   5.200   6.569   6.305 -1.2958 -2.0000 -0.4957
   23DOPE   H3S 2876   5.148   6.485   6.448 -0.0628 -1.6340 -1.3079
   23DOPE   C24 2877   5.364   6.457   6.409 -0.2835 -0.7442  0.1060
   23DOPE   H4R 2878   5.334   6.360   6.365  1.5398 -1.1409 -0.3459
   23DOPE   H4S 2879   5.386   6.447   6.518 -0.8623 -2.6497  0.0902
   23DOPE   C25 2880   5.480   6.496   6.314  0.3116 -0.3674 -0.0361
   23DOPE   H5R 2881   5.545   6.568   6.368  0.5753  1.1665 -2.2919
   23DOPE   H5S 2882   5.431   6.535   6.222 -0.2487 -0.4822  0.2070
   23DOPE   C26 2883   5.563   6.374   6.266 -0.2995 -0.7820 -0.3509
   23DOPE   H6R 2884   5.492   6.300   6.223 -0.3646 -0.7062 -0.3738
   23DOPE   H6S 2885   5.609   6.317   6.349 -1.4003 -0.2806  0.6257
   23DOPE   C27 2886   5.666   6.404   6.159 -0.2743 -0.4548 -0.0859
   23DOPE   H7R 2887   5.721   6.308   6.150  1.4539  0.1118  2.9209
   23DOPE   H7S 2888   5.737   6.479   6.200 -0.6837 -1.2344  2.1921
   23DOPE   C28 2889   5.615   6.455   6.023  0.7594 -0.1747  0.8050
   23DOPE   H8R 2890   5.704   6.491   5.967 -0.6476  0.3778 -1.1878
   23DOPE   H8S 2891   5.543   6.537   6.043  0.1080  0.2703 -2.7008
   23DOPE   C29 2892   5.544   6.345   5.952 -0.9805 -0.7011  0.0669
   23DOPE   H9R 2893   5.508   6.263   6.016  0.1244 -0.4071  1.1028
   23DOPE  C210 2894   5.516   6.350   5.819 -0.1461  0.0164  0.1576
   23DOPE  H10R 2895   5.443   6.275   5.784 -0.6059  0.0446  1.0168
   23DOPE  C211 2896   5.563   6.450   5.724 -0.6039 -0.6649 -0.0157
   23DOPE  H11R 2897   5.648   6.514   5.758 -0.3158 -0.5061 -0.9963
   23DOPE  H11S 2898   5.484   6.525   5.702 -1.2821 -1.0134  1.1383
   23DOPE  C212 2899   5.617   6.395   5.592  0.1973  0.8360  1.0455
   23DOPE  H12R 2900   5.688   6.313   5.613  0.5225  0.9616  0.4559
   23DOPE  H12S 2901   5.671   6.476   5.540  0.1043 -0.1716 -0.7154
   23DOPE  C213 2902   5.498   6.345   5.503 -0.1263 -0.0966  0.1697
   23DOPE  H13R 2903   5.439   6.433   5.470 -0.0011  0.0360  0.2992
   23DOPE  H13S 2904   5.444   6.280   5.575  1.9381 -1.7146  0.3580
   23DOPE  C214 2905   5.537   6.271   5.375 -0.4239 -0.7716  0.6420
   23DOPE  H14R 2906   5.437   6.240   5.338 -0.2849 -1.8331  1.0921
   23DOPE  H14S 2907   5.599   6.183   5.403 -0.2162 -0.2172  2.0002
   23DOPE  C215 2908   5.628   6.351   5.275 -0.0997 -0.5800  0.4675
   23DOPE  H15R 2909   5.722   6.365   5.334 -0.0800 -1.9821  0.8056
   23DOPE  H15S 2910   5.576   6.445   5.247  0.1596 -1.0024 -1.5642
   23DOPE  C216 2911   5.667   6.280   5.149 -0.7739  0.7314  0.0616
   23DOPE  H16R 2912   5.577   6.268   5.085 -1.2740  3.1077  0.2438
   23DOPE  H16S 2913   5.726   6.188   5.167  1.9079  2.3567  0.1517
   23DOPE  C217 2914   5.763   6.368   5.058  0.0105  0.0452 -0.5449
   23DOPE  H17R 2915   5.863   6.386   5.101 -0.7477 -0.8511  1.7965
   23DOPE  H17S 2916   5.718   6.469   5.048  1.0980  0.5697 -0.2591
   23DOPE  C218 2917   5.801   6.307   4.927  0.3746  0.1161  0.1641
   23DOPE  H18R 2918   5.826   6.384   4.851  0.2845  1.2780  1.2746
   23DOPE  H18S 2919   5.711   6.251   4.895 -0.1438  0.3459  1.1596
   23DOPE  H18T 2920   5.886   6.236   4.917  0.1796  0.1479 -2.1912
   23DOPE   C33 2921   4.914   7.429   6.348 -0.0167 -0.0035 -0.2449
   23DOPE   H3X 2922   4.986   7.506   6.382 -0.1942  0.6165 -1.2188
   23DOPE   H3Y 2923   4.831   7.445   6.419  0.7254  1.4549  0.3322
   23DOPE   C34 2924   4.869   7.463   6.208 -0.2516  0.5781 -0.2601
   23DOPE   H4X 2925   4.948   7.427   6.139  1.1373 -0.9204  1.9576
   23DOPE   H4Y 2926   4.776   7.404   6.192  0.2769 -1.2818  2.7097
   23DOPE   C35 2927   4.835   7.611   6.183 -0.3818  0.5216  0.2630
   23DOPE   H5X 2928   4.930   7.664   6.205 -0.1820  0.2472  0.0744
   23DOPE   H5Y 2929   4.760   7.655   6.251 -1.1132 -0.5223  0.1417
   23DOPE   C36 2930   4.791   7.633   6.039  0.1367  0.0608  0.0355
   23DOPE   H6X 2931   4.683   7.610   6.026 -0.2663  1.5452  0.5301
   23DOPE   H6Y 2932   4.853   7.559   5.985  0.2881  0.1796  0.0470
   23DOPE   C37 2933   4.821   7.776   5.979 -0.0858 -0.2862  0.3996
   23DOPE   H7X 2934   4.922   7.806   6.016 -0.9069  0.6261  2.0494
   23DOPE   H7Y 2935   4.830   7.760   5.870 -0.1423 -0.9195  0.4823
   23DOPE   C38 2936   4.712   7.882   6.009 -0.3364  0.6520  0.1498
   23DOPE   H8X 2937   4.697   7.885   6.119 -1.1085  2.5291  0.0218
   23DOPE   H8Y 2938   4.610   7.867   5.967  0.5687  0.8127 -2.2772
   23DOPE   C39 2939   4.752   8.023   5.964  0.2050  0.3356  0.5809
   23DOPE   H9X 2940   4.804   8.075   6.046 -0.8457  1.5554  0.4952
   23DOPE  C310 2941   4.710   8.093   5.853 -0.3428  0.5133  0.1510
   23DOPE  H10X 2942   4.755   8.192   5.838  0.2354  0.4412  1.2539
   23DOPE  C311 2943   4.594   8.067   5.758 -0.2058 -0.1537  0.1356
   23DOPE  H11X 2944   4.540   7.972   5.773 -0.6098 -0.1363 -1.0878
   23DOPE  H11Y 2945   4.523   8.153   5.757 -1.8149 -1.4513  0.0259
   23DOPE  C312 2946   4.665   8.057   5.621 -0.0898  0.4169  0.2389
   23DOPE  H12X 2947   4.578   8.044   5.553 -0.7453  1.8856  0.7414
   23DOPE  H12Y 2948   4.725   7.964   5.633 -0.7900  0.1485  2.0367
   23DOPE  C313 2949   4.733   8.185   5.564 -0.1558  0.8820  0.0743
   23DOPE  H13X 2950   4.660   8.265   5.542 -0.3109 -0.0847 -3.6900
   23DOPE  H13Y 2951   4.816   8.219   5.630  0.2992 -2.8404  1.7132
   23DOPE  C314 2952   4.815   8.160   5.430  0.5949  0.6031  0.9289
   23DOPE  H14X 2953   4.905   8.097   5.445 -0.0046 -0.9650 -1.4676
   23DOPE  H14Y 2954   4.850   8.260   5.395  0.6362  1.3326  2.9492
   23DOPE  C315 2955   4.727   8.092   5.327 -0.7733 -0.2756  0.6812
   23DOPE  H15X 2956   4.637   8.153   5.302  0.0710  0.5067 -0.5577
   23DOPE  H15Y 2957   4.687   7.998   5.371 -0.3780 -0.2096  1.1857
   23DOPE  C316 2958   4.802   8.075   5.193  0.4055 -0.7725  0.0300
   23DOPE  H16X 2959   4.870   7.987   5.197  0.7124 -0.5070  0.6664
   23DOPE  H16Y 2960   4.871   8.159   5.174  0.5997 -0.7263  0.9127
   23DOPE  C317 2961   4.703   8.057   5.073 -0.8209  0.6723 -0.3501
   23DOPE  H17X 2962   4.641   7.968   5.095 -1.9933  1.6739  0.5001
   23DOPE  H17Y 2963   4.628   8.139   5.075 -0.5540  0.9020  0.8888
   23DOPE  C318 2964   4.763   8.048   4.932  1.2447 -0.9052 -0.4161
   23DOPE  H18X 2965   4.682   8.072   4.860 -1.0578  0.0079  2.2949
   23DOPE  H18Y 2966   4.854   8.112   4.919  2.3142 -1.8111  1.9058
   23DOPE  H18Z 2967   4.786   7.942   4.907  0.1394 -1.7974  2.0636
   24DOPE     N 2968   6.432   6.259   7.138  1.1395 -0.3246  0.5740
   24DOPE   HN1 2969   6.447   6.362   7.127 -0.0618 -0.1749  0.1959
   24DOPE   HN2 2970   6.338   6.230   7.104  0.8812 -0.5654  1.4792
   24DOPE   HN3 2971   6.422   6.236   7.239  2.1782  0.0909  0.7897
   24DOPE   C12 2972   6.528   6.165   7.074  0.1732  0.3880 -0.9716
   24DOPE  H12A 2973   6.501   6.058   7.085 -0.5968  0.7544  1.0232
   24DOPE  H12B 2974   6.632   6.178   7.111 -0.4047  0.8719  0.5377
   24DOPE   C11 2975   6.536   6.186   6.917 -0.8389  0.5142  0.3527
   24DOPE  H11A 2976   6.430   6.192   6.885 -0.7263  0.3414 -0.0532
   24DOPE  H11B 2977   6.587   6.098   6.873 -0.4370  1.3156 -0.8377
   24DOPE     P 2978   6.754   6.323   6.882 -0.0150 -0.0075 -0.4103
   24DOPE   O13 2979   6.799   6.349   7.021 -0.4491  0.0518  0.6975
   24DOPE   O14 2980   6.792   6.429   6.789 -0.2055 -0.3060 -0.6696
   24DOPE   O11 2981   6.800   6.181   6.833  0.0652 -0.4500 -0.5111
   24DOPE   O12 2982   6.594   6.311   6.877 -0.4852  0.0510 -0.0154
   24DOPE    C1 2983   6.787   6.144   6.697  0.4093  0.0274  0.3541
   24DOPE    HA 2984   6.702   6.192   6.643  1.4066 -0.1618 -1.4852
   24DOPE    HB 2985   6.758   6.037   6.698  3.1580 -0.7866  0.9673
   24DOPE    C2 2986   6.919   6.141   6.618  0.0272 -0.4174  0.3419
   24DOPE    HS 2987   6.984   6.228   6.640  3.1888 -2.0781 -1.6182
   24DOPE   O21 2988   6.885   6.123   6.480 -0.1625  0.2665 -0.6109
   24DOPE   C21 2989   6.880   6.230   6.405 -0.4465 -0.6247 -0.7425
   24DOPE   O22 2990   6.897   6.348   6.445  0.5801  0.2517  0.0162
   24DOPE   C22 2991   6.860   6.181   6.266  0.2531 -0.2386 -0.1177
   24DOPE   H2R 2992   6.787   6.097   6.271 -0.3084  0.3089  1.7417
   24DOPE   H2S 2993   6.957   6.141   6.230  0.6221  0.9025 -0.4280
   24DOPE    C3 2994   7.008   6.018   6.662 -0.1439  0.0848  0.5172
   24DOPE    HX 2995   6.943   5.930   6.641  1.5691 -0.7882 -1.3978
   24DOPE    HY 2996   7.027   6.024   6.772  0.6490 -0.8308  0.4416
   24DOPE   O31 2997   7.134   6.008   6.586 -0.0586 -0.2335  0.0344
   24DOPE   C31 2998   7.188   5.881   6.582 -0.5331 -0.4397 -0.3070
   24DOPE   O32 2999   7.153   5.793   6.661 -0.6590  0.4127 -0.3922
   24DOPE   C32 3000   7.286   5.873   6.472 -0.4074  0.0454 -0.5116
   24DOPE   H2X 3001   7.238   5.916   6.381 -0.1368  0.8524 -0.2849
   24DOPE   H2Y 3002   7.367   5.947   6.488 -0.0844 -0.0060 -1.8262
   24DOPE   C23 3003   6.821   6.296   6.167 -0.3936 -0.1595 -0.1589
   24DOPE   H3R 3004   6.904   6.369   6.160  0.3039 -1.0624 -1.6586
   24DOPE   H3S 3005   6.738   6.358   6.207  1.0387  0.6999  1.6146
   24DOPE   C24 3006   6.805   6.248   6.023  0.0038 -0.2847  0.0491
   24DOPE   H4R 3007   6.716   6.182   6.012 -0.7893  0.9871 -1.4558
   24DOPE   H4S 3008   6.885   6.178   5.991  0.2675 -0.6399  1.4274
   24DOPE   C25 3009   6.788   6.369   5.925  0.2787  0.1137 -0.0167
   24DOPE   H5R 3010   6.870   6.439   5.951  2.7937 -2.0190 -1.7295
   24DOPE   H5S 3011   6.688   6.413   5.946 -0.4791 -0.9847 -1.2339
   24DOPE   C26 3012   6.800   6.325   5.777 -0.9035 -0.0313  0.1574
   24DOPE   H6R 3013   6.716   6.254   5.765 -0.5968 -0.2457 -0.8638
   24DOPE   H6S 3014   6.892   6.264   5.770  0.0117  1.2171  0.8256
   24DOPE   C27 3015   6.788   6.437   5.669  0.0381 -0.4332 -0.4043
   24DOPE   H7R 3016   6.875   6.506   5.665 -0.9903  0.8618 -1.4680
   24DOPE   H7S 3017   6.702   6.501   5.698 -0.1654 -0.1822 -1.4988
   24DOPE   C28 3018   6.770   6.376   5.527 -0.1263  0.0901  0.1858
   24DOPE   H8R 3019   6.744   6.462   5.461 -3.0392  0.1638  1.2854
   24DOPE   H8S 3020   6.685   6.304   5.531  1.1556 -1.6446 -1.5589
   24DOPE   C29 3021   6.888   6.306   5.481 -0.7431  0.5856  0.2470
   24DOPE   H9R 3022   6.893   6.200   5.511 -0.3085  1.2467  2.6980
   24DOPE  C210 3023   6.989   6.356   5.406  0.8020 -0.8009 -0.0227
   24DOPE  H10R 3024   7.080   6.296   5.394 -0.3333 -2.7353  0.5006
   24DOPE  C211 3025   6.997   6.501   5.360 -0.1068  0.6397  0.4114
   24DOPE  H11R 3026   7.067   6.551   5.430 -0.1484 -0.2078  1.0773
   24DOPE  H11S 3027   6.901   6.553   5.377 -0.1704  0.2647  1.2749
   24DOPE  C212 3028   7.037   6.509   5.214 -0.0899 -0.6540  0.1968
   24DOPE  H12R 3029   6.954   6.478   5.147  0.5643 -0.0669 -0.9167
   24DOPE  H12S 3030   7.121   6.444   5.182  0.8948  0.9617 -0.6190
   24DOPE  C213 3031   7.090   6.647   5.168  0.6575  0.2041  0.0719
   24DOPE  H13R 3032   7.126   6.632   5.064  1.8790  1.4727  0.2803
   24DOPE  H13S 3033   7.176   6.674   5.233 -0.1926  1.9236  0.5509
   24DOPE  C214 3034   6.991   6.768   5.178  0.0588 -1.2556 -0.2930
   24DOPE  H14R 3035   6.979   6.797   5.284  0.8033  0.6522 -0.7032
   24DOPE  H14S 3036   6.895   6.731   5.136 -0.4958  0.3975 -0.5578
   24DOPE  C215 3037   7.026   6.888   5.087  0.0158 -0.5638 -0.0935
   24DOPE  H15R 3038   7.051   6.850   4.986  2.7498 -1.3113  0.7732
   24DOPE  H15S 3039   7.116   6.943   5.125 -0.5919 -0.5379  1.3693
   24DOPE  C216 3040   6.909   6.988   5.090  0.0864 -0.3194 -0.3672
   24DOPE  H16R 3041   6.922   7.050   5.181 -0.2326 -2.3850  1.1482
   24DOPE  H16S 3042   6.808   6.943   5.093  0.2752 -0.6890  1.2605
   24DOPE  C217 3043   6.929   7.095   4.979 -0.3831 -0.4996 -0.0982
   24DOPE  H17R 3044   6.942   7.036   4.885 -0.2022 -1.4030  0.4739
   24DOPE  H17S 3045   7.018   7.159   4.994 -1.5910  1.1296  0.4372
   24DOPE  C218 3046   6.806   7.181   4.971  0.4291  0.2498  0.9888
   24DOPE  H18R 3047   6.806   7.252   4.885 -0.4527  0.9090  1.5180
   24DOPE  H18S 3048   6.793   7.230   5.070  2.4876 -2.8183  2.9628
   24DOPE  H18T 3049   6.724   7.107   4.960 -1.2034  2.3125 -2.9500
   24DOPE   C33 3050   7.337   5.730   6.457 -0.2110  0.1167 -0.3095
   24DOPE   H3X 3051   7.252   5.665   6.427  1.2159 -1.3783 -1.3053
   24DOPE   H3Y 3052   7.390   5.699   6.550 -1.9096 -2.5488 -0.1343
   24DOPE   C34 3053   7.437   5.720   6.338 -0.1495 -0.6927 -0.3707
   24DOPE   H4X 3054   7.521   5.790   6.357 -1.1992  0.5248 -0.0795
   24DOPE   H4Y 3055   7.466   5.613   6.335  1.4061 -0.3529  0.9637
   24DOPE   C35 3056   7.382   5.750   6.197 -0.0921  0.0081 -0.8465
   24DOPE   H5X 3057   7.460   5.786   6.126  0.1412 -1.7908 -1.5563
   24DOPE   H5Y 3058   7.301   5.826   6.196 -0.1513 -0.0435 -0.0839
   24DOPE   C36 3059   7.303   5.629   6.136  0.1703 -0.1530  0.3363
   24DOPE   H6X 3060   7.232   5.593   6.214 -0.9514  1.1275 -0.0595
   24DOPE   H6Y 3061   7.370   5.544   6.111 -1.2588 -1.3860  0.5969
   24DOPE   C37 3062   7.224   5.653   6.007 -0.3711  0.2028  0.0474
   24DOPE   H7X 3063   7.135   5.590   5.984 -1.2014  1.0213  0.9218
   24DOPE   H7Y 3064   7.157   5.737   6.034 -2.2078 -1.5134  1.1346
   24DOPE   C38 3065   7.299   5.686   5.874 -0.5211  0.0231 -0.4083
   24DOPE   H8X 3066   7.364   5.771   5.904 -0.0329 -0.4963  0.0216
   24DOPE   H8Y 3067   7.229   5.722   5.797 -0.6056 -0.0432 -0.3635
   24DOPE   C39 3068   7.378   5.570   5.812 -0.3941  0.5363 -0.7970
   24DOPE   H9X 3069   7.446   5.521   5.883 -0.3909 -0.6689 -1.6038
   24DOPE  C310 3070   7.382   5.534   5.680 -0.3227  0.8793 -0.0392
   24DOPE  H10X 3071   7.447   5.454   5.643 -1.2043  0.1982 -0.1438
   24DOPE  C311 3072   7.303   5.586   5.558 -0.4798  0.2899 -0.3901
   24DOPE  H11X 3073   7.268   5.496   5.505  1.8957 -1.3581  0.6644
   24DOPE  H11Y 3074   7.229   5.657   5.602  2.2424  2.7986  0.4521
   24DOPE  C312 3075   7.391   5.653   5.455  0.1043  0.3507 -0.5813
   24DOPE  H12X 3076   7.482   5.588   5.452 -0.0753 -0.1848  2.3209
   24DOPE  H12Y 3077   7.435   5.741   5.507 -0.5659  0.6837 -0.5778
   24DOPE  C313 3078   7.310   5.687   5.330  0.7261  0.0177 -0.1159
   24DOPE  H13X 3079   7.250   5.601   5.295 -1.7470  2.3065 -1.9982
   24DOPE  H13Y 3080   7.241   5.771   5.353  0.4844 -0.6557  1.7363
   24DOPE  C314 3081   7.402   5.733   5.217 -0.0393 -0.0012  0.0275
   24DOPE  H14X 3082   7.478   5.653   5.207  0.2033  0.3545 -1.0486
   24DOPE  H14Y 3083   7.453   5.829   5.241 -0.2966  0.1998 -0.2252
   24DOPE  C315 3084   7.330   5.744   5.080 -0.6002  0.2056 -0.2375
   24DOPE  H15X 3085   7.237   5.803   5.089 -0.4830  0.7539 -2.1888
   24DOPE  H15Y 3086   7.305   5.639   5.052  0.5786 -0.0084 -0.5579
   24DOPE  C316 3087   7.426   5.785   4.974 -0.3730 -0.9380  0.3258
   24DOPE  H16X 3088   7.509   5.711   4.985  0.6898  0.4598  2.3358
   24DOPE  H16Y 3089   7.451   5.888   5.006 -0.7168 -0.7184 -0.0977
   24DOPE  C317 3090   7.360   5.778   4.837  0.3559 -0.0071 -0.1734
   24DOPE  H17X 3091   7.300   5.688   4.809 -2.1291  2.3396 -3.0694
   24DOPE  H17Y 3092   7.285   5.859   4.833 -0.0700 -0.4382 -1.4898
   24DOPE  C318 3093   7.452   5.809   4.725 -1.1168  0.3869 -0.1448
   24DOPE  H18X 3094   7.534   5.738   4.701  1.3290  2.0852  2.4695
   24DOPE  H18Y 3095   7.392   5.807   4.632  1.0532  1.8923 -1.6802
   24DOPE  H18Z 3096   7.493   5.912   4.734 -1.5330  0.4851  0.7335
   25DOPE     N 3097   0.649   5.915   7.050 -0.3216 -0.0779 -0.2048
   25DOPE   HN1 3098   0.740   5.945   7.091  0.1162 -0.3542 -0.9542
   25DOPE   HN2 3099   0.568   5.940   7.110 -0.9488 -1.0833 -0.6044
   25DOPE   HN3 3100   0.651   5.811   7.041  0.7540  0.1145 -3.3089
   25DOPE   C12 3101   0.635   5.980   6.915 -0.2114  0.5517  0.5995
   25DOPE  H12A 3102   0.542   5.935   6.874  0.2940 -0.7868  0.8547
   25DOPE  H12B 3103   0.717   5.940   6.852 -0.1500  0.8783  0.4715
   25DOPE   C11 3104   0.642   6.136   6.915 -0.6350 -0.2777 -0.0466
   25DOPE  H11A 3105   0.630   6.180   6.814  3.7142  0.1836 -0.5895
   25DOPE  H11B 3106   0.747   6.169   6.933  0.0115 -0.8722 -2.4087
   25DOPE     P 3107   0.403   6.212   6.993  0.3427  0.0403  0.6428
   25DOPE   O13 3108   0.352   6.332   7.072 -0.1236 -0.0951 -0.1519
   25DOPE   O14 3109   0.343   6.079   7.014  0.2883  0.6881  0.1943
   25DOPE   O11 3110   0.401   6.245   6.840  0.2228  0.5804 -0.7329
   25DOPE   O12 3111   0.553   6.199   7.013  0.2364  0.5250  0.6245
   25DOPE    C1 3112   0.425   6.379   6.788  0.5653 -0.3049  0.0051
   25DOPE    HA 3113   0.529   6.413   6.806  1.0790 -0.8271 -1.7258
   25DOPE    HB 3114   0.359   6.458   6.829  1.0655  2.2120 -3.5704
   25DOPE    C2 3115   0.398   6.368   6.638  0.1736  0.2287  0.3443
   25DOPE    HS 3116   0.415   6.470   6.597  1.7931 -0.2214 -0.1942
   25DOPE   O21 3117   0.260   6.323   6.612 -0.1926  0.4301  0.4173
   25DOPE   C21 3118   0.160   6.411   6.645 -0.6450  0.4195  0.6674
   25DOPE   O22 3119   0.177   6.523   6.682  0.0038  0.4056 -0.1839
   25DOPE   C22 3120   0.024   6.351   6.613 -0.5704  0.1029  0.4842
   25DOPE   H2R 3121  -0.023   6.357   6.713  2.8053 -0.5376  2.2465
   25DOPE   H2S 3122   0.023   6.242   6.591 -0.3765 -0.0716  1.2910
   25DOPE    C3 3123   0.490   6.256   6.574  0.2334 -0.6863  0.1717
   25DOPE    HX 3124   0.483   6.152   6.611 -0.6244 -0.3515  1.0098
   25DOPE    HY 3125   0.594   6.277   6.606  0.5786  1.2563 -1.9615
   25DOPE   O31 3126   0.493   6.272   6.431  0.1288  0.7505  0.2733
   25DOPE   C31 3127   0.410   6.191   6.376  0.3870  0.0325  0.2678
   25DOPE   O32 3128   0.325   6.125   6.433 -0.0822 -0.6944 -0.2197
   25DOPE   C32 3129   0.446   6.170   6.229  0.2973  0.4791 -0.2849
   25DOPE   H2X 3130   0.394   6.255   6.179 -2.7172 -0.1179  1.5885
   25DOPE   H2Y 3131   0.557   6.175   6.222  0.6380 -0.4248  2.9089
   25DOPE   C23 3132  -0.055   6.431   6.501  0.4864  0.1307  0.0029
   25DOPE   H3R 3133  -0.034   6.540   6.504  1.1251  0.0743 -1.3507
   25DOPE   H3S 3134  -0.163   6.424   6.527  0.6398  1.2435  1.0437
   25DOPE   C24 3135  -0.052   6.375   6.354  0.2951  0.5030 -0.0501
   25DOPE   H4R 3136  -0.139   6.420   6.302 -1.7923  0.2323  2.9800
   25DOPE   H4S 3137  -0.076   6.267   6.367  0.5064  0.4406 -0.1592
   25DOPE   C25 3138   0.080   6.389   6.277  0.1949 -0.4370 -0.1286
   25DOPE   H5R 3139   0.163   6.333   6.324  0.0089 -0.5951  0.0117
   25DOPE   H5S 3140   0.102   6.498   6.278  2.0158 -0.7849 -0.1794
   25DOPE   C26 3141   0.065   6.349   6.130 -0.4820 -0.3096  0.1787
   25DOPE   H6R 3142   0.164   6.341   6.079  0.3410 -0.1402  1.7045
   25DOPE   H6S 3143   0.008   6.421   6.068  1.5239  0.3538 -0.9933
   25DOPE   C27 3144   0.008   6.210   6.112 -0.0651  0.0092  0.3501
   25DOPE   H7R 3145  -0.095   6.209   6.155  0.3221  1.3415  1.3917
   25DOPE   H7S 3146   0.064   6.135   6.173  0.2335  0.4540  0.6301
   25DOPE   C28 3147  -0.004   6.161   5.966 -0.4321 -0.0089 -0.3054
   25DOPE   H8R 3148  -0.038   6.055   5.969 -2.6234  0.6590  1.2866
   25DOPE   H8S 3149   0.098   6.166   5.922  1.6823  0.6732  4.1261
   25DOPE   C29 3150  -0.097   6.226   5.866 -0.1058 -0.5514 -0.0125
   25DOPE   H9R 3151  -0.111   6.331   5.893 -1.2984 -0.5384 -0.6307
   25DOPE  C210 3152  -0.128   6.179   5.745 -0.0338  0.2476  1.1855
   25DOPE  H10R 3153  -0.191   6.244   5.683 -1.3705  0.0979  2.3366
   25DOPE  C211 3154  -0.078   6.043   5.694  0.9041 -0.1897  0.0895
   25DOPE  H11R 3155  -0.156   5.980   5.647  0.8887  0.0185 -0.1656
   25DOPE  H11S 3156  -0.037   5.991   5.783 -0.4482 -0.6333  0.4689
   25DOPE  C212 3157   0.037   6.063   5.592 -1.0466 -0.0427  0.0254
   25DOPE  H12R 3158   0.058   5.965   5.543  2.1442 -0.0071  1.0916
   25DOPE  H12S 3159   0.133   6.085   5.643 -0.0107 -0.5751 -1.6244
   25DOPE  C213 3160   0.004   6.151   5.469  0.4129 -0.5916 -0.1870
   25DOPE  H13R 3161   0.004   6.257   5.503  1.5143 -0.7053  0.2207
   25DOPE  H13S 3162  -0.097   6.131   5.427  1.0611 -2.2066 -1.0854
   25DOPE  C214 3163   0.106   6.143   5.361 -0.5696  1.4498 -0.2466
   25DOPE  H14R 3164   0.144   6.039   5.359 -2.0842  0.7587  2.1856
   25DOPE  H14S 3165   0.197   6.203   5.384  1.1644 -0.5302 -1.5721
   25DOPE  C215 3166   0.057   6.198   5.219 -0.7106 -0.2674 -0.0968
   25DOPE  H15R 3167  -0.000   6.291   5.238 -0.8864 -0.3386 -0.2719
   25DOPE  H15S 3168  -0.017   6.118   5.196 -1.8880  0.6125  0.5308
   25DOPE  C216 3169   0.173   6.215   5.118  0.7394 -0.3912  0.0442
   25DOPE  H16R 3170   0.125   6.243   5.022 -0.8863 -1.5869  0.4594
   25DOPE  H16S 3171   0.211   6.113   5.094  0.0637 -0.0108 -3.1642
   25DOPE  C217 3172   0.285   6.318   5.149  0.4427 -0.9479 -0.1089
   25DOPE  H17R 3173   0.337   6.323   5.051  0.1403  0.0058 -0.2288
   25DOPE  H17S 3174   0.366   6.296   5.222  0.7285  2.1149  0.6573
   25DOPE  C218 3175   0.240   6.468   5.175 -0.0602  0.0936 -0.2160
   25DOPE  H18R 3176   0.201   6.484   5.278 -1.1462  0.6093 -0.6961
   25DOPE  H18S 3177   0.149   6.488   5.116  0.0883 -0.3758 -0.6085
   25DOPE  H18T 3178   0.326   6.537   5.160  1.1633 -1.0856  1.0385
   25DOPE   C33 3179   0.376   6.056   6.160 -0.1446 -0.0662  0.3812
   25DOPE   H3X 3180   0.267   6.038   6.150  0.1029 -0.8302 -1.3183
   25DOPE   H3Y 3181   0.397   5.965   6.220 -0.8963 -1.3659 -1.2417
   25DOPE   C34 3182   0.437   6.038   6.019  0.0947  0.0426  0.1219
   25DOPE   H4X 3183   0.403   6.121   5.954 -1.0996  0.5425  1.3317
   25DOPE   H4Y 3184   0.548   6.042   6.026  0.1995  0.8386 -1.5482
   25DOPE   C35 3185   0.384   5.910   5.949  0.6212 -0.5593 -0.0582
   25DOPE   H5X 3186   0.274   5.921   5.953  0.5698 -0.3039 -1.6542
   25DOPE   H5Y 3187   0.408   5.821   6.012  0.3480 -0.2469  0.4936
   25DOPE   C36 3188   0.438   5.913   5.802  0.1343 -0.1636 -0.3209
   25DOPE   H6X 3189   0.548   5.907   5.808  0.0743  0.2500  2.8030
   25DOPE   H6Y 3190   0.409   6.015   5.769  1.8824  0.4208 -0.1484
   25DOPE   C37 3191   0.369   5.808   5.710 -0.6587  0.6807 -0.1457
   25DOPE   H7X 3192   0.390   5.708   5.755  1.2967  1.4514  0.7876
   25DOPE   H7Y 3193   0.263   5.837   5.695 -0.3326  0.9573 -2.1069
   25DOPE   C38 3194   0.432   5.810   5.567 -0.0234  1.1641 -0.0548
   25DOPE   H8X 3195   0.380   5.723   5.522 -1.2106  1.6172  0.4081
   25DOPE   H8Y 3196   0.543   5.802   5.573 -0.1486  0.1413  1.2322
   25DOPE   C39 3197   0.378   5.931   5.494 -0.7083  0.6323 -0.6424
   25DOPE   H9X 3198   0.269   5.920   5.488 -0.5091 -1.7670 -0.7966
   25DOPE  C310 3199   0.450   6.040   5.449  0.0006 -0.3142  0.0841
   25DOPE  H10X 3200   0.391   6.114   5.393 -1.8311  1.1215  3.5415
   25DOPE  C311 3201   0.595   6.075   5.455  0.1400  0.3763 -0.1457
   25DOPE  H11X 3202   0.634   6.117   5.551 -0.7403  0.4909  0.1728
   25DOPE  H11Y 3203   0.662   5.989   5.437  2.1527  2.0521 -1.1627
   25DOPE  C312 3204   0.632   6.181   5.351 -0.3613 -0.0379  0.6626
   25DOPE  H12X 3205   0.559   6.264   5.342  0.9687  1.1594  0.4146
   25DOPE  H12Y 3206   0.630   6.124   5.256  0.1289 -0.0658  0.6637
   25DOPE  C313 3207   0.768   6.249   5.373 -0.0215  0.1890 -0.0368
   25DOPE  H13X 3208   0.780   6.305   5.468 -0.2815 -1.0951  0.7660
   25DOPE  H13Y 3209   0.841   6.167   5.388 -0.6741  0.0413  2.7445
   25DOPE  C314 3210   0.807   6.335   5.254  0.2454  0.2209  0.4058
   25DOPE  H14X 3211   0.760   6.436   5.250 -1.7559 -0.6737  0.0965
   25DOPE  H14Y 3212   0.773   6.284   5.161  0.6617 -1.2052  1.0076
   25DOPE  C315 3213   0.955   6.361   5.258 -0.3185  0.3544 -0.2176
   25DOPE  H15X 3214   0.990   6.256   5.272 -1.0164  0.1859  0.3288
   25DOPE  H15Y 3215   0.982   6.421   5.347 -0.5034  0.1941 -0.0544
   25DOPE  C316 3216   1.003   6.427   5.126  0.4456  0.4215  0.2029
   25DOPE  H16X 3217   0.946   6.521   5.113 -0.6050 -0.4916 -2.5072
   25DOPE  H16Y 3218   0.979   6.367   5.036 -0.6810  1.0500  0.0625
   25DOPE  C317 3219   1.151   6.464   5.133  0.4719  0.5292  0.0191
   25DOPE  H17X 3220   1.169   6.519   5.229  1.5432  0.6487 -0.2368
   25DOPE  H17Y 3221   1.206   6.368   5.132 -1.1331 -0.4120 -0.8139
   25DOPE  C318 3222   1.196   6.562   5.024  0.3418 -0.0998 -1.2429
   25DOPE  H18X 3223   1.137   6.653   5.046  0.9493  0.2531 -1.0507
   25DOPE  H18Y 3224   1.304   6.580   5.040  0.2433 -0.1969 -0.4174
   25DOPE  H18Z 3225   1.173   6.531   4.920  0.1728  1.6539 -1.7629
   26DOPE     N 3226   6.888   7.142   7.015  0.2357 -0.2158  0.2646
   26DOPE   HN1 3227   6.808   7.078   6.997  0.6588 -1.6544  3.0000
   26DOPE   HN2 3228   6.960   7.097   7.075  0.0846 -0.8215 -0.0024
   26DOPE   HN3 3229   6.839   7.218   7.068  2.1249  1.3137 -0.0571
   26DOPE   C12 3230   6.948   7.192   6.889  0.1294  0.6608 -0.4739
   26DOPE  H12A 3231   6.859   7.241   6.842 -0.9434 -2.3433 -1.8138
   26DOPE  H12B 3232   6.972   7.098   6.835 -1.7637 -1.3564  1.9459
   26DOPE   C11 3233   7.064   7.286   6.909 -0.0123  0.4072  0.0625
   26DOPE  H11A 3234   7.026   7.387   6.937 -0.2406  0.3810 -0.1466
   26DOPE  H11B 3235   7.107   7.290   6.807  1.3181 -0.2200  0.5803
   26DOPE     P 3236   7.271   7.350   7.059  0.0186  0.0613  0.0532
   26DOPE   O13 3237   7.364   7.285   7.158 -0.0712 -0.2918 -0.7152
   26DOPE   O14 3238   7.214   7.478   7.105 -0.0118  0.0682 -0.2070
   26DOPE   O11 3239   7.348   7.378   6.929 -0.4023 -0.1981  0.5694
   26DOPE   O12 3240   7.156   7.251   7.012 -0.1332  0.0054 -0.2946
   26DOPE    C1 3241   7.431   7.280   6.862  0.2340 -0.0210 -0.6997
   26DOPE    HA 3242   7.376   7.240   6.774  0.2535 -0.1499 -0.6541
   26DOPE    HB 3243   7.454   7.192   6.926 -1.5382 -1.4180 -1.8941
   26DOPE    C2 3244   7.559   7.339   6.796 -0.7708 -0.7508  0.5339
   26DOPE    HS 3245   7.617   7.397   6.871  0.5737 -0.7719 -0.4538
   26DOPE   O21 3246   7.520   7.434   6.697 -0.4405 -0.0693 -0.4391
   26DOPE   C21 3247   7.610   7.506   6.625 -0.2723  0.6779 -0.2164
   26DOPE   O22 3248   7.729   7.506   6.637  0.4526  0.8535  0.1912
   26DOPE   C22 3249   7.530   7.601   6.539  0.1493 -0.7576 -0.0083
   26DOPE   H2R 3250   7.495   7.684   6.605 -0.2811 -0.4593 -0.5956
   26DOPE   H2S 3251   7.436   7.553   6.504 -0.1456  0.6107 -1.1845
   26DOPE    C3 3252   7.659   7.221   6.742  0.4250 -0.0112  0.2440
   26DOPE    HX 3253   7.700   7.190   6.840 -1.0647 -0.2663  0.8211
   26DOPE    HY 3254   7.742   7.270   6.686  1.2976  0.8932  2.2428
   26DOPE   O31 3255   7.592   7.120   6.657 -0.5388 -0.6292 -0.6238
   26DOPE   C31 3256   7.622   6.996   6.680 -0.2885 -0.2727 -0.4246
   26DOPE   O32 3257   7.704   6.949   6.760  0.1548 -0.2713 -0.7866
   26DOPE   C32 3258   7.564   6.901   6.587  0.4764 -0.5887 -0.0202
   26DOPE   H2X 3259   7.486   6.845   6.642 -1.5389  0.4263 -1.6994
   26DOPE   H2Y 3260   7.513   6.948   6.501  0.3984  0.6127  0.6729
   26DOPE   C23 3261   7.622   7.657   6.427 -0.0471 -0.0372  0.1695
   26DOPE   H3R 3262   7.661   7.569   6.371 -1.2471  0.2448 -1.1745
   26DOPE   H3S 3263   7.704   7.719   6.469  0.0496  0.4700 -0.7412
   26DOPE   C24 3264   7.543   7.755   6.342 -0.6265  0.3646  0.4404
   26DOPE   H4R 3265   7.516   7.841   6.408 -1.6808  0.1771  0.2544
   26DOPE   H4S 3266   7.444   7.718   6.311 -0.6273 -0.6733  1.5803
   26DOPE   C25 3267   7.625   7.806   6.223 -0.2954  0.1865  0.3293
   26DOPE   H5R 3268   7.728   7.827   6.258 -0.2487 -1.2689  1.1555
   26DOPE   H5S 3269   7.570   7.893   6.182 -1.9633 -2.0205 -2.4553
   26DOPE   C26 3270   7.646   7.695   6.115  0.5314  0.0903 -0.1146
   26DOPE   H6R 3271   7.683   7.598   6.154 -1.1112 -1.1131 -1.4319
   26DOPE   H6S 3272   7.729   7.724   6.047  1.7864 -0.2883  1.1884
   26DOPE   C27 3273   7.526   7.672   6.025  0.1503  0.2821  0.0249
   26DOPE   H7R 3274   7.478   7.769   6.002 -3.0087 -1.0404  0.5837
   26DOPE   H7S 3275   7.463   7.600   6.081 -2.9464  1.5196 -1.6252
   26DOPE   C28 3276   7.551   7.616   5.883 -0.2440 -0.4280  0.4475
   26DOPE   H8R 3277   7.607   7.521   5.891 -1.8240 -1.6382 -1.7788
   26DOPE   H8S 3278   7.614   7.679   5.818 -0.8339 -0.6719 -0.3767
   26DOPE   C29 3279   7.419   7.570   5.821  0.0742  1.2776  0.1803
   26DOPE   H9R 3280   7.370   7.487   5.874 -0.1845  1.4604  0.2278
   26DOPE  C210 3281   7.353   7.626   5.720 -0.1103  0.4633  0.6180
   26DOPE  H10R 3282   7.260   7.574   5.693 -0.8755  1.9015  0.3690
   26DOPE  C211 3283   7.392   7.752   5.653 -0.1125 -0.2439  0.2206
   26DOPE  H11R 3284   7.455   7.815   5.720  0.7063 -2.2588  1.4444
   26DOPE  H11S 3285   7.298   7.805   5.631 -0.9584 -2.5249 -2.3025
   26DOPE  C212 3286   7.467   7.706   5.521  0.3642 -0.1466 -0.4931
   26DOPE  H12R 3287   7.556   7.644   5.544  0.4477  0.4143  0.7982
   26DOPE  H12S 3288   7.504   7.795   5.466  1.5929 -1.0193 -1.1249
   26DOPE  C213 3289   7.377   7.635   5.421  0.0317 -0.5332 -0.1838
   26DOPE  H13R 3290   7.326   7.550   5.469  2.1743 -0.2109  2.9731
   26DOPE  H13S 3291   7.435   7.600   5.332  0.9129 -0.4119  0.3333
   26DOPE  C214 3292   7.269   7.731   5.363  0.5961  0.3108  0.3298
   26DOPE  H14R 3293   7.310   7.831   5.337 -0.5629  0.5332 -0.7477
   26DOPE  H14S 3294   7.198   7.741   5.449 -1.8202 -0.7863 -1.4180
   26DOPE  C215 3295   7.182   7.674   5.254  0.5620  0.8207 -0.5517
   26DOPE  H15R 3296   7.239   7.646   5.163  0.0398  1.8175 -1.1970
   26DOPE  H15S 3297   7.113   7.756   5.227  0.6472  0.4974 -1.8268
   26DOPE  C216 3298   7.105   7.538   5.279 -0.2126 -0.3045 -0.1989
   26DOPE  H16R 3299   7.029   7.559   5.357 -2.2806 -3.2044 -1.2517
   26DOPE  H16S 3300   7.177   7.467   5.327 -0.3652 -0.0884  0.3512
   26DOPE  C217 3301   7.047   7.484   5.142  0.0362  0.0401  0.3939
   26DOPE  H17R 3302   7.019   7.573   5.082 -0.4340 -1.3249 -1.4905
   26DOPE  H17S 3303   6.953   7.427   5.160  0.0312 -0.0356  0.1257
   26DOPE  C218 3304   7.146   7.398   5.059  0.2896 -0.7995 -0.0800
   26DOPE  H18R 3305   7.174   7.309   5.119  2.4248 -0.2601 -0.1996
   26DOPE  H18S 3306   7.237   7.458   5.040  1.3105 -2.4379 -0.5204
   26DOPE  H18T 3307   7.116   7.375   4.954 -0.1105 -0.2886 -0.0841
   26DOPE   C33 3308   7.664   6.792   6.520  0.6461 -0.1319 -0.1802
   26DOPE   H3X 3309   7.699   6.720   6.596  1.2912  1.8343  1.4752
   26DOPE   H3Y 3310   7.760   6.843   6.498  0.1125  1.5084  1.0709
   26DOPE   C34 3311   7.594   6.726   6.402 -0.5799  0.3067  0.5117
   26DOPE   H4X 3312   7.497   6.685   6.437 -2.5445  1.8584 -2.6283
   26DOPE   H4Y 3313   7.552   6.802   6.334 -0.8286 -0.6479 -0.4400
   26DOPE   C35 3314   7.687   6.624   6.325  0.0118  0.8742  0.2922
   26DOPE   H5X 3315   7.653   6.520   6.345 -0.2206  0.6025 -1.3184
   26DOPE   H5Y 3316   7.792   6.641   6.357  0.2043  0.9138 -0.3494
   26DOPE   C36 3317   7.681   6.641   6.175 -0.6539 -0.6937  0.2890
   26DOPE   H6X 3318   7.576   6.647   6.139 -0.2005  1.3316 -0.8783
   26DOPE   H6Y 3319   7.731   6.557   6.122 -0.3983  0.2987 -1.1025
   26DOPE   C37 3320   7.747   6.777   6.138  0.1941  0.2780 -0.2567
   26DOPE   H7X 3321   7.733   6.863   6.207  1.3812  0.8161 -0.6728
   26DOPE   H7Y 3322   7.856   6.765   6.126 -0.0749 -2.1197 -0.9220
   26DOPE   C38 3323   7.693   6.824   5.999 -0.5434 -0.2370  0.6889
   26DOPE   H8X 3324   7.582   6.830   5.998 -0.5963 -1.1543 -0.4302
   26DOPE   H8Y 3325   7.711   6.738   5.931 -1.5457 -1.2176  1.6146
   26DOPE   C39 3326   7.752   6.949   5.936  0.2019 -0.2490 -0.7744
   26DOPE   H9X 3327   7.720   7.045   5.980 -0.0287 -0.6450 -0.0664
   26DOPE  C310 3328   7.842   6.951   5.841 -0.4101  0.4840  0.4969
   26DOPE  H10X 3329   7.887   7.040   5.796  0.8719 -0.6509 -0.5586
   26DOPE  C311 3330   7.906   6.824   5.785  0.4989 -0.1071 -0.4548
   26DOPE  H11X 3331   8.015   6.843   5.775  0.2074  1.9727 -0.1931
   26DOPE  H11Y 3332   7.877   6.732   5.839 -4.0517  0.4618 -1.5615
   26DOPE  C312 3333   7.853   6.803   5.644  0.3245 -0.4365  0.6387
   26DOPE  H12X 3334   7.865   6.887   5.573 -0.6239 -1.6101 -0.9759
   26DOPE  H12Y 3335   7.743   6.805   5.634  0.4523  0.6705 -0.9266
   26DOPE  C313 3336   7.914   6.676   5.573 -0.0394  1.0643  0.6935
   26DOPE  H13X 3337   8.022   6.690   5.548  0.0337 -0.1832  0.2121
   26DOPE  H13Y 3338   7.911   6.585   5.636 -0.7575 -0.9890 -2.1001
   26DOPE  C314 3339   7.851   6.637   5.434 -0.0719 -0.5655 -0.1435
   26DOPE  H14X 3340   7.742   6.621   5.446  0.0770 -2.6523 -1.0506
   26DOPE  H14Y 3341   7.901   6.541   5.408 -1.0928 -0.9105 -0.8545
   26DOPE  C315 3342   7.867   6.747   5.324  0.1174 -0.2647  0.5038
   26DOPE  H15X 3343   7.826   6.846   5.353  1.0608  0.2552  0.1152
   26DOPE  H15Y 3344   7.819   6.722   5.227  3.9128 -1.3074 -1.3054
   26DOPE  C316 3345   8.013   6.768   5.275  0.1331  0.3477  0.0220
   26DOPE  H16X 3346   8.036   6.672   5.224  0.1864 -0.4704  1.5151
   26DOPE  H16Y 3347   8.085   6.762   5.359  0.7503 -1.5732 -0.5869
   26DOPE  C317 3348   8.048   6.893   5.184  0.8820 -0.6577 -0.0095
   26DOPE  H17X 3349   8.000   6.859   5.089  0.0663  0.2223  0.0688
   26DOPE  H17Y 3350   7.995   6.986   5.214 -0.2196 -1.1156 -0.4869
   26DOPE  C318 3351   8.195   6.917   5.158 -0.6910  0.3294 -0.0958
   26DOPE  H18X 3352   8.233   6.991   5.232 -1.3415  0.1289  0.4440
   26DOPE  H18Y 3353   8.244   6.817   5.160  1.0138  1.1456  0.9506
   26DOPE  H18Z 3354   8.200   6.958   5.055  1.0787 -1.2393 -0.7048
   27DOPE     N 3355   5.342   0.216   7.257  0.3534  1.0825 -0.2181
   27DOPE   HN1 3356   5.408   0.225   7.337 -0.2340  0.7275  0.3106
   27DOPE   HN2 3357   5.279   0.299   7.251  0.3553  1.0073 -1.5422
   27DOPE   HN3 3358   5.291   0.128   7.276  2.8436 -0.3941  0.1456
   27DOPE   C12 3359   5.436   0.195   7.146 -0.3658  0.3356  0.9639
   27DOPE  H12A 3360   5.443   0.086   7.126  0.2879  0.6202 -0.5367
   27DOPE  H12B 3361   5.536   0.236   7.174 -0.4813 -0.5753  2.8807
   27DOPE   C11 3362   5.387   0.257   7.013 -0.6824  0.2533 -0.5529
   27DOPE  H11A 3363   5.302   0.205   6.964 -1.4639  0.1015  0.9164
   27DOPE  H11B 3364   5.477   0.244   6.950 -1.0709 -2.4228 -0.6616
   27DOPE     P 3365   5.475   0.502   7.005 -0.1119  0.2288 -0.0863
   27DOPE   O13 3366   5.602   0.466   7.068 -0.4815  0.6798  0.1454
   27DOPE   O14 3367   5.420   0.631   7.051  0.2729 -0.1244  0.0126
   27DOPE   O11 3368   5.496   0.513   6.851 -0.2184  0.7403 -0.1323
   27DOPE   O12 3369   5.357   0.395   7.028 -0.3143 -0.0393  0.2838
   27DOPE    C1 3370   5.385   0.530   6.762  0.0741  0.1932  0.0256
   27DOPE    HA 3371   5.390   0.629   6.713 -0.8482 -0.2865 -1.1014
   27DOPE    HB 3372   5.286   0.526   6.812  0.2416 -1.3357  0.2970
   27DOPE    C2 3373   5.386   0.417   6.651  0.6665  0.1535 -0.3076
   27DOPE    HS 3374   5.384   0.314   6.691  0.2444 -0.3558 -1.5959
   27DOPE   O21 3375   5.502   0.427   6.567  0.0280 -0.7761 -0.0911
   27DOPE   C21 3376   5.611   0.361   6.609  0.4922 -0.2382  0.3995
   27DOPE   O22 3377   5.619   0.285   6.706  0.0161  0.2217  0.0540
   27DOPE   C22 3378   5.718   0.386   6.506  0.9068  0.4322 -1.0356
   27DOPE   H2R 3379   5.813   0.376   6.563 -0.5690  0.2296  1.4990
   27DOPE   H2S 3380   5.704   0.485   6.458  0.7861 -0.3136 -2.6318
   27DOPE    C3 3381   5.252   0.429   6.568  0.0695  0.4549  0.0150
   27DOPE    HX 3382   5.260   0.532   6.527 -0.6394  0.2370 -0.6839
   27DOPE    HY 3383   5.163   0.424   6.635  0.9295  1.2931  1.2889
   27DOPE   O31 3384   5.240   0.317   6.476  0.7436 -0.1427  0.4515
   27DOPE   C31 3385   5.257   0.346   6.348  0.4213 -0.4679  0.2773
   27DOPE   O32 3386   5.290   0.460   6.300 -0.5944  0.3486 -0.0989
   27DOPE   C32 3387   5.249   0.225   6.258 -0.1762 -0.4151 -0.0689
   27DOPE   H2X 3388   5.231   0.142   6.330 -1.7966  1.2367  1.5308
   27DOPE   H2Y 3389   5.160   0.255   6.200 -0.9777  0.8530  1.7379
   27DOPE   C23 3390   5.719   0.280   6.390  0.7402  0.2816 -0.0950
   27DOPE   H3R 3391   5.622   0.277   6.337  1.3537  0.6823 -1.2957
   27DOPE   H3S 3392   5.721   0.180   6.438 -0.5562 -0.9659 -2.4858
   27DOPE   C24 3393   5.826   0.292   6.284  0.1214 -0.2394 -0.1362
   27DOPE   H4R 3394   5.925   0.290   6.336 -0.1405  1.2409  0.4713
   27DOPE   H4S 3395   5.817   0.390   6.232 -0.7231 -0.6964 -0.8886
   27DOPE   C25 3396   5.821   0.183   6.175 -0.6565 -0.2129  0.7184
   27DOPE   H5R 3397   5.728   0.186   6.114  1.3521 -2.0314 -2.6774
   27DOPE   H5S 3398   5.838   0.089   6.231 -0.2974  0.0031  0.9788
   27DOPE   C26 3399   5.931   0.199   6.068  0.0814 -0.2376  0.1733
   27DOPE   H6R 3400   6.030   0.223   6.112  0.3486 -0.5481 -0.2481
   27DOPE   H6S 3401   5.899   0.276   5.995  2.9631  0.4524 -0.4713
   27DOPE   C27 3402   5.959   0.063   6.001 -0.1392 -0.6998  0.8520
   27DOPE   H7R 3403   5.874   0.031   5.938 -0.5330  1.7393  0.0192
   27DOPE   H7S 3404   5.976  -0.006   6.086 -0.6224 -1.9409 -0.0328
   27DOPE   C28 3405   6.086   0.053   5.922 -0.9928  0.0112  0.8707
   27DOPE   H8R 3406   6.099  -0.056   5.902  1.5668  0.3523  0.3159
   27DOPE   H8S 3407   6.179   0.093   5.968  0.2008  0.6106 -1.8890
   27DOPE   C29 3408   6.069   0.133   5.797 -0.0883 -0.1185  0.1687
   27DOPE   H9R 3409   6.049   0.241   5.808  1.8971  0.2832  0.1428
   27DOPE  C210 3410   6.071   0.077   5.672  0.4911  0.2961 -0.2239
   27DOPE  H10R 3411   6.064   0.144   5.585 -1.5370 -0.0567 -0.3834
   27DOPE  C211 3412   6.097  -0.069   5.644  0.7313 -0.7458 -0.0349
   27DOPE  H11R 3413   6.170  -0.109   5.718  1.8765 -0.5556 -1.0373
   27DOPE  H11S 3414   6.134  -0.080   5.540  1.4675 -0.4221  0.1870
   27DOPE  C212 3415   5.973  -0.165   5.673 -0.0920 -0.0027  0.1895
   27DOPE  H12R 3416   5.883  -0.118   5.629 -0.0046  0.7166  0.7674
   27DOPE  H12S 3417   5.958  -0.189   5.781  0.4674  1.6544  0.6582
   27DOPE  C213 3418   5.991  -0.300   5.606 -0.3102 -0.0085  0.3683
   27DOPE  H13R 3419   6.021  -0.292   5.500 -0.9237 -0.7288  0.1223
   27DOPE  H13S 3420   5.891  -0.348   5.600 -1.1316  1.6612  0.1650
   27DOPE  C214 3421   6.086  -0.399   5.679  0.0945  0.3470 -0.2212
   27DOPE  H14R 3422   6.034  -0.427   5.774  0.2883  1.1663  0.1424
   27DOPE  H14S 3423   6.178  -0.346   5.711 -0.9211  1.1213  1.6201
   27DOPE  C215 3424   6.113  -0.525   5.601 -0.2816 -0.9227  0.3564
   27DOPE  H15R 3425   6.159  -0.483   5.509  1.4199 -1.3961  0.9456
   27DOPE  H15S 3426   6.028  -0.590   5.570  0.7777 -2.1760 -0.0176
   27DOPE  C216 3427   6.224  -0.607   5.673 -0.3174 -0.2327 -0.3895
   27DOPE  H16R 3428   6.167  -0.650   5.758 -0.2012  0.7978  0.2273
   27DOPE  H16S 3429   6.305  -0.541   5.709  0.4874 -1.1670 -0.4319
   27DOPE  C217 3430   6.298  -0.714   5.600  0.0038 -0.7421  0.4884
   27DOPE  H17R 3431   6.340  -0.676   5.505  2.2064 -0.6512  1.4507
   27DOPE  H17S 3432   6.228  -0.800   5.588 -2.8076  1.3217  1.1152
   27DOPE  C218 3433   6.413  -0.772   5.681  0.5473  0.2288  0.7474
   27DOPE  H18R 3434   6.476  -0.693   5.729  0.0227  0.1734  1.5524
   27DOPE  H18S 3435   6.482  -0.836   5.622 -0.9507  0.6032 -1.5240
   27DOPE  H18T 3436   6.372  -0.842   5.757  0.6228 -1.2276 -0.5303
   27DOPE   C33 3437   5.375   0.203   6.165 -0.3601  0.1836  0.3367
   27DOPE   H3X 3438   5.451   0.136   6.210 -0.7329 -0.9791 -0.6933
   27DOPE   H3Y 3439   5.424   0.302   6.152 -1.7401  1.4219  3.5879
   27DOPE   C34 3440   5.343   0.149   6.022  0.2984  0.1901  0.8013
   27DOPE   H4X 3441   5.294   0.051   6.036 -1.1176  0.6560 -0.5895
   27DOPE   H4Y 3442   5.259   0.209   5.981  0.8182 -1.4257 -3.0202
   27DOPE   C35 3443   5.468   0.146   5.929  0.9011 -0.4648  0.3168
   27DOPE   H5X 3444   5.554   0.097   5.981 -0.6884 -3.6386  0.1712
   27DOPE   H5Y 3445   5.499   0.253   5.920 -1.8844  0.5363  1.5695
   27DOPE   C36 3446   5.435   0.082   5.796 -0.4892  0.2703  0.4717
   27DOPE   H6X 3447   5.344   0.132   5.755 -1.0905  0.1681  1.6357
   27DOPE   H6Y 3448   5.411  -0.025   5.813 -0.5776  0.0328 -0.9856
   27DOPE   C37 3449   5.550   0.079   5.695 -1.0202 -0.1999  0.0638
   27DOPE   H7X 3450   5.561   0.184   5.662 -1.1862 -0.1106  0.2824
   27DOPE   H7Y 3451   5.644   0.038   5.736 -1.1946 -1.2884 -0.5983
   27DOPE   C38 3452   5.503   0.003   5.574 -0.2350 -0.6896  0.1860
   27DOPE   H8X 3453   5.426   0.056   5.514 -0.6999 -1.1157  0.4039
   27DOPE   H8Y 3454   5.461  -0.089   5.619  1.7929 -0.1724  3.5063
   27DOPE   C39 3455   5.624  -0.011   5.486 -0.1752  0.4641  0.9919
   27DOPE   H9X 3456   5.713  -0.055   5.534  0.3305 -0.3085 -0.5864
   27DOPE  C310 3457   5.635   0.036   5.362  0.5005  0.3245  0.5654
   27DOPE  H10X 3458   5.734   0.032   5.314 -0.6285  0.2965 -1.9294
   27DOPE  C311 3459   5.527   0.109   5.284 -0.4673  0.2511 -0.3218
   27DOPE  H11X 3460   5.421   0.086   5.307 -0.9039  1.3037 -1.1369
   27DOPE  H11Y 3461   5.551   0.217   5.298 -0.1975  0.2160 -0.5134
   27DOPE  C312 3462   5.536   0.069   5.134 -0.1890 -0.0083 -0.1051
   27DOPE  H12X 3463   5.452   0.117   5.080  0.3433  0.1705 -0.7855
   27DOPE  H12Y 3464   5.541  -0.042   5.135  2.4679  0.0666  0.4267
   27DOPE  C313 3465   5.668   0.107   5.056  0.1472  0.2310 -0.1327
   27DOPE  H13X 3466   5.680   0.214   5.081 -1.4957  0.0994  1.4245
   27DOPE  H13Y 3467   5.760   0.064   5.101  0.1555  0.1650 -0.2126
   27DOPE  C314 3468   5.663   0.072   4.909 -1.1868  0.1261 -0.4419
   27DOPE  H14X 3469   5.751   0.114   4.855  1.8862 -1.6234  2.7959
   27DOPE  H14Y 3470   5.568   0.117   4.873 -2.0619  0.8363  2.4921
   27DOPE  C315 3471   5.659  -0.085   4.866 -0.2595 -0.0447 -0.1500
   27DOPE  H15X 3472   5.552  -0.112   4.857 -1.0132  2.3333  0.9352
   27DOPE  H15Y 3473   5.713  -0.148   4.940 -3.4251 -0.4738  1.9756
   27DOPE  C316 3474   5.724  -0.114   4.727 -0.2040  0.0519  0.3815
   27DOPE  H16X 3475   5.712  -0.218   4.690  2.5198  0.6264 -2.6642
   27DOPE  H16Y 3476   5.835  -0.108   4.738 -0.0742  0.7992 -1.0402
   27DOPE  C317 3477   5.687  -0.022   4.609 -0.1727  0.1024  0.0657
   27DOPE  H17X 3478   5.589   0.026   4.626 -0.2235  0.0649 -0.1266
   27DOPE  H17Y 3479   5.760   0.062   4.616 -1.2700  0.9886  1.8286
   27DOPE  C318 3480   5.706  -0.098   4.476 -0.1768 -0.5611 -0.0560
   27DOPE  H18X 3481   5.682  -0.020   4.401  0.1062 -0.4108  0.0101
   27DOPE  H18Y 3482   5.809  -0.129   4.452 -1.1281 -1.0964 -4.1084
   27DOPE  H18Z 3483   5.645  -0.191   4.477  0.3305 -0.9315  2.0202
   28DOPE     N 3484   1.269   6.290   7.252  0.1086  0.1555  0.3436
   28DOPE   HN1 3485   1.300   6.311   7.349 -0.2544  0.3939  0.4135
   28DOPE   HN2 3486   1.272   6.187   7.249  2.3927  0.0376  2.8529
   28DOPE   HN3 3487   1.339   6.323   7.183 -0.3567 -1.2726 -0.8716
   28DOPE   C12 3488   1.132   6.351   7.242  0.4197 -0.2610 -0.3422
   28DOPE  H12A 3489   1.132   6.462   7.238 -0.8594 -0.2118  0.4690
   28DOPE  H12B 3490   1.077   6.332   7.336  0.2170 -1.7875 -0.7499
   28DOPE   C11 3491   1.054   6.297   7.127 -0.2029  0.5100 -0.3415
   28DOPE  H11A 3492   1.098   6.319   7.028 -2.1285 -0.3356 -1.4295
   28DOPE  H11B 3493   0.956   6.350   7.128 -0.2385  0.4738  1.0383
   28DOPE     P 3494   1.031   6.053   7.038  0.5874 -0.1122 -0.0303
   28DOPE   O13 3495   0.924   5.958   7.076 -0.0557  0.1101  0.1356
   28DOPE   O14 3496   1.166   6.002   7.030 -0.7714 -0.6687  0.3372
   28DOPE   O11 3497   0.990   6.135   6.908 -0.9941 -0.2857  0.3320
   28DOPE   O12 3498   1.030   6.159   7.155  0.4345 -0.6025 -0.6518
   28DOPE    C1 3499   1.017   6.087   6.778 -0.1186  0.2178 -0.5804
   28DOPE    HA 3500   0.968   5.991   6.754  0.4044 -0.0562 -0.5820
   28DOPE    HB 3501   1.127   6.076   6.765  0.2400  1.5926  0.9616
   28DOPE    C2 3502   0.966   6.189   6.667 -0.0645  0.2648  0.6393
   28DOPE    HS 3503   0.864   6.220   6.697  0.0592  1.0857  0.2339
   28DOPE   O21 3504   0.971   6.127   6.538 -0.1662  0.3371  0.5791
   28DOPE   C21 3505   0.853   6.077   6.487  0.6461 -0.0937  0.4541
   28DOPE   O22 3506   0.749   6.079   6.539  0.1436  0.0835 -0.0913
   28DOPE   C22 3507   0.878   6.031   6.343 -0.1654 -0.6702  0.5681
   28DOPE   H2R 3508   0.972   5.971   6.340 -0.1567 -0.6287 -0.0391
   28DOPE   H2S 3509   0.905   6.118   6.280  0.3620 -0.6719  0.7859
   28DOPE    C3 3510   1.060   6.313   6.688  0.3004 -0.1656  0.6642
   28DOPE    HX 3511   1.169   6.294   6.686  0.2409 -1.3292  3.6450
   28DOPE    HY 3512   1.045   6.329   6.797 -5.1218 -0.0438  0.1950
   28DOPE   O31 3513   1.025   6.415   6.588 -0.5090  0.1054 -0.1003
   28DOPE   C31 3514   0.913   6.477   6.621  0.2361  0.2356  0.0039
   28DOPE   O32 3515   0.844   6.451   6.717  0.5787 -0.4816  0.1073
   28DOPE   C32 3516   0.890   6.595   6.531 -0.0427 -0.4540  0.3625
   28DOPE   H2X 3517   0.831   6.666   6.591  0.3616  1.2729 -1.1893
   28DOPE   H2Y 3518   0.990   6.642   6.519 -0.6530  1.0826  1.0779
   28DOPE   C23 3519   0.761   5.940   6.283 -0.1583  0.2452  0.2629
   28DOPE   H3R 3520   0.664   5.986   6.312 -0.5803  0.4288 -1.3492
   28DOPE   H3S 3521   0.783   5.839   6.323  1.4045  0.7050  0.6266
   28DOPE   C24 3522   0.767   5.927   6.130  0.1843  0.3458 -0.6916
   28DOPE   H4R 3523   0.746   6.031   6.095 -0.7807  0.1344 -0.7894
   28DOPE   H4S 3524   0.690   5.854   6.095  1.6265 -1.1573 -0.8326
   28DOPE   C25 3525   0.894   5.865   6.084 -0.3237 -0.4687  0.1350
   28DOPE   H5R 3526   0.912   5.766   6.131 -1.1638 -1.4213 -1.4752
   28DOPE   H5S 3527   0.978   5.926   6.124  0.0428 -0.9878  0.1675
   28DOPE   C26 3528   0.903   5.846   5.928  0.2910 -0.0321  0.4356
   28DOPE   H6R 3529   0.853   5.756   5.887  0.8620 -0.5306  0.8141
   28DOPE   H6S 3530   1.012   5.829   5.913  0.3316  0.0008  0.6972
   28DOPE   C27 3531   0.855   5.975   5.843  0.1570  0.1464  0.0507
   28DOPE   H7R 3532   0.918   6.060   5.876  0.9744  0.2022 -1.5601
   28DOPE   H7S 3533   0.746   5.993   5.859  0.0894  0.1966 -0.4620
   28DOPE   C28 3534   0.883   5.963   5.702  0.0211  0.1315  0.1580
   28DOPE   H8R 3535   0.992   5.956   5.681 -0.2463 -0.1557 -1.2511
   28DOPE   H8S 3536   0.853   6.061   5.658  1.5798  0.3591 -0.4622
   28DOPE   C29 3537   0.805   5.854   5.632  0.0103  1.1368  0.3158
   28DOPE   H9R 3538   0.732   5.809   5.702 -0.9236  2.8316  0.5004
   28DOPE  C210 3539   0.841   5.782   5.527 -0.4608 -0.3951  0.2737
   28DOPE  H10R 3540   0.766   5.709   5.493 -0.2122 -0.2543 -0.6014
   28DOPE  C211 3541   0.947   5.825   5.436  0.2999 -0.2714  0.0902
   28DOPE  H11R 3542   1.030   5.752   5.440  0.8416  0.3787  1.1394
   28DOPE  H11S 3543   0.991   5.922   5.465  2.6248 -1.1852 -0.1425
   28DOPE  C212 3544   0.900   5.859   5.289  0.2145  0.7883 -0.3529
   28DOPE  H12R 3545   0.834   5.949   5.289 -0.4301  0.3487  1.0753
   28DOPE  H12S 3546   0.844   5.772   5.247  1.0865  0.0296  0.0414
   28DOPE  C213 3547   1.018   5.898   5.203  0.3775 -0.1276  0.0980
   28DOPE  H13R 3548   1.089   5.814   5.187  0.4638  0.2570 -1.7804
   28DOPE  H13S 3549   1.078   5.970   5.262  1.2028  0.1695 -1.0702
   28DOPE  C214 3550   0.966   5.949   5.064  0.2975  0.6932 -0.0486
   28DOPE  H14R 3551   0.885   6.020   5.091  1.5239  2.1397 -0.0595
   28DOPE  H14S 3552   0.938   5.860   5.004 -0.7290  0.4728  0.7225
   28DOPE  C215 3553   1.081   6.026   4.999  0.1716  0.8451  0.0315
   28DOPE  H15R 3554   1.164   5.954   4.980  0.2194  0.4511  1.6639
   28DOPE  H15S 3555   1.128   6.102   5.064  0.7915  0.6598 -0.1901
   28DOPE  C216 3556   1.034   6.073   4.864  0.4294 -0.2837  0.5502
   28DOPE  H16R 3557   0.966   6.160   4.871 -0.0414 -0.6125  0.0942
   28DOPE  H16S 3558   0.984   5.990   4.811  0.5135 -0.4987  0.8063
   28DOPE  C217 3559   1.149   6.110   4.768  0.1389 -0.2350 -0.1752
   28DOPE  H17R 3560   1.120   6.115   4.661  0.8763 -0.0214 -0.3733
   28DOPE  H17S 3561   1.234   6.040   4.779 -0.0063 -0.5686 -1.1387
   28DOPE  C218 3562   1.210   6.249   4.810 -0.2946 -0.0910 -0.0939
   28DOPE  H18R 3563   1.139   6.334   4.807  0.0864  0.4056  2.4983
   28DOPE  H18S 3564   1.300   6.267   4.747  0.6626 -1.6686  0.7544
   28DOPE  H18T 3565   1.244   6.240   4.915  1.7793 -0.0077 -0.7085
   28DOPE   C33 3566   0.817   6.549   6.404 -0.1483 -0.7004  0.0434
   28DOPE   H3X 3567   0.772   6.629   6.341  0.5433 -1.2305 -1.1625
   28DOPE   H3Y 3568   0.730   6.484   6.427 -0.1883 -0.8850 -0.6046
   28DOPE   C34 3569   0.901   6.468   6.300  0.0843 -0.6590 -0.5521
   28DOPE   H4X 3570   0.980   6.541   6.272 -0.4340  0.3997  0.6258
   28DOPE   H4Y 3571   0.940   6.383   6.360  0.7558 -1.0963 -1.5884
   28DOPE   C35 3572   0.837   6.407   6.177  0.2045 -0.1089 -0.6770
   28DOPE   H5X 3573   0.740   6.366   6.211 -0.0516  0.3332 -0.8728
   28DOPE   H5Y 3574   0.893   6.318   6.140 -1.2012 -1.1811 -0.2850
   28DOPE   C36 3575   0.821   6.513   6.063  0.2307 -0.0863 -0.6641
   28DOPE   H6X 3576   0.904   6.582   6.038 -0.7406  0.8673 -1.3742
   28DOPE   H6Y 3577   0.742   6.581   6.103  1.6919  1.1621  0.1987
   28DOPE   C37 3578   0.795   6.463   5.921  0.2874  0.4030 -0.6568
   28DOPE   H7X 3579   0.784   6.549   5.852  1.2861  0.7033 -0.4667
   28DOPE   H7Y 3580   0.885   6.415   5.875 -1.8538 -1.4278 -3.2510
   28DOPE   C38 3581   0.679   6.359   5.914  0.2144  0.2302 -0.0420
   28DOPE   H8X 3582   0.594   6.396   5.974 -0.9796 -2.0089 -0.2426
   28DOPE   H8Y 3583   0.709   6.260   5.956 -2.8657 -1.4978 -1.5553
   28DOPE   C39 3584   0.640   6.341   5.770 -0.0984  0.4490  0.1071
   28DOPE   H9X 3585   0.723   6.339   5.698 -2.1394  0.1994 -2.4071
   28DOPE  C310 3586   0.510   6.332   5.717 -0.8154  1.0008  0.2377
   28DOPE  H10X 3587   0.490   6.313   5.611 -1.4525 -0.6374  0.6144
   28DOPE  C311 3588   0.370   6.332   5.780  0.0957 -0.4322 -0.0299
   28DOPE  H11X 3589   0.307   6.246   5.750  1.0340 -0.3536 -2.5074
   28DOPE  H11Y 3590   0.390   6.331   5.889  0.8246  0.4191 -0.1413
   28DOPE  C312 3591   0.285   6.455   5.747  0.6996 -0.1942 -0.2532
   28DOPE  H12X 3592   0.349   6.546   5.746  2.1754 -1.1918  0.1592
   28DOPE  H12Y 3593   0.197   6.473   5.813 -1.5627 -0.1874 -3.0476
   28DOPE  C313 3594   0.221   6.435   5.610 -0.1001  0.0089 -0.7073
   28DOPE  H13X 3595   0.301   6.410   5.537  1.2190 -2.9475  1.5598
   28DOPE  H13Y 3596   0.150   6.350   5.621  1.9940 -1.6135  1.1099
   28DOPE  C314 3597   0.141   6.562   5.560 -0.1608  0.7034  0.1226
   28DOPE  H14X 3598   0.104   6.546   5.456  2.0293 -1.0775 -0.4444
   28DOPE  H14Y 3599   0.214   6.644   5.544  0.5102 -0.1233 -1.1202
   28DOPE  C315 3600   0.024   6.606   5.648  0.1432 -0.3398  0.4701
   28DOPE  H15X 3601   0.057   6.617   5.754 -1.7116  1.6736  0.9183
   28DOPE  H15Y 3602  -0.057   6.531   5.637  0.3846 -0.2646 -2.6605
   28DOPE  C316 3603  -0.015   6.749   5.622  0.2025  0.0279  0.1457
   28DOPE  H16X 3604  -0.071   6.746   5.526 -1.2754 -2.0852  0.9796
   28DOPE  H16Y 3605   0.074   6.815   5.616  0.7068 -0.5213  1.2773
   28DOPE  C317 3606  -0.113   6.806   5.726  0.9026 -1.1129  0.3412
   28DOPE  H17X 3607  -0.064   6.821   5.824  1.3511  0.1161 -0.0522
   28DOPE  H17Y 3608  -0.135   6.906   5.684  0.5828 -0.9020  0.9987
   28DOPE  C318 3609  -0.252   6.731   5.732  0.5604  0.2639  0.8996
   28DOPE  H18X 3610  -0.240   6.627   5.767 -0.2794 -0.3348 -0.5031
   28DOPE  H18Y 3611  -0.324   6.789   5.794  1.5217  2.7994 -0.1722
   28DOPE  H18Z 3612  -0.302   6.715   5.633 -1.3340  1.4586  1.6033
   29DOPE     N 3613   0.990   1.684   6.838  0.6119  0.7300  0.4434
   29DOPE   HN1 3614   1.074   1.677   6.778  0.4929  2.5839 -0.0249
   29DOPE   HN2 3615   0.971   1.786   6.853 -1.0527  0.4846  0.2035
   29DOPE   HN3 3616   1.011   1.649   6.934 -0.3760  2.4965  1.3718
   29DOPE   C12 3617   0.866   1.621   6.783 -0.5250 -0.5853  0.4883
   29DOPE  H12A 3618   0.878   1.514   6.759 -0.9431 -0.0739 -2.3782
   29DOPE  H12B 3619   0.843   1.679   6.691 -0.1817  0.1829  0.8743
   29DOPE   C11 3620   0.754   1.645   6.884  0.4547  0.1420 -0.6976
   29DOPE  H11A 3621   0.667   1.598   6.831  1.2531 -0.3605 -1.5992
   29DOPE  H11B 3622   0.729   1.753   6.887 -2.4474 -0.4520  0.5722
   29DOPE     P 3623   0.770   1.446   7.037 -0.1834  0.6463 -0.0443
   29DOPE   O13 3624   0.667   1.427   7.143 -0.4771  0.3520 -0.4139
   29DOPE   O14 3625   0.903   1.385   7.070  0.2766  0.1997  0.0148
   29DOPE   O11 3626   0.726   1.381   6.903  0.0698  0.1448  0.0248
   29DOPE   O12 3627   0.789   1.599   7.017  0.2032 -0.3100  0.4528
   29DOPE    C1 3628   0.608   1.305   6.887  0.5421 -0.0328  0.3323
   29DOPE    HA 3629   0.520   1.373   6.885  0.2745 -0.3495  1.1124
   29DOPE    HB 3630   0.587   1.235   6.970 -1.7988  0.1425 -0.0378
   29DOPE    C2 3631   0.611   1.221   6.749 -0.3384 -0.0926 -0.1656
   29DOPE    HS 3632   0.559   1.125   6.769  2.9854 -1.9371  0.4022
   29DOPE   O21 3633   0.741   1.192   6.704 -0.2945 -0.2468 -0.2022
   29DOPE   C21 3634   0.807   1.120   6.796  0.0391  1.0168  0.0085
   29DOPE   O22 3635   0.758   1.065   6.891 -0.2697  0.2369 -0.1922
   29DOPE   C22 3636   0.953   1.111   6.758 -0.8281 -0.2939  0.2313
   29DOPE   H2R 3637   1.000   1.084   6.855  0.7891  0.0996 -0.4029
   29DOPE   H2S 3638   0.995   1.208   6.724  1.3814 -1.5768 -1.0038
   29DOPE    C3 3639   0.532   1.308   6.641 -0.1339  0.6137 -0.2392
   29DOPE    HX 3640   0.587   1.404   6.632  2.3285 -0.6664  0.2334
   29DOPE    HY 3641   0.429   1.324   6.679  0.1097  0.9091  0.3071
   29DOPE   O31 3642   0.538   1.255   6.505  0.9115  0.4294  0.0704
   29DOPE   C31 3643   0.495   1.135   6.491 -0.1534 -0.0223 -0.1637
   29DOPE   O32 3644   0.439   1.060   6.565 -0.9373 -0.4289 -0.2220
   29DOPE   C32 3645   0.557   1.090   6.352  0.8237  0.4664  0.2238
   29DOPE   H2X 3646   0.538   1.169   6.277 -1.2893 -1.4042 -1.3147
   29DOPE   H2Y 3647   0.666   1.096   6.376  0.5740  1.4943  1.1896
   29DOPE   C23 3648   0.966   1.007   6.643 -0.7311  0.0964  0.1176
   29DOPE   H3R 3649   0.896   0.921   6.656 -0.6800  0.1223  0.5935
   29DOPE   H3S 3650   1.067   0.963   6.657 -0.8610 -0.2680 -0.0749
   29DOPE   C24 3651   0.961   1.068   6.505 -0.2651 -0.3214  0.0388
   29DOPE   H4R 3652   1.051   1.131   6.490 -0.9793  0.4527 -1.2121
   29DOPE   H4S 3653   0.871   1.132   6.492 -0.2737 -0.2982  0.2089
   29DOPE   C25 3654   0.936   0.955   6.403 -0.9394 -0.6141 -0.3244
   29DOPE   H5R 3655   0.837   0.913   6.430 -0.2942 -0.8276  1.8811
   29DOPE   H5S 3656   1.006   0.870   6.416 -2.6604 -1.8345  1.3539
   29DOPE   C26 3657   0.935   1.008   6.258  0.4064 -0.4589 -0.1787
   29DOPE   H6R 3658   1.022   1.074   6.237  1.2970 -0.8371  2.0286
   29DOPE   H6S 3659   0.847   1.075   6.251  0.2558 -0.4713  1.2924
   29DOPE   C27 3660   0.926   0.902   6.152  0.0064 -0.1038 -0.2306
   29DOPE   H7R 3661   0.861   0.829   6.204  1.1075  0.7445  2.5254
   29DOPE   H7S 3662   1.019   0.845   6.135  1.3163  2.0714 -0.8332
   29DOPE   C28 3663   0.878   0.939   6.012 -0.3665  0.9201 -0.1460
   29DOPE   H8R 3664   0.789   1.004   6.028 -1.1437 -0.4153  1.1228
   29DOPE   H8S 3665   0.836   0.851   5.958 -2.8798 -0.1388  3.2329
   29DOPE   C29 3666   0.984   1.006   5.932  0.2890  0.4394  0.0819
   29DOPE   H9R 3667   1.061   1.048   5.998 -0.0369 -1.1208  1.4981
   29DOPE  C210 3668   1.014   0.999   5.800 -0.7423 -0.6031 -0.6697
   29DOPE  H10R 3669   1.106   1.042   5.758 -0.0990 -1.0296  0.2828
   29DOPE  C211 3670   0.926   0.925   5.700  0.2096 -0.2129 -0.3249
   29DOPE  H11R 3671   0.822   0.962   5.700  0.4172  0.4375  0.6581
   29DOPE  H11S 3672   0.923   0.815   5.713  0.9686 -0.0930  1.1928
   29DOPE  C212 3673   0.988   0.958   5.566 -0.0590 -0.8491  0.8504
   29DOPE  H12R 3674   1.096   0.931   5.563  1.0992  2.8877 -3.2731
   29DOPE  H12S 3675   0.987   1.066   5.539 -1.0321 -0.9734  0.3251
   29DOPE  C213 3676   0.932   0.887   5.435 -0.5523 -0.7528 -0.3239
   29DOPE  H13R 3677   0.824   0.889   5.412 -0.6576 -1.4263  0.1029
   29DOPE  H13S 3678   0.950   0.780   5.456 -1.0186 -1.2838 -2.4027
   29DOPE  C214 3679   1.015   0.904   5.306  0.5853  0.3032  0.1574
   29DOPE  H14R 3680   1.121   0.880   5.328  0.3793 -0.2925  0.5298
   29DOPE  H14S 3681   1.000   1.010   5.277  0.3101 -0.2377 -1.8190
   29DOPE  C215 3682   0.957   0.831   5.184  0.3615 -0.0480  0.4265
   29DOPE  H15R 3683   0.855   0.874   5.176  0.6745  1.0697  1.8126
   29DOPE  H15S 3684   0.962   0.721   5.181 -1.2635 -0.1717 -3.5663
   29DOPE  C216 3685   1.033   0.866   5.052  0.2755  0.6605 -0.3596
   29DOPE  H16R 3686   1.039   0.976   5.046  3.4938  0.7165  1.6536
   29DOPE  H16S 3687   0.983   0.818   4.965  0.3617 -0.8719  0.3930
   29DOPE  C217 3688   1.172   0.801   5.052  0.1247 -0.0180 -0.0881
   29DOPE  H17R 3689   1.178   0.703   5.104 -0.2396  0.0490  0.0810
   29DOPE  H17S 3690   1.247   0.872   5.093 -2.2290  1.6561  1.4927
   29DOPE  C218 3691   1.226   0.774   4.908  0.2686  0.9872 -0.1439
   29DOPE  H18R 3692   1.150   0.712   4.856 -0.7315 -0.0482  2.4146
   29DOPE  H18S 3693   1.322   0.719   4.901 -1.4195 -2.1907  0.0362
   29DOPE  H18T 3694   1.244   0.874   4.863  0.6575  2.4200  2.9183
   29DOPE   C33 3695   0.526   0.940   6.317  0.1139  0.1543  0.0146
   29DOPE   H3X 3696   0.518   0.881   6.411  0.9474 -1.9910 -1.1979
   29DOPE   H3Y 3697   0.605   0.889   6.258 -1.7235 -0.2218 -2.2559
   29DOPE   C34 3698   0.394   0.928   6.245  0.5875  0.2436 -0.3031
   29DOPE   H4X 3699   0.343   0.830   6.260 -0.8621  0.9525 -0.3840
   29DOPE   H4Y 3700   0.327   1.010   6.279  1.8004  1.6490 -1.1612
   29DOPE   C35 3701   0.400   0.956   6.099 -0.1977  0.2614 -0.2322
   29DOPE   H5X 3702   0.488   1.023   6.097 -0.0500  0.1096  0.7004
   29DOPE   H5Y 3703   0.307   1.010   6.069  0.4310  1.6954  0.3232
   29DOPE   C36 3704   0.435   0.834   6.016 -0.2138  0.4070 -0.0206
   29DOPE   H6X 3705   0.346   0.770   5.996  0.7844 -1.6718  1.7339
   29DOPE   H6Y 3706   0.503   0.770   6.076  0.9782 -0.7197 -2.4340
   29DOPE   C37 3707   0.514   0.864   5.883  0.7175 -0.3198  0.1164
   29DOPE   H7X 3708   0.441   0.920   5.820 -2.5922 -2.5648  1.6266
   29DOPE   H7Y 3709   0.603   0.929   5.896 -0.4406  1.1756  0.8302
   29DOPE   C38 3710   0.562   0.739   5.820 -0.4105 -0.3981 -0.4825
   29DOPE   H8X 3711   0.597   0.667   5.897 -2.1662 -0.7915  0.0008
   29DOPE   H8Y 3712   0.644   0.771   5.753 -0.9857  2.5749  0.0767
   29DOPE   C39 3713   0.455   0.664   5.748  0.7484 -0.1344  0.0067
   29DOPE   H9X 3714   0.408   0.581   5.803  2.2648 -0.9740  0.1068
   29DOPE  C310 3715   0.400   0.704   5.631 -0.8576  0.3249 -0.1050
   29DOPE  H10X 3716   0.320   0.640   5.590  0.5280 -1.1915 -0.5852
   29DOPE  C311 3717   0.439   0.819   5.545 -0.8619 -0.1524  0.1127
   29DOPE  H11X 3718   0.365   0.901   5.549 -1.0200 -0.2212 -0.8998
   29DOPE  H11Y 3719   0.528   0.863   5.594  0.2882 -2.8513  0.6553
   29DOPE  C312 3720   0.461   0.790   5.396 -0.0730  1.5457  0.0718
   29DOPE  H12X 3721   0.518   0.696   5.383 -2.6283 -0.1671  0.4988
   29DOPE  H12Y 3722   0.521   0.878   5.364  0.4759  1.3829  0.6510
   29DOPE  C313 3723   0.330   0.796   5.312  0.1594 -0.4370 -0.0589
   29DOPE  H13X 3724   0.249   0.729   5.349  0.4563 -1.2327 -0.8155
   29DOPE  H13Y 3725   0.298   0.903   5.312  0.5908 -0.3067 -0.6030
   29DOPE  C314 3726   0.349   0.749   5.168 -0.2309  1.1509 -0.3472
   29DOPE  H14X 3727   0.393   0.647   5.166 -0.3544  1.1049 -1.0602
   29DOPE  H14Y 3728   0.425   0.817   5.124 -0.7337  1.7627 -0.2827
   29DOPE  C315 3729   0.232   0.752   5.072 -0.4565  0.0507  0.1217
   29DOPE  H15X 3730   0.182   0.850   5.089  0.8327  0.5766  1.0080
   29DOPE  H15Y 3731   0.155   0.681   5.110 -0.8474  1.0714  1.3077
   29DOPE  C316 3732   0.269   0.733   4.925 -0.1477 -0.1591 -0.7677
   29DOPE  H16X 3733   0.177   0.733   4.864  0.8583  1.5777 -2.3851
   29DOPE  H16Y 3734   0.307   0.629   4.913 -0.1300 -0.1995 -0.3806
   29DOPE  C317 3735   0.358   0.838   4.868 -0.3361  0.1814  0.4118
   29DOPE  H17X 3736   0.305   0.936   4.861  0.1868  0.4832  0.5892
   29DOPE  H17Y 3737   0.456   0.843   4.921 -0.6843  1.3702  0.9700
   29DOPE  C318 3738   0.404   0.802   4.728 -0.0904 -1.0158 -0.0041
   29DOPE  H18X 3739   0.409   0.692   4.714  0.9234 -0.9316 -0.3868
   29DOPE  H18Y 3740   0.334   0.844   4.653  1.2313 -0.3496 -0.9263
   29DOPE  H18Z 3741   0.501   0.848   4.697 -0.1189 -0.6794  0.4056
   30DOPE     N 3742   0.813   7.193   7.204 -0.0741  0.3283 -0.4228
   30DOPE   HN1 3743   0.721   7.178   7.252  0.1169  0.1021 -0.1229
   30DOPE   HN2 3744   0.854   7.103   7.175 -2.0296 -1.4292  1.8185
   30DOPE   HN3 3745   0.871   7.247   7.272 -1.0570  0.0768  0.6694
   30DOPE   C12 3746   0.788   7.288   7.089 -0.3420 -0.5693  0.1719
   30DOPE  H12A 3747   0.682   7.315   7.071  0.5768  2.4190 -1.4497
   30DOPE  H12B 3748   0.825   7.243   6.994 -1.3070  1.5203 -1.2800
   30DOPE   C11 3749   0.867   7.419   7.103  1.0277  0.1490  0.5232
   30DOPE  H11A 3750   0.811   7.472   7.183  0.3530  1.0708 -0.5420
   30DOPE  H11B 3751   0.859   7.476   7.008  1.4405  1.7050  1.3742
   30DOPE     P 3752   1.106   7.328   7.061  0.1970 -0.3929 -0.0273
   30DOPE   O13 3753   1.080   7.181   7.069 -0.6549  0.6102  0.2151
   30DOPE   O14 3754   1.244   7.370   7.101  0.3478 -0.4532  1.3523
   30DOPE   O11 3755   1.073   7.381   6.916  0.2245  0.1919 -0.2459
   30DOPE   O12 3756   1.003   7.411   7.146  0.1790 -0.1521  0.3689
   30DOPE    C1 3757   1.183   7.450   6.843 -0.2294 -0.6582 -0.5393
   30DOPE    HA 3758   1.165   7.449   6.733 -0.1008  0.9384 -0.5997
   30DOPE    HB 3759   1.277   7.394   6.864  0.7765  0.4361 -1.9799
   30DOPE    C2 3760   1.200   7.594   6.894  0.1866 -0.6732  0.5290
   30DOPE    HS 3761   1.231   7.594   7.000  0.3211  0.6438  0.5152
   30DOPE   O21 3762   1.071   7.658   6.868 -0.8823  0.5698  0.1562
   30DOPE   C21 3763   1.045   7.766   6.933  0.0712 -0.5359  0.1097
   30DOPE   O22 3764   1.113   7.811   7.024  0.5549  0.1601 -0.2880
   30DOPE   C22 3765   0.919   7.840   6.874 -0.1063  0.1472 -0.1823
   30DOPE   H2R 3766   0.938   7.941   6.916  0.6379 -0.7059  1.6298
   30DOPE   H2S 3767   0.822   7.804   6.916 -0.2797  0.5192 -0.2501
   30DOPE    C3 3768   1.319   7.659   6.806  0.2838  0.6120  0.2250
   30DOPE    HX 3769   1.397   7.582   6.829  0.4182  0.4475 -0.7298
   30DOPE    HY 3770   1.338   7.754   6.861 -0.1664  0.3296  0.8819
   30DOPE   O31 3771   1.281   7.662   6.666  0.2227 -0.2755  0.8561
   30DOPE   C31 3772   1.250   7.780   6.618 -0.3817 -0.2310 -0.3011
   30DOPE   O32 3773   1.237   7.885   6.678  0.2560 -0.2011 -0.1334
   30DOPE   C32 3774   1.238   7.757   6.470 -0.1666 -0.0932 -0.4652
   30DOPE   H2X 3775   1.331   7.714   6.428  0.0400 -0.3612  0.2461
   30DOPE   H2Y 3776   1.153   7.687   6.455 -1.1777  1.0271 -0.1467
   30DOPE   C23 3777   0.906   7.852   6.718 -0.0478 -0.3051 -0.4862
   30DOPE   H3R 3778   0.989   7.914   6.679  0.0286 -0.5187 -0.6613
   30DOPE   H3S 3779   0.819   7.919   6.703 -0.4608  0.4176  3.8818
   30DOPE   C24 3780   0.872   7.720   6.646 -0.2606 -0.0000  0.3691
   30DOPE   H4R 3781   0.786   7.667   6.693  1.1908 -2.6537  0.2757
   30DOPE   H4S 3782   0.958   7.649   6.655  0.2692  0.2807 -1.8692
   30DOPE   C25 3783   0.838   7.730   6.490  0.0177 -0.5815  0.0986
   30DOPE   H5R 3784   0.924   7.762   6.427 -1.1524  2.3472 -0.2059
   30DOPE   H5S 3785   0.769   7.817   6.482 -0.4632 -1.1221 -2.3249
   30DOPE   C26 3786   0.764   7.606   6.433 -0.4732 -0.1690  0.0481
   30DOPE   H6R 3787   0.678   7.586   6.501 -0.4695 -0.0034  0.1029
   30DOPE   H6S 3788   0.822   7.511   6.433  0.4195  0.3300  1.6923
   30DOPE   C27 3789   0.708   7.631   6.295  0.1135  0.8354  0.2330
   30DOPE   H7R 3790   0.658   7.728   6.311  1.0382  1.3313  0.1809
   30DOPE   H7S 3791   0.624   7.559   6.284  0.3956  0.5197  0.1163
   30DOPE   C28 3792   0.813   7.631   6.180  0.0486  0.2790  0.5713
   30DOPE   H8R 3793   0.852   7.527   6.175  0.6896  0.5230  0.4628
   30DOPE   H8S 3794   0.896   7.696   6.215  0.6669 -0.3666  0.3244
   30DOPE   C29 3795   0.763   7.686   6.046 -1.0170 -0.1557  0.3843
   30DOPE   H9R 3796   0.746   7.794   6.035  0.0562 -0.0738 -0.6777
   30DOPE  C210 3797   0.743   7.611   5.931  0.2209 -0.3763 -0.2491
   30DOPE  H10R 3798   0.706   7.668   5.845  2.4017  0.2554 -0.8320
   30DOPE  C211 3799   0.739   7.452   5.911 -0.1510 -0.7747 -0.2714
   30DOPE  H11R 3800   0.752   7.403   6.010  1.3578  0.2979  0.0932
   30DOPE  H11S 3801   0.818   7.413   5.844 -0.5246 -0.4837 -0.8884
   30DOPE  C212 3802   0.615   7.378   5.848  0.4932 -0.2715 -0.1044
   30DOPE  H12R 3803   0.520   7.405   5.899  0.6768 -0.9943  0.6415
   30DOPE  H12S 3804   0.639   7.271   5.868 -0.0108 -0.4823 -0.5795
   30DOPE  C213 3805   0.573   7.417   5.703 -0.4945 -0.1939  0.5370
   30DOPE  H13R 3806   0.650   7.393   5.627 -1.9405  2.0819 -1.8030
   30DOPE  H13S 3807   0.558   7.526   5.686  0.1857  0.0650  1.5166
   30DOPE  C214 3808   0.438   7.346   5.666 -0.2337  0.8651 -0.9216
   30DOPE  H14R 3809   0.359   7.392   5.729  0.9069  1.5488  0.0363
   30DOPE  H14S 3810   0.449   7.240   5.698 -0.0598  0.9859 -0.5689
   30DOPE  C215 3811   0.396   7.363   5.530 -0.3751  0.3817 -0.1581
   30DOPE  H15R 3812   0.379   7.471   5.512 -1.8927  0.0041 -1.1859
   30DOPE  H15S 3813   0.298   7.311   5.523  0.1569 -0.7493  0.5147
   30DOPE  C216 3814   0.492   7.320   5.422 -0.4852 -0.8212 -0.3640
   30DOPE  H16R 3815   0.527   7.215   5.431 -0.3230 -0.5762  2.7330
   30DOPE  H16S 3816   0.586   7.379   5.434 -0.7700 -0.2486 -0.8933
   30DOPE  C217 3817   0.441   7.344   5.277 -0.1265  0.2959 -0.2997
   30DOPE  H17R 3818   0.412   7.446   5.244 -1.1330 -0.3360 -1.4354
   30DOPE  H17S 3819   0.342   7.292   5.279 -1.3784  2.5059 -1.0135
   30DOPE  C218 3820   0.535   7.278   5.177 -0.4280 -0.0237 -0.5572
   30DOPE  H18R 3821   0.569   7.174   5.196 -0.2523  0.3904  1.6249
   30DOPE  H18S 3822   0.623   7.344   5.195  0.0392 -0.2018 -2.0799
   30DOPE  H18T 3823   0.508   7.301   5.072  2.3485  0.9700 -1.1501
   30DOPE   C33 3824   1.211   7.888   6.390  0.2646  0.4023 -0.3371
   30DOPE   H3X 3825   1.142   7.955   6.446  1.4935  0.5760  1.0181
   30DOPE   H3Y 3826   1.178   7.855   6.289  0.1371 -1.5294  0.2845
   30DOPE   C34 3827   1.340   7.968   6.365  0.2485  1.1361 -0.1543
   30DOPE   H4X 3828   1.394   7.986   6.460  1.5945 -2.0245 -0.1918
   30DOPE   H4Y 3829   1.409   7.896   6.316  1.1886  1.8113  0.1436
   30DOPE   C35 3830   1.321   8.089   6.278  0.1356  0.1700  0.2020
   30DOPE   H5X 3831   1.275   8.173   6.335  2.2094  0.7664  1.1107
   30DOPE   H5Y 3832   1.254   8.067   6.192 -0.7209 -0.7568  1.0837
   30DOPE   C36 3833   1.456   8.129   6.215 -0.2127 -0.0713  0.3190
   30DOPE   H6X 3834   1.500   8.050   6.151  1.1742  1.7216 -1.0441
   30DOPE   H6Y 3835   1.524   8.152   6.301  0.6562 -2.0125  0.1987
   30DOPE   C37 3836   1.450   8.249   6.117 -0.3605 -0.2184 -0.3688
   30DOPE   H7X 3837   1.417   8.341   6.170  1.5107 -0.6114  1.6211
   30DOPE   H7Y 3838   1.552   8.282   6.088 -1.5630  1.5651 -2.9676
   30DOPE   C38 3839   1.366   8.231   5.991  0.0076  0.1867  0.0238
   30DOPE   H8X 3840   1.370   8.319   5.923  0.3699 -1.1211 -1.7208
   30DOPE   H8Y 3841   1.261   8.222   6.027 -1.5092  2.3485 -3.3292
   30DOPE   C39 3842   1.402   8.110   5.917 -0.0098 -0.5017  0.8008
   30DOPE   H9X 3843   1.387   8.017   5.974  2.5305 -1.0814  0.6579
   30DOPE  C310 3844   1.446   8.098   5.789 -0.1380  0.4520 -0.2773
   30DOPE  H10X 3845   1.462   7.997   5.749 -1.1349 -0.5022  1.5912
   30DOPE  C311 3846   1.470   8.213   5.694  0.1539  0.2525 -0.4095
   30DOPE  H11X 3847   1.416   8.304   5.731 -0.7613  0.0114 -1.1053
   30DOPE  H11Y 3848   1.580   8.220   5.695  0.2764 -0.8908  1.9110
   30DOPE  C312 3849   1.424   8.183   5.551  0.3239  0.5229 -0.2707
   30DOPE  H12X 3850   1.317   8.212   5.542 -0.2732 -1.3802  0.1364
   30DOPE  H12Y 3851   1.427   8.072   5.544  0.2550  0.1615  3.2955
   30DOPE  C313 3852   1.521   8.247   5.445  0.1473  0.1829 -0.5876
   30DOPE  H13X 3853   1.531   8.356   5.461 -1.8765  0.6942 -2.4012
   30DOPE  H13Y 3854   1.623   8.204   5.455 -0.6208 -1.6471 -0.2283
   30DOPE  C314 3855   1.457   8.233   5.306 -0.1235 -0.2219  0.0690
   30DOPE  H14X 3856   1.350   8.261   5.300 -0.7007 -2.1764  0.6239
   30DOPE  H14Y 3857   1.453   8.123   5.290 -0.2197 -0.0032 -1.5306
   30DOPE  C315 3858   1.563   8.290   5.208  1.0294 -0.3854  0.0544
   30DOPE  H15X 3859   1.664   8.247   5.225  0.6332 -1.9387 -1.3301
   30DOPE  H15Y 3860   1.573   8.401   5.216  1.7483 -0.2419 -2.2168
   30DOPE  C316 3861   1.515   8.252   5.070  0.2040 -0.2808  0.5317
   30DOPE  H16X 3862   1.411   8.278   5.042  0.2086 -2.2596 -1.6075
   30DOPE  H16Y 3863   1.504   8.141   5.069 -0.0210 -0.2630  0.9736
   30DOPE  C317 3864   1.603   8.300   4.957  0.2954  0.1730 -0.7987
   30DOPE  H17X 3865   1.598   8.411   4.952 -0.9369  0.2150  0.5736
   30DOPE  H17Y 3866   1.708   8.270   4.981  0.7991  2.1144 -0.4415
   30DOPE  C318 3867   1.549   8.250   4.828 -0.0389 -0.1372  0.0235
   30DOPE  H18X 3868   1.452   8.303   4.815 -0.7535 -1.7822 -1.9653
   30DOPE  H18Y 3869   1.623   8.288   4.754 -1.6742  0.9214 -1.1219
   30DOPE  H18Z 3870   1.547   8.139   4.834  0.6051 -0.1066  0.8975
   31DOPE     N 3871   2.124   4.412   2.767  0.2530  0.1052 -0.1246
   31DOPE   HN1 3872   2.031   4.433   2.809  0.5605 -0.6391  0.9692
   31DOPE   HN2 3873   2.182   4.494   2.795  0.6565 -0.5083  0.9105
   31DOPE   HN3 3874   2.104   4.416   2.665  2.2360  1.7497 -0.5364
   31DOPE   C12 3875   2.186   4.282   2.807 -0.0617  0.6224 -0.5354
   31DOPE  H12A 3876   2.186   4.283   2.918 -1.3169  0.4951 -0.5264
   31DOPE  H12B 3877   2.290   4.280   2.767  1.0057  1.2824  1.9791
   31DOPE   C11 3878   2.096   4.165   2.761  0.0572 -0.8263  0.9743
   31DOPE  H11A 3879   2.132   4.063   2.786 -0.7058 -1.4716 -0.4512
   31DOPE  H11B 3880   2.096   4.176   2.650  0.0738 -0.8976  0.9670
   31DOPE     P 3881   1.860   4.064   2.799  0.3820  0.4453  0.0341
   31DOPE   O13 3882   1.880   3.987   2.673 -0.4935  0.5375  0.4596
   31DOPE   O14 3883   1.724   4.115   2.823  0.1343 -0.2787 -0.0707
   31DOPE   O11 3884   1.903   3.967   2.921 -0.3669 -0.3694  0.0038
   31DOPE   O12 3885   1.967   4.180   2.816 -0.0395  0.3368 -0.0409
   31DOPE    C1 3886   1.934   4.027   3.052  0.4461 -0.3839  0.5426
   31DOPE    HA 3887   1.976   4.129   3.044  0.3345 -0.4527 -1.1799
   31DOPE    HB 3888   2.012   3.960   3.094 -0.9634 -2.6170 -0.2529
   31DOPE    C2 3889   1.814   4.023   3.154 -0.8877  0.3367  0.0109
   31DOPE    HS 3890   1.728   4.084   3.121 -2.5748 -2.6252 -1.4887
   31DOPE   O21 3891   1.863   4.052   3.284 -0.2499 -0.0575 -0.2004
   31DOPE   C21 3892   1.781   4.113   3.365  0.3531  0.1966 -0.3225
   31DOPE   O22 3893   1.681   4.167   3.325 -0.2607 -0.0677  0.4401
   31DOPE   C22 3894   1.833   4.109   3.511  0.7079  0.2315  0.1771
   31DOPE   H2R 3895   1.899   4.198   3.523  0.0141  0.8294 -0.3685
   31DOPE   H2S 3896   1.890   4.015   3.525  0.0318 -0.1641  0.2908
   31DOPE    C3 3897   1.746   3.878   3.158 -0.1770  0.1616 -0.1909
   31DOPE    HX 3898   1.829   3.804   3.167  0.4059  0.8442  0.1380
   31DOPE    HY 3899   1.697   3.853   3.061 -0.4669  2.6556 -0.7672
   31DOPE   O31 3900   1.665   3.868   3.281 -0.5585 -0.4823  0.1863
   31DOPE   C31 3901   1.533   3.889   3.261  0.3896  0.3783  0.8871
   31DOPE   O32 3902   1.476   3.872   3.153 -0.9869 -0.4094  0.4117
   31DOPE   C32 3903   1.463   3.933   3.394  0.2210  0.2811  0.4057
   31DOPE   H2X 3904   1.519   4.022   3.427  2.5038  0.3002 -3.0365
   31DOPE   H2Y 3905   1.356   3.956   3.371  0.0149  1.5234  2.3837
   31DOPE   C23 3906   1.727   4.127   3.619 -0.2481 -0.0033 -0.0023
   31DOPE   H3R 3907   1.655   4.045   3.599  0.5812 -0.7912  0.1635
   31DOPE   H3S 3908   1.685   4.230   3.613  0.1925  0.2467  0.9408
   31DOPE   C24 3909   1.779   4.100   3.760  0.3476 -0.4843 -0.1371
   31DOPE   H4R 3910   1.830   4.191   3.796  1.0510 -0.4610 -1.1486
   31DOPE   H4S 3911   1.851   4.016   3.760  2.7317  1.4140  1.8410
   31DOPE   C25 3912   1.661   4.074   3.853 -0.5761 -0.0799 -0.1898
   31DOPE   H5R 3913   1.606   3.980   3.832 -0.7382  0.1272 -0.6857
   31DOPE   H5S 3914   1.588   4.157   3.852  0.3378  0.7428 -0.7028
   31DOPE   C26 3915   1.715   4.065   3.992 -0.2112 -0.3741  0.0377
   31DOPE   H6R 3916   1.801   4.135   4.004 -0.3920  0.2184 -1.7200
   31DOPE   H6S 3917   1.755   3.963   4.010 -1.0947 -0.5967  0.8087
   31DOPE   C27 3918   1.614   4.111   4.102  0.1316  0.0528  0.3420
   31DOPE   H7R 3919   1.531   4.038   4.110  0.1701 -0.1265 -0.7968
   31DOPE   H7S 3920   1.581   4.215   4.080 -2.0522  0.0072  2.9050
   31DOPE   C28 3921   1.681   4.119   4.242 -1.1138 -0.5267  0.4049
   31DOPE   H8R 3922   1.788   4.147   4.233 -2.1899  3.8346 -0.8486
   31DOPE   H8S 3923   1.684   4.017   4.287 -1.0744 -0.7727 -0.1515
   31DOPE   C29 3924   1.616   4.224   4.326  0.0740 -0.5978  0.0021
   31DOPE   H9R 3925   1.656   4.326   4.318 -2.0212  0.3278  0.5074
   31DOPE  C210 3926   1.516   4.202   4.413 -0.1169  0.5790  0.4709
   31DOPE  H10R 3927   1.477   4.293   4.460  1.5124  0.9274  1.1982
   31DOPE  C211 3928   1.450   4.067   4.450  0.1709  0.5327  0.6941
   31DOPE  H11R 3929   1.469   3.990   4.371  1.9644  0.8611  0.7568
   31DOPE  H11S 3930   1.340   4.077   4.452 -0.1438 -2.1754  0.5572
   31DOPE  C212 3931   1.514   4.032   4.587 -0.8550 -0.4907  0.3170
   31DOPE  H12R 3932   1.624   4.015   4.579 -0.5288  2.1153 -3.8895
   31DOPE  H12S 3933   1.480   3.935   4.630  0.6153 -0.9234  0.5673
   31DOPE  C213 3934   1.506   4.140   4.696  0.2680 -0.8292  0.3181
   31DOPE  H13R 3935   1.551   4.234   4.659  0.9615 -1.6025 -0.8834
   31DOPE  H13S 3936   1.560   4.105   4.787 -1.3894  0.2573  1.7639
   31DOPE  C214 3937   1.355   4.159   4.734 -0.0076  0.3008  0.2443
   31DOPE  H14R 3938   1.318   4.056   4.754 -0.5725  0.7751  1.7805
   31DOPE  H14S 3939   1.296   4.213   4.656 -0.8208  3.4797  2.8520
   31DOPE  C215 3940   1.334   4.226   4.875  0.2226  1.2014  0.3201
   31DOPE  H15R 3941   1.353   4.336   4.876 -2.6667  1.7791  0.1859
   31DOPE  H15S 3942   1.392   4.175   4.955  2.3661  1.0824 -1.2225
   31DOPE  C216 3943   1.180   4.212   4.899  0.7113 -0.0160 -0.5223
   31DOPE  H16R 3944   1.145   4.108   4.885 -2.5821  0.7058  1.4077
   31DOPE  H16S 3945   1.118   4.283   4.840  0.0357 -0.7760 -0.7375
   31DOPE  C217 3946   1.153   4.232   5.049 -0.0871 -0.3171  0.0861
   31DOPE  H17R 3947   1.173   4.336   5.082  0.7297 -0.1313 -0.9538
   31DOPE  H17S 3948   1.217   4.161   5.106  0.2371 -0.0666  0.0347
   31DOPE  C218 3949   1.023   4.181   5.100  0.2754  0.7211  0.5363
   31DOPE  H18R 3950   1.026   4.198   5.210  1.0235  1.3359  0.4247
   31DOPE  H18S 3951   0.999   4.079   5.062  1.2696  1.4976 -2.4056
   31DOPE  H18T 3952   0.950   4.253   5.057  1.2690  0.6380 -1.4174
   31DOPE   C33 3953   1.451   3.823   3.503  0.1672 -0.1608  0.4315
   31DOPE   H3X 3954   1.549   3.812   3.554 -0.6311 -4.6696  1.3688
   31DOPE   H3Y 3955   1.414   3.726   3.465  1.5010 -1.7416  2.8794
   31DOPE   C34 3956   1.357   3.866   3.619  0.4711 -0.0942  0.5852
   31DOPE   H4X 3957   1.378   3.974   3.632 -0.8055  0.0148  1.9860
   31DOPE   H4Y 3958   1.255   3.848   3.578  1.0191 -1.5396 -0.2162
   31DOPE   C35 3959   1.381   3.777   3.743  0.1721 -0.6091 -0.2718
   31DOPE   H5X 3960   1.482   3.781   3.790 -0.4634  0.3883  1.0875
   31DOPE   H5Y 3961   1.367   3.670   3.716  1.3951 -1.5400  2.4116
   31DOPE   C36 3962   1.289   3.813   3.860  0.2461 -0.5200  0.0296
   31DOPE   H6X 3963   1.189   3.839   3.818 -0.4212 -0.2254  1.7186
   31DOPE   H6Y 3964   1.329   3.904   3.908 -2.8293  0.5213  0.8177
   31DOPE   C37 3965   1.281   3.693   3.958 -0.5619  0.2156  0.0546
   31DOPE   H7X 3966   1.252   3.600   3.905 -0.2998 -0.1388  0.5208
   31DOPE   H7Y 3967   1.384   3.686   3.998 -0.7580 -1.5494  0.3529
   31DOPE   C38 3968   1.166   3.722   4.066 -0.5150 -0.2460 -0.2193
   31DOPE   H8X 3969   1.068   3.697   4.021 -1.1059 -2.4481  2.0549
   31DOPE   H8Y 3970   1.160   3.832   4.081  1.2318  0.2356 -2.5503
   31DOPE   C39 3971   1.182   3.653   4.199 -0.0163  0.3359 -0.4162
   31DOPE   H9X 3972   1.222   3.550   4.189  1.8420  0.9810 -0.0404
   31DOPE  C310 3973   1.187   3.709   4.325  0.4905  0.0501  0.2001
   31DOPE  H10X 3974   1.227   3.656   4.412  0.0529  0.6344  0.7590
   31DOPE  C311 3975   1.138   3.847   4.362  0.4766  0.2692 -0.7980
   31DOPE  H11X 3976   1.233   3.901   4.383 -0.4719  1.5486  0.4072
   31DOPE  H11Y 3977   1.076   3.892   4.282  0.7860 -0.6200 -1.5486
   31DOPE  C312 3978   1.060   3.882   4.494 -0.9780 -0.5561 -0.3907
   31DOPE  H12X 3979   0.966   3.823   4.485 -1.0310 -0.5507  0.1226
   31DOPE  H12Y 3980   1.039   3.991   4.495  1.8444  0.0633 -0.4934
   31DOPE  C313 3981   1.136   3.854   4.616 -0.6747  0.5159  0.3335
   31DOPE  H13X 3982   1.182   3.753   4.604  0.0727  0.4799  2.8960
   31DOPE  H13Y 3983   1.226   3.917   4.624  0.0543 -0.3865 -0.4677
   31DOPE  C314 3984   1.047   3.876   4.739  0.3316 -0.1595  0.0278
   31DOPE  H14X 3985   0.948   3.825   4.735  0.5029 -0.5322  0.4106
   31DOPE  H14Y 3986   1.014   3.980   4.757  0.0823 -0.2417  0.0458
   31DOPE  C315 3987   1.111   3.825   4.858  0.3476  0.1198 -0.1246
   31DOPE  H15X 3988   1.061   3.862   4.950  0.7109 -1.3056  0.6892
   31DOPE  H15Y 3989   1.216   3.856   4.876  0.5565  0.4481 -1.7456
   31DOPE  C316 3990   1.114   3.665   4.869 -0.2753  0.5655  0.3984
   31DOPE  H16X 3991   1.169   3.629   4.780  1.5085  0.3237  1.5295
   31DOPE  H16Y 3992   1.010   3.633   4.849 -0.1121  0.8962 -1.0913
   31DOPE  C317 3993   1.179   3.622   4.998  0.7378 -0.1951 -0.1697
   31DOPE  H17X 3994   1.286   3.649   4.989  0.3223  1.4259 -0.5327
   31DOPE  H17Y 3995   1.131   3.675   5.084 -0.9605 -0.6956 -0.7729
   31DOPE  C318 3996   1.162   3.472   5.013  0.6166  0.1328  0.0787
   31DOPE  H18X 3997   1.204   3.424   4.923 -0.5102 -0.5081 -0.1302
   31DOPE  H18Y 3998   1.210   3.437   5.107  1.9655 -0.2873 -0.7566
   31DOPE  H18Z 3999   1.056   3.444   5.030  0.7605 -0.0358  0.7181
   32DOPE     N 4000   3.017   3.549   2.409 -0.2515 -0.3852  0.4287
   32DOPE   HN1 4001   3.027   3.448   2.388 -0.5751 -0.2634 -0.3171
   32DOPE   HN2 4002   2.953   3.582   2.334 -0.4996 -1.0830  0.3291
   32DOPE   HN3 4003   3.111   3.594   2.407  0.0488 -0.6938  3.2535
   32DOPE   C12 4004   2.943   3.570   2.538  0.1210  0.2725 -0.0467
   32DOPE  H12A 4005   2.904   3.673   2.552 -0.3874  0.0046  0.5905
   32DOPE  H12B 4006   3.012   3.543   2.621 -1.6959  1.2955  1.8974
   32DOPE   C11 4007   2.820   3.470   2.550 -0.7496  0.4140  0.6807
   32DOPE  H11A 4008   2.740   3.493   2.477 -1.1419  3.4720  1.9469
   32DOPE  H11B 4009   2.778   3.492   2.651 -1.2018  0.6925  0.4345
   32DOPE     P 4010   2.862   3.235   2.412 -0.4663  0.2965  0.4140
   32DOPE   O13 4011   2.980   3.284   2.336  0.4176 -0.7553 -0.4607
   32DOPE   O14 4012   2.733   3.224   2.339 -0.0926  0.6997 -0.2899
   32DOPE   O11 4013   2.892   3.098   2.484 -0.4977  0.4309  0.1725
   32DOPE   O12 4014   2.856   3.331   2.539  0.3867  0.3365 -0.9725
   32DOPE    C1 4015   3.025   3.041   2.503  0.0612  0.3634  0.1554
   32DOPE    HA 4016   3.087   3.074   2.417 -0.5340 -0.0578 -0.4502
   32DOPE    HB 4017   3.013   2.931   2.493  2.4886 -0.1923  2.3341
   32DOPE    C2 4018   3.085   3.069   2.647  0.0832  0.0852  0.1320
   32DOPE    HS 4019   3.156   2.990   2.679  0.2912 -0.2174 -1.0083
   32DOPE   O21 4020   2.979   3.087   2.747 -0.0852  0.1202 -0.3878
   32DOPE   C21 4021   2.893   2.984   2.758  0.3512 -0.3204 -0.3638
   32DOPE   O22 4022   2.905   2.870   2.713 -0.1885 -0.2075 -0.5636
   32DOPE   C22 4023   2.788   3.018   2.866 -0.9073 -0.5928  0.7508
   32DOPE   H2R 4024   2.695   3.043   2.810 -0.5461 -1.4021 -0.2538
   32DOPE   H2S 4025   2.822   3.112   2.913 -1.7837 -0.5192  1.2592
   32DOPE    C3 4026   3.158   3.208   2.648  0.3497 -0.0723 -0.1895
   32DOPE    HX 4027   3.084   3.287   2.623 -0.6049 -0.5074  1.0987
   32DOPE    HY 4028   3.235   3.212   2.569  2.1727 -1.0009  1.4521
   32DOPE   O31 4029   3.224   3.229   2.774  0.2826 -0.0807 -0.2431
   32DOPE   C31 4030   3.198   3.348   2.842 -0.2321 -0.3022 -0.0236
   32DOPE   O32 4031   3.130   3.433   2.797 -0.0062  0.0734 -0.0578
   32DOPE   C32 4032   3.260   3.349   2.976 -0.0915  0.0609 -0.6126
   32DOPE   H2X 4033   3.259   3.244   3.011 -0.6262  0.4500  0.5907
   32DOPE   H2Y 4034   3.368   3.373   2.961 -0.6058  2.6467 -0.6788
   32DOPE   C23 4035   2.768   2.911   2.969 -0.3515 -0.1292  0.0834
   32DOPE   H3R 4036   2.869   2.892   3.011 -0.4192 -0.9783 -0.1132
   32DOPE   H3S 4037   2.728   2.820   2.920  2.1771 -1.5105  0.4247
   32DOPE   C24 4038   2.688   2.935   3.096  0.1577  0.2846  0.0496
   32DOPE   H4R 4039   2.686   2.836   3.148 -0.4658  0.1364 -0.2503
   32DOPE   H4S 4040   2.582   2.958   3.072 -0.1764 -1.0737  0.1234
   32DOPE   C25 4041   2.749   3.035   3.191 -0.8838 -0.0151  0.6919
   32DOPE   H5R 4042   2.756   3.126   3.128  2.4044  0.4467  1.5586
   32DOPE   H5S 4043   2.847   2.993   3.220 -2.1903 -2.3343  2.0225
   32DOPE   C26 4044   2.668   3.048   3.322  0.3224  0.0773  1.2213
   32DOPE   H6R 4045   2.658   2.945   3.363  1.0208 -1.2504 -1.6639
   32DOPE   H6S 4046   2.564   3.073   3.292  0.9891  1.5779  0.0214
   32DOPE   C27 4047   2.738   3.159   3.406  0.7695  0.0321 -0.5754
   32DOPE   H7R 4048   2.751   3.254   3.349  3.1381  1.1223  1.5693
   32DOPE   H7S 4049   2.841   3.127   3.433  0.9295  0.9008 -0.1217
   32DOPE   C28 4050   2.670   3.195   3.543  0.0443 -0.0287 -0.4319
   32DOPE   H8R 4051   2.655   3.102   3.602 -0.4992  0.4405  0.1734
   32DOPE   H8S 4052   2.571   3.232   3.511 -0.1424  0.0565  0.2346
   32DOPE   C29 4053   2.745   3.299   3.629 -0.1528  0.0423 -0.7752
   32DOPE   H9R 4054   2.807   3.373   3.577  1.2290  0.1734  0.9554
   32DOPE  C210 4055   2.771   3.292   3.766  0.5983 -0.3449  0.1630
   32DOPE  H10R 4056   2.828   3.373   3.812  2.1056 -0.5533 -1.2364
   32DOPE  C211 4057   2.715   3.197   3.866 -0.2705  0.2710 -0.3108
   32DOPE  H11R 4058   2.794   3.143   3.922  0.5219  0.6274 -1.0613
   32DOPE  H11S 4059   2.636   3.131   3.825  0.9184 -1.2544 -0.2264
   32DOPE  C212 4060   2.643   3.264   3.984 -0.0094  0.1145  0.0592
   32DOPE  H12R 4061   2.584   3.182   4.031  1.6009  0.7191  3.4930
   32DOPE  H12S 4062   2.568   3.341   3.959  1.6737  1.2478 -1.7595
   32DOPE  C213 4063   2.724   3.314   4.107 -0.2780 -0.5463 -0.1742
   32DOPE  H13R 4064   2.779   3.404   4.074 -3.0328  0.2549 -3.1852
   32DOPE  H13S 4065   2.796   3.232   4.128 -1.8141 -1.2987  2.7174
   32DOPE  C214 4066   2.635   3.363   4.225 -0.1047 -0.0929  0.4085
   32DOPE  H14R 4067   2.574   3.275   4.255  1.2256 -1.6139 -1.1402
   32DOPE  H14S 4068   2.567   3.436   4.177 -0.0011  0.6603  1.3863
   32DOPE  C215 4069   2.711   3.421   4.345 -0.0885 -0.2072  0.3875
   32DOPE  H15R 4070   2.774   3.503   4.303 -3.2161  1.6459 -1.0699
   32DOPE  H15S 4071   2.768   3.343   4.400  3.2847  1.6315 -0.2016
   32DOPE  C216 4072   2.602   3.488   4.436 -0.7291 -0.5055 -0.2649
   32DOPE  H16R 4073   2.527   3.408   4.453 -0.2469 -0.9949 -0.4042
   32DOPE  H16S 4074   2.559   3.566   4.370  1.6543 -1.1281 -2.7627
   32DOPE  C217 4075   2.657   3.563   4.561 -0.1218  0.6285 -0.3471
   32DOPE  H17R 4076   2.705   3.485   4.624  0.3295  1.6180  0.5714
   32DOPE  H17S 4077   2.575   3.619   4.611  0.5704  1.0084  0.3917
   32DOPE  C218 4078   2.777   3.662   4.533  0.0477 -0.3824 -0.6486
   32DOPE  H18R 4079   2.816   3.728   4.613  0.2151  1.0930 -1.8910
   32DOPE  H18S 4080   2.745   3.731   4.452  1.2144 -0.2695 -1.0416
   32DOPE  H18T 4081   2.862   3.604   4.491 -0.4564 -1.1920 -0.5713
   32DOPE   C33 4082   3.185   3.433   3.076 -0.3106 -0.8613 -0.4725
   32DOPE   H3X 4083   3.077   3.404   3.079 -0.2036 -1.3353 -1.1802
   32DOPE   H3Y 4084   3.171   3.534   3.032  2.2215 -0.9562 -1.6647
   32DOPE   C34 4085   3.237   3.423   3.222  0.0413 -0.0276 -1.3568
   32DOPE   H4X 4086   3.288   3.326   3.239  0.4493  0.2149 -1.1890
   32DOPE   H4Y 4087   3.316   3.498   3.243 -0.5939  0.4104 -0.4444
   32DOPE   C35 4088   3.136   3.457   3.331 -0.1242  0.5723  0.5519
   32DOPE   H5X 4089   3.053   3.383   3.326  0.6031 -0.1915 -0.6132
   32DOPE   H5Y 4090   3.094   3.557   3.308  0.0112  0.8172  1.3260
   32DOPE   C36 4091   3.190   3.482   3.468 -0.0708  0.4361  0.1402
   32DOPE   H6X 4092   3.239   3.581   3.476 -0.5936  0.6097  1.5976
   32DOPE   H6Y 4093   3.262   3.402   3.494  1.9321  2.2204  0.3120
   32DOPE   C37 4094   3.069   3.495   3.566  0.3058  0.8346  0.6514
   32DOPE   H7X 4095   2.977   3.532   3.517 -0.2288 -0.9823  0.2104
   32DOPE   H7Y 4096   3.044   3.389   3.593  0.6642  0.0780 -1.7944
   32DOPE   C38 4097   3.097   3.583   3.688  0.4523 -0.8455 -0.6769
   32DOPE   H8X 4098   3.206   3.601   3.675  0.7648 -2.6297 -0.8077
   32DOPE   H8Y 4099   3.082   3.529   3.784 -1.3432  0.9772  0.1539
   32DOPE   C39 4100   3.027   3.717   3.696 -0.4163  0.4501  0.5508
   32DOPE   H9X 4101   2.989   3.745   3.596 -1.0417  0.2096  0.7180
   32DOPE  C310 4102   3.002   3.798   3.802 -0.2036  0.1193 -0.6046
   32DOPE  H10X 4103   2.956   3.896   3.784  1.5671  1.2990  0.9114
   32DOPE  C311 4104   3.089   3.784   3.929  0.1444 -0.1148  0.3005
   32DOPE  H11X 4105   3.155   3.695   3.925  0.1331 -0.1219  0.2768
   32DOPE  H11Y 4106   3.144   3.880   3.932  0.2290  0.0030 -2.3773
   32DOPE  C312 4107   3.007   3.748   4.055  0.5916 -0.6465 -0.6066
   32DOPE  H12X 4108   2.952   3.652   4.046  0.8392 -0.8032 -0.4669
   32DOPE  H12Y 4109   2.936   3.833   4.066  0.5013 -0.7404 -0.4609
   32DOPE  C313 4110   3.088   3.738   4.184  0.0877  0.0413  0.0233
   32DOPE  H13X 4111   3.017   3.724   4.268  0.8195  1.6243  0.9634
   32DOPE  H13Y 4112   3.161   3.654   4.182 -0.9523 -0.8716 -0.8625
   32DOPE  C314 4113   3.155   3.873   4.217  0.6054  0.3306 -0.4329
   32DOPE  H14X 4114   3.078   3.950   4.194  0.4541  0.5448  0.7610
   32DOPE  H14Y 4115   3.244   3.885   4.152  1.6510 -0.1095  0.8713
   32DOPE  C315 4116   3.208   3.905   4.354 -0.1673 -0.2245  0.5283
   32DOPE  H15X 4117   3.244   4.008   4.371  0.6752 -0.3680 -0.3162
   32DOPE  H15Y 4118   3.294   3.840   4.380  1.4204  1.4176 -0.4143
   32DOPE  C316 4119   3.105   3.889   4.461 -0.4592  0.7572 -0.1722
   32DOPE  H16X 4120   3.066   3.785   4.459 -0.5936  0.8147 -2.0606
   32DOPE  H16Y 4121   3.016   3.952   4.437 -0.0977  0.7590 -1.5665
   32DOPE  C317 4122   3.165   3.918   4.595 -0.1105 -0.5990  0.1181
   32DOPE  H17X 4123   3.201   4.023   4.588 -1.0867 -0.2564  0.0159
   32DOPE  H17Y 4124   3.084   3.919   4.671 -0.5179  2.5681 -0.2388
   32DOPE  C318 4125   3.269   3.817   4.643 -0.5039 -0.4100  0.2869
   32DOPE  H18X 4126   3.251   3.713   4.609 -0.6702 -0.2574 -0.0944
   32DOPE  H18Y 4127   3.378   3.836   4.633 -0.1417 -1.5702  1.7107
   32DOPE  H18Z 4128   3.258   3.821   4.753  0.5797 -0.0124  0.3947
   33DOPE     N 4129   2.780   2.072   2.530  0.0038  0.7106 -0.1252
   33DOPE   HN1 4130   2.790   2.158   2.588 -1.5387  1.0866 -0.3767
   33DOPE   HN2 4131   2.860   2.038   2.474 -1.2470 -0.7972 -1.0744
   33DOPE   HN3 4132   2.698   2.091   2.469 -0.9769 -1.2475  0.5060
   33DOPE   C12 4133   2.748   1.956   2.620 -0.2218  0.1550  0.2269
   33DOPE  H12A 4134   2.817   1.950   2.706  1.9310  3.2605 -1.1395
   33DOPE  H12B 4135   2.754   1.860   2.564 -0.1785  0.2800  0.0165
   33DOPE   C11 4136   2.606   1.967   2.672  0.0910  0.2585 -0.1384
   33DOPE  H11A 4137   2.612   2.066   2.722 -1.6069  0.0699  0.5027
   33DOPE  H11B 4138   2.591   1.884   2.744 -1.2997  0.1591 -0.5100
   33DOPE     P 4139   2.358   1.953   2.603  0.2261  0.1779 -0.4372
   33DOPE   O13 4140   2.349   1.827   2.684 -0.3025  0.1488 -0.3426
   33DOPE   O14 4141   2.277   1.952   2.482  0.0852  0.1847  0.0330
   33DOPE   O11 4142   2.326   2.078   2.696 -0.0033 -0.3445  0.1260
   33DOPE   O12 4143   2.510   1.971   2.564  1.0104  0.1141  0.2696
   33DOPE    C1 4144   2.253   2.193   2.660  0.3823 -0.1393 -1.2687
   33DOPE    HA 4145   2.242   2.212   2.551  1.4762 -0.7962 -1.5084
   33DOPE    HB 4146   2.319   2.278   2.689  1.4892 -1.1838 -0.6465
   33DOPE    C2 4147   2.114   2.216   2.737  0.5738 -0.0476  0.0099
   33DOPE    HS 4148   2.088   2.323   2.722  1.5797  0.4284  1.3690
   33DOPE   O21 4149   2.126   2.184   2.877  0.0350  0.4475  0.1632
   33DOPE   C21 4150   2.195   2.276   2.939  0.4231  0.1558 -0.0240
   33DOPE   O22 4151   2.231   2.382   2.890 -0.2955  0.3630  0.0961
   33DOPE   C22 4152   2.222   2.235   3.084  0.8092  0.3070 -0.2533
   33DOPE   H2R 4153   2.276   2.138   3.089 -0.9862 -0.6683  2.0761
   33DOPE   H2S 4154   2.119   2.221   3.123 -0.1991  2.3680 -1.9591
   33DOPE    C3 4155   2.006   2.122   2.681  0.1175  0.9860  0.1490
   33DOPE    HX 4156   2.043   2.019   2.697 -2.7591  0.2917  3.8484
   33DOPE    HY 4157   2.001   2.137   2.571  0.6406  1.6606  0.2073
   33DOPE   O31 4158   1.880   2.148   2.743  0.0159  0.0855  0.0554
   33DOPE   C31 4159   1.810   2.047   2.779  0.2334  0.6402 -0.1328
   33DOPE   O32 4160   1.845   1.929   2.786 -0.0202 -0.3660  0.3587
   33DOPE   C32 4161   1.673   2.095   2.825 -0.0919  0.0835  0.6377
   33DOPE   H2X 4162   1.634   2.169   2.752  1.0345 -0.2468 -0.3436
   33DOPE   H2Y 4163   1.602   2.011   2.837 -1.8563  0.7636 -3.4381
   33DOPE   C23 4164   2.305   2.348   3.155 -0.0381  0.6944 -0.7749
   33DOPE   H3R 4165   2.269   2.448   3.124 -1.5113  0.5718  0.4442
   33DOPE   H3S 4166   2.411   2.349   3.119 -0.2651  1.2302 -1.4466
   33DOPE   C24 4167   2.298   2.354   3.309  0.1046  0.4343 -0.1031
   33DOPE   H4R 4168   2.206   2.312   3.355  1.0511  1.2763  2.7432
   33DOPE   H4S 4169   2.313   2.459   3.342  1.0837 -0.0603  1.1542
   33DOPE   C25 4170   2.409   2.271   3.376  0.9237 -0.0473 -0.3823
   33DOPE   H5R 4171   2.502   2.318   3.338  1.5509 -1.9023 -1.2587
   33DOPE   H5S 4172   2.398   2.163   3.356  3.4111 -0.7677  1.5761
   33DOPE   C26 4173   2.402   2.283   3.533 -0.6642 -0.3470  0.3056
   33DOPE   H6R 4174   2.460   2.200   3.578 -0.2434 -0.5916 -0.6669
   33DOPE   H6S 4175   2.297   2.286   3.569 -0.4302 -0.4620  1.0154
   33DOPE   C27 4176   2.465   2.410   3.580  0.3551  0.3390 -0.1317
   33DOPE   H7R 4177   2.403   2.496   3.546  0.6189  0.8177  0.5657
   33DOPE   H7S 4178   2.563   2.429   3.533  0.9878  0.3516  1.1643
   33DOPE   C28 4179   2.496   2.411   3.725 -0.5440 -0.1802  0.3803
   33DOPE   H8R 4180   2.571   2.332   3.747 -0.9635 -1.3479 -2.0627
   33DOPE   H8S 4181   2.406   2.387   3.785 -0.4221 -1.0331  0.2396
   33DOPE   C29 4182   2.546   2.550   3.764 -0.7049  0.3362  0.0424
   33DOPE   H9R 4183   2.511   2.632   3.700  0.0566  0.7510  0.1540
   33DOPE  C210 4184   2.628   2.582   3.863 -0.0848  0.1456 -0.7210
   33DOPE  H10R 4185   2.668   2.684   3.874 -1.3464  0.4477  1.9474
   33DOPE  C211 4186   2.675   2.485   3.971 -0.2145  0.5259  0.1675
   33DOPE  H11R 4187   2.785   2.500   3.980 -0.3890  1.2803  1.2915
   33DOPE  H11S 4188   2.657   2.377   3.951 -2.1913  0.6825  0.8452
   33DOPE  C212 4189   2.612   2.512   4.107 -0.6154 -0.5550 -1.0043
   33DOPE  H12R 4190   2.518   2.453   4.109 -0.8043 -0.2443 -0.5241
   33DOPE  H12S 4191   2.590   2.619   4.126 -1.3268 -0.8003 -0.4088
   33DOPE  C213 4192   2.700   2.461   4.228 -0.0158  0.5430  0.2526
   33DOPE  H13R 4193   2.785   2.530   4.243  1.9381 -1.5753 -0.4260
   33DOPE  H13S 4194   2.751   2.365   4.202  0.2889  0.9092 -0.5046
   33DOPE  C214 4195   2.613   2.440   4.353  0.2551 -0.1378  0.2241
   33DOPE  H14R 4196   2.533   2.368   4.326  0.0241 -0.1961  1.0210
   33DOPE  H14S 4197   2.562   2.532   4.388 -0.6344  0.3536 -2.1982
   33DOPE  C215 4198   2.703   2.406   4.472 -0.3606  0.3937 -0.0622
   33DOPE  H15R 4199   2.786   2.479   4.486 -1.1732  1.5773 -1.1411
   33DOPE  H15S 4200   2.752   2.308   4.457 -1.1026 -0.3304  1.8966
   33DOPE  C216 4201   2.628   2.399   4.602 -0.3153 -0.3327  0.1254
   33DOPE  H16R 4202   2.568   2.492   4.609  1.2828  0.9596 -1.8752
   33DOPE  H16S 4203   2.688   2.400   4.695 -0.2125 -0.2093  0.0584
   33DOPE  C217 4204   2.522   2.285   4.612  0.3490 -0.4472  0.4087
   33DOPE  H17R 4205   2.561   2.188   4.573  0.9088  0.3162 -0.9785
   33DOPE  H17S 4206   2.435   2.308   4.548  0.4055  0.5629  0.6812
   33DOPE  C218 4207   2.482   2.262   4.754 -0.0172 -0.2940 -0.2763
   33DOPE  H18R 4208   2.433   2.354   4.794  0.5353 -0.0392 -0.1625
   33DOPE  H18S 4209   2.571   2.241   4.817 -0.3305  2.1246  1.1260
   33DOPE  H18T 4210   2.409   2.179   4.761  1.0994 -1.1939  1.3967
   33DOPE   C33 4211   1.682   2.177   2.962 -0.4234 -0.2230 -0.3292
   33DOPE   H3X 4212   1.587   2.230   2.987 -0.9653 -1.8725  1.3343
   33DOPE   H3Y 4213   1.767   2.249   2.952  0.9893 -1.8884 -0.7163
   33DOPE   C34 4214   1.715   2.087   3.084  0.3647 -0.0012 -0.1581
   33DOPE   H4X 4215   1.639   2.011   3.113  2.8189 -2.7111 -0.4097
   33DOPE   H4Y 4216   1.798   2.019   3.057 -0.2249 -0.9149  0.2914
   33DOPE   C35 4217   1.746   2.169   3.204  0.1905  0.1699 -0.3309
   33DOPE   H5X 4218   1.672   2.251   3.211  0.9323  1.1860 -2.9608
   33DOPE   H5Y 4219   1.844   2.220   3.191  1.0344 -0.7177  1.9564
   33DOPE   C36 4220   1.771   2.078   3.326  0.4138  0.7341 -0.1302
   33DOPE   H6X 4221   1.834   1.988   3.304  0.0813  0.3748  0.3677
   33DOPE   H6Y 4222   1.675   2.043   3.369  1.3266  0.4737  1.8063
   33DOPE   C37 4223   1.846   2.158   3.429 -0.9616  0.1759 -0.4733
   33DOPE   H7X 4224   1.954   2.166   3.402 -0.5539  1.4053  1.3741
   33DOPE   H7Y 4225   1.810   2.263   3.437  1.5581  1.1081 -0.4816
   33DOPE   C38 4226   1.839   2.104   3.573 -0.0129  0.1312 -0.3993
   33DOPE   H8X 4227   1.742   2.055   3.596  0.3552  0.7782  2.9952
   33DOPE   H8Y 4228   1.838   2.189   3.644 -0.1138 -0.4228  0.2698
   33DOPE   C39 4229   1.942   1.999   3.606 -0.3847  0.3236  0.0586
   33DOPE   H9X 4230   1.929   1.913   3.539  0.8794  0.9704 -1.0570
   33DOPE  C310 4231   2.050   2.021   3.683 -0.1192  0.4980 -0.5782
   33DOPE  H10X 4232   2.117   1.934   3.693 -0.1602  0.4709 -0.5388
   33DOPE  C311 4233   2.078   2.141   3.766  0.2287 -0.1839 -0.7191
   33DOPE  H11X 4234   2.163   2.183   3.709 -0.7341  0.9308 -1.3856
   33DOPE  H11Y 4235   1.990   2.209   3.761 -0.4641 -1.0823 -0.9065
   33DOPE  C312 4236   2.112   2.097   3.907 -0.3406  0.1174  0.4297
   33DOPE  H12X 4237   2.035   2.039   3.962 -1.3221  1.8999  0.9847
   33DOPE  H12Y 4238   2.099   2.194   3.960  0.9470  1.1347 -1.0431
   33DOPE  C313 4239   2.256   2.055   3.928 -0.0038  0.1084  0.2675
   33DOPE  H13X 4240   2.257   1.949   3.897 -2.0141  0.5188 -1.4750
   33DOPE  H13Y 4241   2.315   2.106   3.849  1.9100  0.9909  2.1840
   33DOPE  C314 4242   2.307   2.084   4.072  0.6336  0.2892 -0.6606
   33DOPE  H14X 4243   2.269   2.184   4.101 -1.9225 -0.7928  0.0162
   33DOPE  H14Y 4244   2.418   2.080   4.079  0.6721  0.3448 -1.2410
   33DOPE  C315 4245   2.256   1.988   4.183 -0.4541 -0.5265 -0.0652
   33DOPE  H15X 4246   2.275   1.881   4.162 -0.6357 -0.9319  1.6949
   33DOPE  H15Y 4247   2.147   2.009   4.191 -0.6795 -1.3482 -0.8027
   33DOPE  C316 4248   2.306   2.017   4.326  0.2292  0.3944 -0.9405
   33DOPE  H16X 4249   2.309   2.128   4.339  0.1668  0.0629  3.0646
   33DOPE  H16Y 4250   2.412   1.985   4.330 -0.1603 -0.8372 -0.0384
   33DOPE  C317 4251   2.223   1.943   4.439  0.1384 -1.3448  0.5264
   33DOPE  H17X 4252   2.244   1.987   4.539  0.2350 -0.5601  0.1650
   33DOPE  H17Y 4253   2.116   1.966   4.421  0.1181 -2.3687 -0.7895
   33DOPE  C318 4254   2.246   1.795   4.443 -0.5801 -0.3048 -0.2168
   33DOPE  H18X 4255   2.217   1.740   4.352 -1.8827  2.1166 -1.3612
   33DOPE  H18Y 4256   2.356   1.780   4.446 -0.4648  0.1535 -1.4817
   33DOPE  H18Z 4257   2.201   1.746   4.532  1.1267 -4.4173 -1.3775
   34DOPE     N 4258   1.667   4.374   2.901 -0.0458  0.0131 -0.2224
   34DOPE   HN1 4259   1.575   4.418   2.878 -0.3983  0.7031  2.2535
   34DOPE   HN2 4260   1.737   4.427   2.845  0.4801 -1.1307 -0.6758
   34DOPE   HN3 4261   1.668   4.278   2.861 -1.5955  0.6474 -1.9197
   34DOPE   C12 4262   1.675   4.378   3.051 -0.5829  0.3299 -0.3399
   34DOPE  H12A 4263   1.772   4.333   3.081  0.6775  2.2732 -1.2673
   34DOPE  H12B 4264   1.594   4.319   3.097  0.2748 -0.3583  0.3136
   34DOPE   C11 4265   1.664   4.524   3.100 -0.2129 -0.5047 -0.4331
   34DOPE  H11A 4266   1.705   4.527   3.203 -2.4537 -2.3470  0.5888
   34DOPE  H11B 4267   1.555   4.542   3.112 -0.3100 -1.7749  0.8535
   34DOPE     P 4268   1.878   4.627   2.985  0.0597  0.1352  0.0549
   34DOPE   O13 4269   1.952   4.754   2.973 -0.1307  0.2239 -0.2731
   34DOPE   O14 4270   1.902   4.534   2.870 -0.1714  0.6149 -0.3593
   34DOPE   O11 4271   1.927   4.560   3.118 -0.3692 -0.0535  0.1610
   34DOPE   O12 4272   1.722   4.633   3.014  0.4449 -0.0282 -0.2038
   34DOPE    C1 4273   2.046   4.474   3.123 -0.1966  0.3858  0.5082
   34DOPE    HA 4274   2.141   4.514   3.080 -1.2751  1.2200 -1.2158
   34DOPE    HB 4275   2.017   4.387   3.061  1.3201  0.3028 -0.1162
   34DOPE    C2 4276   2.062   4.432   3.269  0.0480 -0.7925  0.6292
   34DOPE    HS 4277   2.156   4.471   3.313 -0.4397 -2.0958  3.0337
   34DOPE   O21 4278   2.071   4.288   3.277 -0.1571 -0.0495  0.0772
   34DOPE   C21 4279   2.185   4.233   3.237  0.6572  0.0923 -0.2043
   34DOPE   O22 4280   2.280   4.295   3.188  0.1041  0.1784  0.0988
   34DOPE   C22 4281   2.199   4.082   3.269 -0.7832  0.7880 -0.1199
   34DOPE   H2R 4282   2.224   4.038   3.170  0.7302  0.1740  0.4985
   34DOPE   H2S 4283   2.096   4.054   3.300 -0.3965  0.1998  0.6850
   34DOPE    C3 4284   1.950   4.483   3.368  0.8200 -0.3270  0.1445
   34DOPE    HX 4285   1.858   4.445   3.319  0.6221 -0.1379  0.3661
   34DOPE    HY 4286   1.954   4.594   3.373  2.5155 -0.3116 -0.7681
   34DOPE   O31 4287   1.947   4.427   3.493  0.5617  0.1763 -0.0436
   34DOPE   C31 4288   2.052   4.465   3.577 -0.5836 -0.1236  0.4556
   34DOPE   O32 4289   2.147   4.530   3.549 -0.2854 -0.2529  0.3922
   34DOPE   C32 4290   2.040   4.397   3.707 -0.0557 -0.0925  0.4613
   34DOPE   H2X 4291   1.979   4.304   3.697  0.7016 -0.6518  0.8990
   34DOPE   H2Y 4292   2.135   4.376   3.761  0.3874 -0.5140 -0.4576
   34DOPE   C23 4293   2.301   4.055   3.382  0.5780  0.7813  0.6717
   34DOPE   H3R 4294   2.402   4.097   3.364  0.7970 -0.1963 -0.4960
   34DOPE   H3S 4295   2.305   3.945   3.375 -2.1882  0.6962 -1.3584
   34DOPE   C24 4296   2.238   4.094   3.521 -0.2560  0.4861 -0.1355
   34DOPE   H4R 4297   2.130   4.113   3.507  0.1125  1.7349 -1.5197
   34DOPE   H4S 4298   2.281   4.185   3.569  0.5682 -0.6879  1.4669
   34DOPE   C25 4299   2.245   3.979   3.627  0.3158 -0.5550 -0.5153
   34DOPE   H5R 4300   2.348   3.956   3.662  0.5866  1.5141  0.1672
   34DOPE   H5S 4301   2.195   3.889   3.586 -3.0792  1.4710 -1.2276
   34DOPE   C26 4302   2.168   4.012   3.765  0.2509 -0.0481  0.2818
   34DOPE   H6R 4303   2.062   4.035   3.743  0.0235  0.5148  1.8413
   34DOPE   H6S 4304   2.208   4.105   3.811 -0.4027  0.4244 -0.0840
   34DOPE   C27 4305   2.187   3.904   3.875  0.0782 -0.1948 -0.1166
   34DOPE   H7R 4306   2.281   3.907   3.933  0.2520 -3.0484 -0.1104
   34DOPE   H7S 4307   2.198   3.808   3.820  3.3425  0.5015 -0.8761
   34DOPE   C28 4308   2.076   3.897   3.973  0.7231  0.5445 -0.3817
   34DOPE   H8R 4309   2.087   3.801   4.028  0.3400  0.1736 -0.9392
   34DOPE   H8S 4310   1.982   3.880   3.917  0.5684 -1.8586  0.4997
   34DOPE   C29 4311   2.075   4.013   4.072 -0.2510  0.8113  0.1556
   34DOPE   H9R 4312   2.053   4.113   4.033  1.0200  1.1195  0.1623
   34DOPE  C210 4313   2.089   3.994   4.211  0.5416 -0.1795  0.2009
   34DOPE  H10R 4314   2.081   4.074   4.287  0.8703 -4.5852  5.5319
   34DOPE  C211 4315   2.099   3.866   4.284  0.7122 -0.4631  0.4866
   34DOPE  H11R 4316   2.186   3.873   4.353  0.6294 -1.5926  0.7289
   34DOPE  H11S 4317   2.119   3.780   4.216  1.2272 -0.7711  1.0145
   34DOPE  C212 4318   1.961   3.851   4.357  0.8486 -0.4865 -0.9585
   34DOPE  H12R 4319   1.956   3.770   4.433 -1.2546  1.1413  0.7454
   34DOPE  H12S 4320   1.875   3.827   4.291  1.2611 -1.1428 -1.2728
   34DOPE  C213 4321   1.925   3.960   4.458 -0.3191  0.1822 -0.2545
   34DOPE  H13R 4322   1.822   3.931   4.488  0.0546 -1.3503 -0.3875
   34DOPE  H13S 4323   1.904   4.063   4.420  0.1806 -0.0819 -1.2542
   34DOPE  C214 4324   2.020   3.964   4.581 -0.6153 -0.1004 -0.6309
   34DOPE  H14R 4325   2.129   3.964   4.562  0.2808  1.9970  3.4751
   34DOPE  H14S 4326   2.001   3.870   4.637  1.0987 -1.9433 -2.9192
   34DOPE  C215 4327   1.993   4.073   4.688  0.8208  0.8065  0.4342
   34DOPE  H15R 4328   1.887   4.060   4.718  0.6042 -0.7232 -0.8846
   34DOPE  H15S 4329   2.010   4.175   4.647 -0.7497  1.3134  0.9988
   34DOPE  C216 4330   2.089   4.062   4.811 -0.3143  0.0110 -0.3462
   34DOPE  H16R 4331   2.190   4.067   4.765 -0.1583 -2.2702 -0.3939
   34DOPE  H16S 4332   2.077   3.962   4.858  0.5764 -0.2791 -0.7267
   34DOPE  C217 4333   2.075   4.170   4.913 -0.2853  0.4219 -0.3525
   34DOPE  H17R 4334   1.974   4.180   4.959  1.0503  0.4732  2.8563
   34DOPE  H17S 4335   2.075   4.266   4.859  1.8566 -0.5113 -2.1812
   34DOPE  C218 4336   2.178   4.171   5.025  0.5691 -0.1329  0.4293
   34DOPE  H18R 4337   2.156   4.093   5.101  1.0919 -0.1229  0.5934
   34DOPE  H18S 4338   2.181   4.271   5.072  1.5531 -0.6891  1.6109
   34DOPE  H18T 4339   2.281   4.147   4.990  1.9745  3.2976  1.7761
   34DOPE   C33 4340   1.950   4.479   3.802 -0.0793 -0.4614 -0.2233
   34DOPE   H3X 4341   1.844   4.469   3.772 -0.8957  0.8441  1.9261
   34DOPE   H3Y 4342   1.976   4.587   3.794 -1.0194 -0.3212 -1.6127
   34DOPE   C34 4343   1.949   4.433   3.952 -0.0816 -0.8637  0.2734
   34DOPE   H4X 4344   1.863   4.364   3.967 -1.1618  0.6403  1.2769
   34DOPE   H4Y 4345   2.040   4.377   3.983  0.7498  0.4031  0.1868
   34DOPE   C35 4346   1.919   4.535   4.059  0.6421  0.0874  0.2859
   34DOPE   H5X 4347   1.809   4.553   4.066  0.4777 -0.4715 -0.7326
   34DOPE   H5Y 4348   1.983   4.625   4.052  1.8878 -0.7970  0.0522
   34DOPE   C36 4349   1.945   4.470   4.198 -1.1829 -0.1957  0.5341
   34DOPE   H6X 4350   2.050   4.435   4.197 -0.8711  0.6667  1.3436
   34DOPE   H6Y 4351   1.880   4.382   4.212  1.0028 -1.9921 -0.0159
   34DOPE   C37 4352   1.928   4.570   4.312 -0.3692  0.6653  0.3036
   34DOPE   H7X 4353   2.000   4.654   4.298  0.4409 -0.3511 -2.2294
   34DOPE   H7Y 4354   1.825   4.612   4.320 -1.2105 -1.3995  0.9370
   34DOPE   C38 4355   1.978   4.505   4.442 -0.5635 -0.4533  0.6149
   34DOPE   H8X 4356   1.973   4.586   4.519  0.3266 -0.5164  0.7571
   34DOPE   H8Y 4357   2.084   4.473   4.437 -0.3389  0.4353 -0.6157
   34DOPE   C39 4358   1.882   4.398   4.488  0.4510 -0.2557  0.8502
   34DOPE   H9X 4359   1.895   4.304   4.432 -1.7797 -0.9241  1.3478
   34DOPE  C310 4360   1.792   4.392   4.582  0.1450  0.0096 -0.1676
   34DOPE  H10X 4361   1.748   4.293   4.598 -1.0676  0.2101 -1.9873
   34DOPE  C311 4362   1.735   4.508   4.660  0.0152 -0.7931 -0.3021
   34DOPE  H11X 4363   1.783   4.512   4.760 -1.9854 -3.3234  0.8447
   34DOPE  H11Y 4364   1.749   4.604   4.606  0.2176 -0.8731 -0.3930
   34DOPE  C312 4365   1.588   4.504   4.706  0.5079  0.1534  0.6376
   34DOPE  H12X 4366   1.586   4.417   4.775  3.1629 -1.7212 -1.4181
   34DOPE  H12Y 4367   1.525   4.476   4.619  2.2436  1.0132 -0.9751
   34DOPE  C313 4368   1.541   4.639   4.763  0.1371 -0.0591 -0.1458
   34DOPE  H13X 4369   1.593   4.662   4.859 -0.1970 -1.9091  0.5088
   34DOPE  H13Y 4370   1.582   4.724   4.704 -2.1634  0.1562 -1.5461
   34DOPE  C314 4371   1.391   4.641   4.809  0.1574 -0.3524  0.4798
   34DOPE  H14X 4372   1.375   4.580   4.900 -0.7989  2.1493  2.0919
   34DOPE  H14Y 4373   1.331   4.604   4.723 -0.0495 -1.1525  0.9582
   34DOPE  C315 4374   1.316   4.782   4.835 -0.5356 -0.2079 -0.3369
   34DOPE  H15X 4375   1.344   4.845   4.748 -2.8086  2.3700  0.6654
   34DOPE  H15Y 4376   1.360   4.831   4.924  1.3692 -1.7451 -0.3497
   34DOPE  C316 4377   1.162   4.767   4.864 -0.2542 -0.3261  0.1929
   34DOPE  H16X 4378   1.148   4.721   4.964  1.1697 -0.7606  0.2168
   34DOPE  H16Y 4379   1.125   4.695   4.787  0.6186 -0.0267 -0.5345
   34DOPE  C317 4380   1.095   4.899   4.872 -0.1223  0.2746  0.5938
   34DOPE  H17X 4381   1.149   4.966   4.942 -0.5698 -1.9649  3.2365
   34DOPE  H17Y 4382   1.105   4.952   4.775  0.8039 -1.3554 -0.2401
   34DOPE  C318 4383   0.943   4.883   4.915 -0.1650 -0.2896 -0.5775
   34DOPE  H18X 4384   0.889   4.824   4.838 -1.2385 -2.4048  1.6682
   34DOPE  H18Y 4385   0.946   4.840   5.018  1.7936 -0.7820 -0.8006
   34DOPE  H18Z 4386   0.904   4.987   4.921  1.2565  0.4098 -2.3391
   35DOPE     N 4387   4.304   3.550   2.154 -0.2131 -0.0452  0.2778
   35DOPE   HN1 4388   4.268   3.645   2.174  0.6364  0.1164  1.1379
   35DOPE   HN2 4389   4.407   3.542   2.170 -0.5101 -3.3856  1.1730
   35DOPE   HN3 4390   4.279   3.534   2.055 -2.2638  0.8453  0.6125
   35DOPE   C12 4391   4.246   3.449   2.242  0.3348 -0.2458  1.0420
   35DOPE  H12A 4392   4.272   3.351   2.196 -0.6389  0.1300 -0.4107
   35DOPE  H12B 4393   4.135   3.455   2.232  0.2152 -2.1193  0.7592
   35DOPE   C11 4394   4.309   3.458   2.377 -0.0509  0.1922  0.3436
   35DOPE  H11A 4395   4.418   3.436   2.381  0.2868  1.0545 -2.2884
   35DOPE  H11B 4396   4.263   3.376   2.436 -1.7705 -0.8760 -2.3150
   35DOPE     P 4397   4.164   3.639   2.495  0.2675  0.0636 -0.2495
   35DOPE   O13 4398   4.056   3.601   2.398 -0.4689 -0.0379 -0.4442
   35DOPE   O14 4399   4.162   3.776   2.541 -0.4241 -0.1973  0.1158
   35DOPE   O11 4400   4.152   3.553   2.615  1.3120  0.2216 -0.4180
   35DOPE   O12 4401   4.304   3.594   2.434  0.1243 -0.3906 -0.0264
   35DOPE    C1 4402   4.263   3.542   2.705  0.3720 -0.5201 -0.1249
   35DOPE    HA 4403   4.322   3.636   2.695 -1.0313  0.3424 -0.6042
   35DOPE    HB 4404   4.321   3.452   2.675 -1.6376 -1.7140 -0.6804
   35DOPE    C2 4405   4.220   3.530   2.851 -0.3374  0.3397 -0.0996
   35DOPE    HS 4406   4.173   3.627   2.877 -0.3631 -0.1568  1.8042
   35DOPE   O21 4407   4.332   3.495   2.938 -0.4198 -0.1060  0.7490
   35DOPE   C21 4408   4.414   3.603   2.964  0.8122  0.4016  0.4610
   35DOPE   O22 4409   4.396   3.714   2.919 -0.3089 -0.1655 -0.6719
   35DOPE   C22 4410   4.523   3.562   3.062 -0.0337  0.1348  0.0466
   35DOPE   H2R 4411   4.586   3.651   3.082 -1.6111  1.1574  0.7171
   35DOPE   H2S 4412   4.583   3.490   3.002 -0.0707  1.0390 -1.1099
   35DOPE    C3 4413   4.116   3.417   2.875 -0.5425  0.5332 -0.0552
   35DOPE    HX 4414   4.161   3.325   2.831  0.4908  0.9574  0.1025
   35DOPE    HY 4415   4.028   3.426   2.807 -0.2665  2.7329 -0.1671
   35DOPE   O31 4416   4.081   3.394   3.012  0.6851  0.3350  0.2097
   35DOPE   C31 4417   4.124   3.275   3.059  0.1687 -0.6154 -0.1262
   35DOPE   O32 4418   4.201   3.197   3.002 -0.5939 -0.8306 -0.5277
   35DOPE   C32 4419   4.047   3.240   3.181  0.1197 -0.1187 -0.0416
   35DOPE   H2X 4420   3.961   3.310   3.188  0.9832  0.8631  1.2446
   35DOPE   H2Y 4421   4.003   3.138   3.170 -2.8831  0.9778  0.9043
   35DOPE   C23 4422   4.462   3.500   3.185  0.1553  0.1493  0.1972
   35DOPE   H3R 4423   4.432   3.394   3.164  0.9826  0.1135 -0.9416
   35DOPE   H3S 4424   4.374   3.555   3.222  1.1890  2.1582 -0.2129
   35DOPE   C24 4425   4.561   3.489   3.303 -0.6317 -0.2443 -0.1754
   35DOPE   H4R 4426   4.603   3.591   3.320  0.2200 -0.7890  1.1942
   35DOPE   H4S 4427   4.645   3.420   3.280 -0.9258 -0.1476 -1.5897
   35DOPE   C25 4428   4.491   3.439   3.432 -0.0668  0.1549  0.7956
   35DOPE   H5R 4429   4.462   3.332   3.419 -1.0587  0.4709  0.2730
   35DOPE   H5S 4430   4.395   3.492   3.453  0.1015  0.7908  0.0082
   35DOPE   C26 4431   4.589   3.452   3.543 -0.6415  0.1896 -0.0907
   35DOPE   H6R 4432   4.610   3.556   3.577  1.5773  0.7003 -2.6410
   35DOPE   H6S 4433   4.690   3.416   3.514 -1.0028 -0.3587 -0.6834
   35DOPE   C27 4434   4.529   3.368   3.659 -0.3795 -0.5150  0.0254
   35DOPE   H7R 4435   4.541   3.260   3.637  0.1076 -0.2741 -0.9335
   35DOPE   H7S 4436   4.425   3.406   3.670  0.4684  2.1987 -0.6848
   35DOPE   C28 4437   4.610   3.382   3.794 -0.1313 -0.6306  0.2326
   35DOPE   H8R 4438   4.595   3.484   3.837 -1.0262 -1.0956  1.0632
   35DOPE   H8S 4439   4.718   3.366   3.770  0.2072  0.6324  0.7932
   35DOPE   C29 4440   4.567   3.285   3.895  0.3952  0.6116 -0.0907
   35DOPE   H9R 4441   4.551   3.182   3.861  1.4099  0.1760  0.6902
   35DOPE  C210 4442   4.543   3.311   4.028  0.4408 -0.1130 -0.3478
   35DOPE  H10R 4443   4.496   3.234   4.091  3.3182 -0.1381  1.9848
   35DOPE  C211 4444   4.544   3.447   4.098 -0.0768 -0.2176  0.8614
   35DOPE  H11R 4445   4.440   3.481   4.121 -0.2180  1.2484 -1.6415
   35DOPE  H11S 4446   4.607   3.518   4.041  3.1589 -2.5505  1.2609
   35DOPE  C212 4447   4.623   3.450   4.233  0.3479  0.0358  0.1778
   35DOPE  H12R 4448   4.639   3.559   4.249  0.0770 -0.0059  0.7615
   35DOPE  H12S 4449   4.716   3.398   4.203 -0.2798 -0.7757 -0.4073
   35DOPE  C213 4450   4.562   3.373   4.350 -0.1221 -0.0165 -0.0719
   35DOPE  H13R 4451   4.575   3.264   4.337  0.0550  0.1625 -1.5675
   35DOPE  H13S 4452   4.453   3.395   4.353  0.0693  0.9054  0.9210
   35DOPE  C214 4453   4.634   3.413   4.478 -1.1123 -0.1505  0.9587
   35DOPE  H14R 4454   4.629   3.524   4.485 -0.6052  0.0297 -0.9106
   35DOPE  H14S 4455   4.737   3.376   4.456 -1.4913  0.4578 -2.5060
   35DOPE  C215 4456   4.590   3.339   4.600 -0.5951 -0.5478 -0.0816
   35DOPE  H15R 4457   4.479   3.330   4.601 -0.7489 -0.7411 -3.8654
   35DOPE  H15S 4458   4.622   3.388   4.694 -2.5179  1.3841 -0.3557
   35DOPE  C216 4459   4.652   3.201   4.609 -0.1870  0.5074  0.1798
   35DOPE  H16R 4460   4.762   3.220   4.607 -0.1128  0.1645  0.8017
   35DOPE  H16S 4461   4.626   3.141   4.519  2.2083  2.0619 -1.6680
   35DOPE  C217 4462   4.602   3.130   4.741  0.2764 -0.3199 -0.5601
   35DOPE  H17R 4463   4.491   3.133   4.733  0.2996 -0.3697 -0.9270
   35DOPE  H17S 4464   4.639   3.187   4.829  0.2429 -1.4191  0.1833
   35DOPE  C218 4465   4.639   2.983   4.761 -0.5024  0.7578  0.7243
   35DOPE  H18R 4466   4.573   2.916   4.820 -2.1059  1.0372 -0.6546
   35DOPE  H18S 4467   4.745   2.973   4.792 -0.3716  1.1737  0.4234
   35DOPE  H18T 4468   4.612   2.942   4.661 -0.7108 -1.3347  1.5895
   35DOPE   C33 4469   4.142   3.250   3.305 -0.3241  0.1191  0.6105
   35DOPE   H3X 4470   4.193   3.348   3.289  0.7902 -0.5606 -0.1039
   35DOPE   H3Y 4471   4.210   3.163   3.307 -2.1675 -1.3952  0.8929
   35DOPE   C34 4472   4.071   3.266   3.438  0.8195 -0.0481  0.2766
   35DOPE   H4X 4473   3.982   3.332   3.423 -0.1337 -0.8951  1.8526
   35DOPE   H4Y 4474   4.033   3.164   3.460  0.1224 -0.1150 -1.1041
   35DOPE   C35 4475   4.152   3.335   3.544  0.0655 -0.1353  0.8613
   35DOPE   H5X 4476   4.163   3.444   3.526  1.1031 -0.3479  0.0837
   35DOPE   H5Y 4477   4.250   3.283   3.549 -0.1163 -0.4795  0.9054
   35DOPE   C36 4478   4.079   3.306   3.674  0.2689 -0.1995  0.2209
   35DOPE   H6X 4479   4.084   3.195   3.680  0.6542 -0.1679  0.5038
   35DOPE   H6Y 4480   3.970   3.329   3.675  0.0259 -1.2459 -0.2603
   35DOPE   C37 4481   4.138   3.374   3.800  0.1088 -0.2242  0.3499
   35DOPE   H7X 4482   4.081   3.338   3.888 -1.2181  0.5490 -0.1616
   35DOPE   H7Y 4483   4.242   3.342   3.823  0.3426  0.7366  0.6694
   35DOPE   C38 4484   4.142   3.525   3.786 -0.1794 -0.1343 -0.6821
   35DOPE   H8X 4485   4.212   3.550   3.704  0.4159  1.4898  0.2720
   35DOPE   H8Y 4486   4.194   3.565   3.876  0.0267 -1.1974 -0.3183
   35DOPE   C39 4487   4.009   3.603   3.770  0.3035  0.0089 -0.0498
   35DOPE   H9X 4488   3.954   3.578   3.679  0.6940 -1.7647  0.1753
   35DOPE  C310 4489   3.957   3.695   3.850 -1.2461  0.1333 -1.1055
   35DOPE  H10X 4490   3.856   3.731   3.828 -0.0242  2.8627 -2.8252
   35DOPE  C311 4491   4.017   3.765   3.973  0.3831  0.1007 -0.0520
   35DOPE  H11X 4492   4.128   3.757   3.962  0.6338  2.6677 -0.0605
   35DOPE  H11Y 4493   3.979   3.869   3.975 -0.2860 -0.0996  3.7495
   35DOPE  C312 4494   3.980   3.724   4.122 -0.7545 -1.1017  0.5424
   35DOPE  H12X 4495   3.875   3.739   4.155 -1.2023  0.9207 -1.5545
   35DOPE  H12Y 4496   4.031   3.801   4.183 -2.9222 -0.0390  1.1406
   35DOPE  C313 4497   4.029   3.580   4.155 -0.7704  0.0821  0.0989
   35DOPE  H13X 4498   3.997   3.506   4.078 -1.8683 -1.5129  2.0122
   35DOPE  H13Y 4499   4.139   3.587   4.138 -1.0833  0.4071 -2.2000
   35DOPE  C314 4500   4.006   3.535   4.290 -0.4964  0.1699 -0.1384
   35DOPE  H14X 4501   4.045   3.432   4.302 -0.2464  0.4020  1.1630
   35DOPE  H14Y 4502   3.900   3.549   4.317 -0.4758 -0.5188  0.3162
   35DOPE  C315 4503   4.079   3.624   4.398  0.0772 -0.1906 -0.5111
   35DOPE  H15X 4504   4.040   3.727   4.410  1.8763  0.6706 -1.5353
   35DOPE  H15Y 4505   4.181   3.636   4.355 -0.4828 -1.5793 -2.3656
   35DOPE  C316 4506   4.076   3.560   4.539  0.6676  0.0702  0.4946
   35DOPE  H16X 4507   4.145   3.607   4.613  1.6905  0.0334 -0.4182
   35DOPE  H16Y 4508   4.101   3.452   4.532 -1.5077 -0.5031  0.7698
   35DOPE  C317 4509   3.938   3.550   4.601  0.1677  0.0451  0.4454
   35DOPE  H17X 4510   3.893   3.651   4.589 -1.0715 -0.2159  2.5138
   35DOPE  H17Y 4511   3.878   3.476   4.544  1.6875 -1.7217  1.0479
   35DOPE  C318 4512   3.946   3.518   4.746 -0.5332  0.3447 -0.3380
   35DOPE  H18X 4513   3.839   3.510   4.776 -0.5438 -0.8592 -0.6491
   35DOPE  H18Y 4514   3.997   3.420   4.761 -0.7947  0.0336 -1.3865
   35DOPE  H18Z 4515   3.987   3.608   4.796 -1.1015  1.2015 -1.3706
   36DOPE     N 4516   5.206   4.397   2.695  0.4379 -0.4632  0.4979
   36DOPE   HN1 4517   5.170   4.486   2.736  0.7502 -0.6988  1.2999
   36DOPE   HN2 4518   5.121   4.341   2.672  0.2930  0.4246 -1.3449
   36DOPE   HN3 4519   5.256   4.350   2.773  1.5011  1.3801  0.9970
   36DOPE   C12 4520   5.298   4.430   2.584  0.5754  0.0309  0.3841
   36DOPE  H12A 4521   5.233   4.480   2.509 -0.2842  0.4554  1.4007
   36DOPE  H12B 4522   5.345   4.340   2.537  2.6663  1.5182 -0.5192
   36DOPE   C11 4523   5.400   4.536   2.636 -0.9387  0.2187  0.6967
   36DOPE  H11A 4524   5.356   4.631   2.675  2.2290  1.7878  0.7690
   36DOPE  H11B 4525   5.446   4.565   2.539 -3.6497 -1.2056 -1.1487
   36DOPE     P 4526   5.620   4.562   2.764  0.0450 -0.2106 -0.1511
   36DOPE   O13 4527   5.703   4.575   2.644  0.1776 -0.7629  0.5835
   36DOPE   O14 4528   5.698   4.515   2.882  0.1087 -0.4662  0.4612
   36DOPE   O11 4529   5.561   4.705   2.799  0.2037 -0.2864  0.2453
   36DOPE   O12 4530   5.489   4.483   2.738  0.4349  0.4724 -0.5034
   36DOPE    C1 4531   5.478   4.726   2.920 -0.0140  0.1738  0.7228
   36DOPE    HA 4532   5.405   4.644   2.935  0.7089 -1.0964 -2.0155
   36DOPE    HB 4533   5.418   4.818   2.903  2.7522  1.9862 -0.0447
   36DOPE    C2 4534   5.565   4.750   3.044  0.2453  0.1273  0.3845
   36DOPE    HS 4535   5.646   4.674   3.044  0.6684  0.5724  0.2844
   36DOPE   O21 4536   5.476   4.746   3.162 -0.3232 -0.0374  0.0834
   36DOPE   C21 4537   5.536   4.710   3.272 -0.2699 -0.1413 -0.9041
   36DOPE   O22 4538   5.651   4.671   3.286  0.0003 -0.2232 -0.0582
   36DOPE   C22 4539   5.433   4.708   3.386  0.5199  0.0504  0.2314
   36DOPE   H2R 4540   5.348   4.643   3.355  1.3925 -1.5376  1.0010
   36DOPE   H2S 4541   5.387   4.808   3.397  0.2054  0.0915 -1.2433
   36DOPE    C3 4542   5.645   4.885   3.036  0.2210 -0.9745  0.6268
   36DOPE    HX 4543   5.565   4.962   3.027 -0.4380 -1.5113  1.6399
   36DOPE    HY 4544   5.710   4.888   2.946 -0.5095  0.6186  0.1051
   36DOPE   O31 4545   5.707   4.918   3.162  0.3945 -0.0813  0.1589
   36DOPE   C31 4546   5.836   4.894   3.176  0.6331  0.5271  0.4997
   36DOPE   O32 4547   5.914   4.842   3.094  0.0449 -0.5159 -0.1180
   36DOPE   C32 4548   5.872   4.924   3.318  0.3763 -0.6368 -0.6289
   36DOPE   H2X 4549   5.810   5.004   3.363  2.8639  0.0672  1.7429
   36DOPE   H2Y 4550   5.836   4.826   3.357 -1.6329  1.2873  2.8136
   36DOPE   C23 4551   5.485   4.639   3.515  0.4243  0.4803 -1.0999
   36DOPE   H3R 4552   5.578   4.693   3.543  1.6358 -1.7783 -0.4820
   36DOPE   H3S 4553   5.510   4.532   3.501 -0.3945  0.0245  0.6492
   36DOPE   C24 4554   5.388   4.648   3.634  0.6641  0.1511  0.6099
   36DOPE   H4R 4555   5.320   4.562   3.614  0.9751  0.7183 -4.0494
   36DOPE   H4S 4556   5.324   4.738   3.627 -3.1959 -2.4080 -0.1280
   36DOPE   C25 4557   5.458   4.638   3.772  0.3330 -0.4300 -0.2866
   36DOPE   H5R 4558   5.543   4.708   3.772  1.9653 -2.3098 -0.6132
   36DOPE   H5S 4559   5.510   4.540   3.780  0.5409 -0.5303 -2.3930
   36DOPE   C26 4560   5.365   4.660   3.895  0.3616 -0.1377  1.2381
   36DOPE   H6R 4561   5.302   4.568   3.898  2.4819 -1.6417  1.5471
   36DOPE   H6S 4562   5.305   4.752   3.878 -0.4210 -0.6763  1.0160
   36DOPE   C27 4563   5.433   4.683   4.026 -0.7250  0.2293 -0.2718
   36DOPE   H7R 4564   5.523   4.749   4.024 -1.9411  2.0216  0.5142
   36DOPE   H7S 4565   5.467   4.583   4.059  1.9206  0.9445 -0.5894
   36DOPE   C28 4566   5.349   4.751   4.135  0.4158 -0.0552 -0.2095
   36DOPE   H8R 4567   5.258   4.690   4.157  0.0505 -0.0987 -1.7358
   36DOPE   H8S 4568   5.309   4.852   4.109 -3.5705 -0.9379  1.6926
   36DOPE   C29 4569   5.431   4.764   4.258 -1.0895  0.3088 -0.3350
   36DOPE   H9R 4570   5.526   4.816   4.237  0.4015 -1.4047  1.7673
   36DOPE  C210 4571   5.404   4.730   4.388  0.3360  0.0747 -0.6567
   36DOPE  H10R 4572   5.483   4.751   4.462 -0.4378 -1.0733  0.5450
   36DOPE  C211 4573   5.280   4.671   4.446  0.2364  0.3343  0.4838
   36DOPE  H11R 4574   5.197   4.674   4.373 -0.3924 -2.2792  1.0009
   36DOPE  H11S 4575   5.241   4.730   4.531  0.6854  1.5263 -0.1175
   36DOPE  C212 4576   5.292   4.534   4.512 -0.0091 -0.3412 -0.1378
   36DOPE  H12R 4577   5.388   4.523   4.567  0.2731  0.8337 -0.3772
   36DOPE  H12S 4578   5.286   4.455   4.434  1.5989  0.2458 -0.8862
   36DOPE  C213 4579   5.171   4.515   4.614 -0.6913 -0.5857 -0.3683
   36DOPE  H13R 4580   5.075   4.522   4.560  0.3135  1.6510 -2.0316
   36DOPE  H13S 4581   5.176   4.596   4.691 -1.3839 -1.3647  0.5181
   36DOPE  C214 4582   5.182   4.371   4.681 -0.4732  0.4795  0.1046
   36DOPE  H14R 4583   5.281   4.329   4.653 -0.8390 -0.3391  0.0012
   36DOPE  H14S 4584   5.117   4.300   4.625 -1.4946  0.0418  1.7794
   36DOPE  C215 4585   5.169   4.348   4.836 -0.3453  0.1636 -0.5813
   36DOPE  H15R 4586   5.063   4.359   4.864 -0.6685 -0.4259 -1.5338
   36DOPE  H15S 4587   5.226   4.424   4.894 -0.6058  0.2484 -0.4339
   36DOPE  C216 4588   5.209   4.205   4.883  0.7273 -0.3090 -0.1593
   36DOPE  H16R 4589   5.217   4.221   4.993  0.1674 -0.9817 -0.0164
   36DOPE  H16S 4590   5.315   4.200   4.852  1.3255  0.8555  1.5049
   36DOPE  C217 4591   5.116   4.087   4.834 -0.3526 -0.1364  0.3527
   36DOPE  H17R 4592   5.133   4.069   4.726 -0.3941  1.0780  0.1275
   36DOPE  H17S 4593   5.008   4.114   4.833  0.1281  1.9179  0.0365
   36DOPE  C218 4594   5.142   3.964   4.911 -0.1966  0.3040 -0.0059
   36DOPE  H18R 4595   5.120   3.975   5.019  1.5820  1.5379  0.2751
   36DOPE  H18S 4596   5.251   3.941   4.905 -0.1518  0.7672 -1.4128
   36DOPE  H18T 4597   5.093   3.869   4.880  1.3029 -0.0412 -1.5157
   36DOPE   C33 4598   6.018   4.938   3.345 -0.3670 -0.1614  0.2365
   36DOPE   H3X 4599   6.081   4.879   3.274 -0.8632  1.5773 -1.7537
   36DOPE   H3Y 4600   6.028   4.901   3.449 -0.9381 -2.7248 -0.5554
   36DOPE   C34 4601   6.071   5.076   3.350 -0.9115  1.2662 -0.5815
   36DOPE   H4X 4602   6.181   5.064   3.361 -1.1151 -0.7093 -0.3607
   36DOPE   H4Y 4603   6.056   5.117   3.248 -1.8321  2.4752  0.0160
   36DOPE   C35 4604   6.024   5.170   3.464  0.1894  0.8121 -0.3723
   36DOPE   H5X 4605   6.116   5.223   3.497  1.7800 -2.1291  0.2839
   36DOPE   H5Y 4606   5.984   5.116   3.553 -1.6427  0.3313 -1.4437
   36DOPE   C36 4607   5.918   5.273   3.415 -0.1894 -0.0019 -0.5118
   36DOPE   H6X 4608   5.818   5.228   3.399 -0.4577  0.1565  0.6461
   36DOPE   H6Y 4609   5.946   5.307   3.312 -0.5423  0.2451 -0.5269
   36DOPE   C37 4610   5.919   5.394   3.514 -0.4144 -0.2055  0.1554
   36DOPE   H7X 4611   5.920   5.353   3.617 -2.9315  1.0973  0.7720
   36DOPE   H7Y 4612   6.021   5.434   3.498  1.2485 -3.9855  0.2505
   36DOPE   C38 4613   5.809   5.503   3.490  0.0264  0.0796  0.0534
   36DOPE   H8X 4614   5.804   5.526   3.381  2.3871 -0.7498 -0.2880
   36DOPE   H8Y 4615   5.827   5.599   3.543 -1.0499  0.0547  0.4925
   36DOPE   C39 4616   5.680   5.453   3.543 -0.0909  0.1052 -0.0017
   36DOPE   H9X 4617   5.643   5.364   3.490  0.8226 -0.0061 -0.4658
   36DOPE  C310 4618   5.605   5.498   3.648 -0.0939  0.4987 -0.3418
   36DOPE  H10X 4619   5.507   5.450   3.665  0.5163 -0.4172  0.7142
   36DOPE  C311 4620   5.644   5.601   3.750  0.0690  0.9977 -0.3036
   36DOPE  H11X 4621   5.620   5.564   3.852  0.2041 -2.4663 -1.4164
   36DOPE  H11Y 4622   5.752   5.630   3.745  0.1486  1.0960  1.5139
   36DOPE  C312 4623   5.568   5.738   3.720 -0.1143  0.8376 -0.4835
   36DOPE  H12X 4624   5.458   5.725   3.721 -0.4717  3.3781  0.9360
   36DOPE  H12Y 4625   5.603   5.776   3.621 -0.9508 -0.4263 -1.2838
   36DOPE  C313 4626   5.611   5.851   3.824  0.0220  0.2572  0.6522
   36DOPE  H13X 4627   5.721   5.858   3.833  0.1420 -1.3854  0.6866
   36DOPE  H13Y 4628   5.592   5.949   3.776  2.2945  0.4028 -0.0659
   36DOPE  C314 4629   5.548   5.829   3.959 -0.0312 -0.0973 -0.6467
   36DOPE  H14X 4630   5.588   5.734   4.000  0.2301 -0.2985 -1.3513
   36DOPE  H14Y 4631   5.439   5.818   3.942 -0.3389  3.2011 -1.4521
   36DOPE  C315 4632   5.581   5.942   4.049 -1.0757  0.1801  0.7322
   36DOPE  H15X 4633   5.519   6.031   4.022 -0.1967  0.2752 -1.1287
   36DOPE  H15Y 4634   5.684   5.979   4.033 -1.4356  1.0518  0.3282
   36DOPE  C316 4635   5.561   5.895   4.193  0.2914 -0.2821 -0.3109
   36DOPE  H16X 4636   5.612   5.796   4.201  1.3102  0.1489 -1.1006
   36DOPE  H16Y 4637   5.452   5.891   4.214  0.7724  0.5470  2.7770
   36DOPE  C317 4638   5.634   5.994   4.289 -0.3902  0.3149 -0.3917
   36DOPE  H17X 4639   5.735   6.027   4.259  0.2030 -0.4720  0.6429
   36DOPE  H17Y 4640   5.570   6.084   4.278  0.5179  0.9904 -0.2663
   36DOPE  C318 4641   5.618   5.961   4.439  0.1436 -0.2299  0.3126
   36DOPE  H18X 4642   5.686   5.878   4.469 -1.7547 -2.1131 -0.3492
   36DOPE  H18Y 4643   5.618   6.056   4.495 -1.1425  0.4973 -0.8625
   36DOPE  H18Z 4644   5.513   5.925   4.451 -0.7065  0.8176 -2.8699
   37DOPE     N 4645   1.681   3.087   2.372  0.1248 -0.8825 -0.4377
   37DOPE   HN1 4646   1.748   3.057   2.446  0.0110  0.1635  0.1155
   37DOPE   HN2 4647   1.703   3.065   2.272 -2.0226 -0.4347 -1.0470
   37DOPE   HN3 4648   1.664   3.189   2.380  0.6801 -0.6921 -1.4500
   37DOPE   C12 4649   1.566   3.002   2.394  0.3116  0.0123  0.0410
   37DOPE  H12A 4650   1.490   3.032   2.319 -0.9068  0.8828  1.5864
   37DOPE  H12B 4651   1.527   3.007   2.498 -3.7695  0.6291 -1.3692
   37DOPE   C11 4652   1.590   2.850   2.368  0.0317  0.1808  0.3666
   37DOPE  H11A 4653   1.600   2.820   2.261 -1.4151  0.8439  0.0202
   37DOPE  H11B 4654   1.489   2.809   2.390 -1.1265  1.6960 -1.7852
   37DOPE     P 4655   1.664   2.692   2.563  0.0935 -0.1250 -0.0877
   37DOPE   O13 4656   1.789   2.665   2.640  0.2761 -0.3423 -0.8784
   37DOPE   O14 4657   1.596   2.576   2.499  0.0136 -0.0608  0.0820
   37DOPE   O11 4658   1.561   2.774   2.659  0.2753  0.4814  0.1639
   37DOPE   O12 4659   1.698   2.800   2.442 -0.5281  0.4848 -0.0422
   37DOPE    C1 4660   1.601   2.874   2.751  0.6597  0.1101  0.1610
   37DOPE    HA 4661   1.570   2.977   2.724  1.4852  1.1508  2.8513
   37DOPE    HB 4662   1.711   2.887   2.752  0.6553  0.2867 -0.6689
   37DOPE    C2 4663   1.580   2.853   2.906  0.4286 -0.5672  0.4191
   37DOPE    HS 4664   1.646   2.924   2.959 -0.4036  0.8840 -0.4272
   37DOPE   O21 4665   1.603   2.713   2.932  0.7930  0.0411 -0.1886
   37DOPE   C21 4666   1.735   2.683   2.939 -0.2607 -0.7642  0.5296
   37DOPE   O22 4667   1.819   2.770   2.945 -0.9433  0.1798 -0.0570
   37DOPE   C22 4668   1.765   2.527   2.949  0.7771  0.3659 -0.2900
   37DOPE   H2R 4669   1.790   2.495   2.846  0.0700 -1.9629  0.2036
   37DOPE   H2S 4670   1.673   2.474   2.984  0.8726  0.5107  0.1928
   37DOPE    C3 4671   1.437   2.890   2.939  0.3320 -0.1127  0.0170
   37DOPE    HX 4672   1.358   2.822   2.902 -0.0236  0.0279  0.5043
   37DOPE    HY 4673   1.416   2.989   2.893 -0.0356  2.3049  4.7006
   37DOPE   O31 4674   1.408   2.908   3.077 -0.2823 -0.1553  0.0973
   37DOPE   C31 4675   1.441   3.020   3.130  0.5001  0.1784 -0.2832
   37DOPE   O32 4676   1.526   3.093   3.093  0.1452  0.0350 -0.0451
   37DOPE   C32 4677   1.365   3.036   3.262 -0.0618  0.5559 -0.4678
   37DOPE   H2X 4678   1.277   3.103   3.252  0.2821  0.8967 -1.4400
   37DOPE   H2Y 4679   1.345   2.932   3.294 -1.5570  0.6765 -0.9447
   37DOPE   C23 4680   1.876   2.510   3.052  0.9670 -0.1006  0.5288
   37DOPE   H3R 4681   1.959   2.577   3.020  0.2990  0.9341  0.9218
   37DOPE   H3S 4682   1.908   2.404   3.050  0.0479 -0.3787 -0.2644
   37DOPE   C24 4683   1.853   2.541   3.199 -0.7624  0.1091  0.3681
   37DOPE   H4R 4684   1.791   2.459   3.239 -1.3943  1.2836  1.8883
   37DOPE   H4S 4685   1.800   2.639   3.208 -0.3386  0.2598  1.3632
   37DOPE   C25 4686   1.978   2.559   3.281  0.0042  0.1486 -0.2850
   37DOPE   H5R 4687   2.024   2.659   3.264 -0.8852  0.5827 -0.2030
   37DOPE   H5S 4688   2.059   2.487   3.255 -0.3466  0.0691 -1.1749
   37DOPE   C26 4689   1.944   2.548   3.430 -0.0118  0.2629  0.6785
   37DOPE   H6R 4690   1.900   2.447   3.440  2.5676 -0.8965  1.0366
   37DOPE   H6S 4691   1.860   2.618   3.452 -0.5104 -0.0351 -0.2480
   37DOPE   C27 4692   2.064   2.563   3.529  0.3271 -0.2852  0.0705
   37DOPE   H7R 4693   2.139   2.629   3.481  2.8356 -2.6673  0.4654
   37DOPE   H7S 4694   2.119   2.470   3.552 -1.2239 -1.8711 -2.2449
   37DOPE   C28 4695   2.030   2.634   3.664 -0.4444 -0.0279  0.4406
   37DOPE   H8R 4696   1.963   2.716   3.631  0.2590 -0.4224 -2.1855
   37DOPE   H8S 4697   2.120   2.685   3.705 -0.1904 -1.3107  1.5804
   37DOPE   C29 4698   1.970   2.544   3.770  0.1400  0.2827 -0.2656
   37DOPE   H9R 4699   1.863   2.526   3.752  0.1559 -0.2248  0.1123
   37DOPE  C210 4700   2.034   2.485   3.875  0.6347 -0.4896  0.0075
   37DOPE  H10R 4701   1.985   2.410   3.939  1.5786 -0.7146  0.4896
   37DOPE  C211 4702   2.177   2.501   3.904  0.1968 -0.0299 -0.0480
   37DOPE  H11R 4703   2.231   2.513   3.808 -0.9870 -0.1262 -0.7319
   37DOPE  H11S 4704   2.220   2.408   3.947 -0.0273  0.3631  1.0737
   37DOPE  C212 4705   2.188   2.615   4.007  0.1431 -0.1056 -0.4611
   37DOPE  H12R 4706   2.152   2.707   3.956 -1.5639 -0.2945  0.3178
   37DOPE  H12S 4707   2.294   2.637   4.030 -0.1358 -1.4713  2.5745
   37DOPE  C213 4708   2.114   2.598   4.145 -0.2510 -0.7258  0.2151
   37DOPE  H13R 4709   2.005   2.583   4.130 -0.5182  1.9632 -1.0474
   37DOPE  H13S 4710   2.136   2.692   4.199  1.3898 -0.7676 -0.3162
   37DOPE  C214 4711   2.157   2.477   4.230 -0.3076  0.1884 -0.3824
   37DOPE  H14R 4712   2.261   2.505   4.257 -0.1228  0.0053 -0.8924
   37DOPE  H14S 4713   2.160   2.381   4.175 -0.6640 -0.9977  1.5623
   37DOPE  C215 4714   2.071   2.461   4.360  0.2278 -0.1216 -0.3349
   37DOPE  H15R 4715   1.964   2.436   4.344  0.1874 -0.4314  0.3830
   37DOPE  H15S 4716   2.073   2.556   4.417  2.0079 -0.7183  0.6787
   37DOPE  C216 4717   2.133   2.348   4.449 -0.6411  0.2211  0.9145
   37DOPE  H16R 4718   2.240   2.376   4.461  0.2336 -2.6857  0.6967
   37DOPE  H16S 4719   2.140   2.258   4.385  0.5792  0.5946  0.5000
   37DOPE  C217 4720   2.051   2.313   4.567 -0.5594 -0.3629  0.3641
   37DOPE  H17R 4721   2.123   2.250   4.625  1.1964 -0.1510 -1.4864
   37DOPE  H17S 4722   1.958   2.258   4.541 -0.3939  0.0006 -1.0786
   37DOPE  C218 4723   2.009   2.435   4.649 -0.2364 -0.2300  0.7686
   37DOPE  H18R 4724   1.971   2.404   4.749  2.3396 -2.4461  1.1471
   37DOPE  H18S 4725   1.931   2.487   4.590  0.6157 -0.5958 -0.7175
   37DOPE  H18T 4726   2.086   2.512   4.671  0.0047 -0.2229 -0.0951
   37DOPE   C33 4727   1.462   3.111   3.365  0.0170  0.2741 -0.4226
   37DOPE   H3X 4728   1.495   3.209   3.325  2.5117 -0.6742 -0.9085
   37DOPE   H3Y 4729   1.560   3.059   3.375 -0.0409  0.5766  2.3889
   37DOPE   C34 4730   1.399   3.129   3.499  0.8949 -0.1079  0.2659
   37DOPE   H4X 4731   1.298   3.173   3.494  0.8098 -0.4254 -1.3839
   37DOPE   H4Y 4732   1.395   3.032   3.553  1.3487  0.7032  1.8116
   37DOPE   C35 4733   1.472   3.229   3.597 -0.4726  0.0955  0.8128
   37DOPE   H5X 4734   1.472   3.330   3.551  2.4163 -0.5396 -0.8744
   37DOPE   H5Y 4735   1.582   3.212   3.589 -0.1739  1.1724  2.2589
   37DOPE   C36 4736   1.414   3.217   3.738 -0.6352  0.0571  0.1655
   37DOPE   H6X 4737   1.437   3.112   3.766  2.0784  0.7526  0.9125
   37DOPE   H6Y 4738   1.308   3.250   3.729 -0.6222 -0.0827 -0.5538
   37DOPE   C37 4739   1.488   3.310   3.832  0.6586  0.8407 -0.6623
   37DOPE   H7X 4740   1.596   3.286   3.832  0.6141  0.3988  1.6547
   37DOPE   H7Y 4741   1.470   3.417   3.811 -0.4976  0.7022 -0.4548
   37DOPE   C38 4742   1.461   3.293   3.986  0.0977  0.0683 -0.2883
   37DOPE   H8X 4743   1.372   3.351   4.019 -0.9598 -0.6085 -1.8237
   37DOPE   H8Y 4744   1.550   3.327   4.043 -1.0700  2.3584  0.3059
   37DOPE   C39 4745   1.440   3.146   4.015  0.3937 -0.6191 -0.3364
   37DOPE   H9X 4746   1.513   3.076   3.973 -1.1726 -1.8030 -1.1846
   37DOPE  C310 4747   1.335   3.089   4.086 -0.3575 -0.2139  0.4480
   37DOPE  H10X 4748   1.338   2.982   4.107  0.7758 -0.2370  0.2050
   37DOPE  C311 4749   1.223   3.175   4.142 -0.3680  0.8636  0.6702
   37DOPE  H11X 4750   1.227   3.282   4.111  0.5743 -0.2194 -3.5515
   37DOPE  H11Y 4751   1.125   3.143   4.099  1.2978 -1.7565 -1.5082
   37DOPE  C312 4752   1.217   3.170   4.299  0.7030 -0.2638  0.1274
   37DOPE  H12X 4753   1.313   3.189   4.351  0.7897 -0.7107  0.1338
   37DOPE  H12Y 4754   1.184   3.069   4.332 -1.4422 -0.1152 -1.3701
   37DOPE  C313 4755   1.103   3.262   4.347 -0.0155 -0.1907  0.4891
   37DOPE  H13X 4756   1.136   3.367   4.338  0.8517 -0.4295  0.7457
   37DOPE  H13Y 4757   1.006   3.240   4.296  0.5781 -2.3031  0.1459
   37DOPE  C314 4758   1.084   3.253   4.498  0.6676  0.1358 -1.1818
   37DOPE  H14X 4759   1.179   3.277   4.550 -0.6872  2.0938  0.5714
   37DOPE  H14Y 4760   1.059   3.146   4.509 -1.3357  0.5129 -1.6858
   37DOPE  C315 4761   0.964   3.339   4.542  0.5779  0.7175 -0.3112
   37DOPE  H15X 4762   0.876   3.324   4.477 -1.1984 -0.1271  2.1201
   37DOPE  H15Y 4763   0.990   3.447   4.541  1.5921  0.4830 -0.4776
   37DOPE  C316 4764   0.924   3.297   4.683  0.7882  0.3161  0.5304
   37DOPE  H16X 4765   1.011   3.315   4.749  0.6522  0.4005  0.6862
   37DOPE  H16Y 4766   0.908   3.187   4.685  0.9029  0.3060  1.0668
   37DOPE  C317 4767   0.798   3.367   4.740 -0.7627 -0.8527  1.0764
   37DOPE  H17X 4768   0.810   3.475   4.717 -1.5528 -1.4382 -2.7434
   37DOPE  H17Y 4769   0.713   3.327   4.680 -0.4071 -0.6434  0.4232
   37DOPE  C318 4770   0.778   3.348   4.888 -0.1740 -0.2428 -0.0418
   37DOPE  H18X 4771   0.723   3.256   4.916 -1.3309  0.9956  2.0222
   37DOPE  H18Y 4772   0.873   3.356   4.946 -0.3940 -0.1070  0.3009
   37DOPE  H18Z 4773   0.703   3.426   4.913 -0.5571 -0.4139 -0.6420
   38DOPE     N 4774   4.304   6.113   2.393  0.1811 -0.4735  0.0336
   38DOPE   HN1 4775   4.290   6.044   2.316  0.4441  1.4651 -1.8758
   38DOPE   HN2 4776   4.258   6.070   2.475  0.7448  0.4632  0.8558
   38DOPE   HN3 4777   4.248   6.198   2.371 -2.1985 -2.0714 -0.4893
   38DOPE   C12 4778   4.448   6.138   2.406  0.0845 -0.3069 -0.1498
   38DOPE  H12A 4779   4.493   6.167   2.309 -0.2792  2.3406  0.3747
   38DOPE  H12B 4780   4.496   6.043   2.436 -1.8273 -1.3337 -0.2196
   38DOPE   C11 4781   4.481   6.253   2.503 -0.4024  0.6027  0.6185
   38DOPE  H11A 4782   4.446   6.351   2.463 -0.3651 -0.1392 -1.3083
   38DOPE  H11B 4783   4.589   6.279   2.508 -0.1738 -0.2184  0.1494
   38DOPE     P 4784   4.498   6.142   2.742  0.3016 -0.4565 -0.1451
   38DOPE   O13 4785   4.604   6.059   2.679 -0.8124  0.1021 -0.1662
   38DOPE   O14 4786   4.404   6.085   2.839  0.1650  0.5695  0.1024
   38DOPE   O11 4787   4.587   6.253   2.814 -0.0970 -0.5580  0.4414
   38DOPE   O12 4788   4.421   6.228   2.636 -0.2732 -0.2911  0.1395
   38DOPE    C1 4789   4.539   6.386   2.843 -0.0624  0.2003  0.6065
   38DOPE    HA 4790   4.429   6.397   2.834  0.0663  1.6079  0.4844
   38DOPE    HB 4791   4.581   6.453   2.765 -3.2051  1.1138 -0.4552
   38DOPE    C2 4792   4.578   6.440   2.976 -0.7662  0.0435  0.4909
   38DOPE    HS 4793   4.524   6.534   3.001 -0.8286 -0.0076  0.5527
   38DOPE   O21 4794   4.719   6.457   2.986  0.5649 -0.2426  0.1891
   38DOPE   C21 4795   4.768   6.566   2.932  0.0432  0.0059  0.3994
   38DOPE   O22 4796   4.712   6.660   2.877  0.4613  0.0731  0.1909
   38DOPE   C22 4797   4.915   6.538   2.935 -1.3931  0.2716  0.0583
   38DOPE   H2R 4798   4.954   6.540   2.831 -0.8110  0.0341  0.2672
   38DOPE   H2S 4799   4.938   6.438   2.978  0.2153  0.6075  0.0464
   38DOPE    C3 4800   4.537   6.343   3.088 -0.2829  0.1086 -0.5752
   38DOPE    HX 4801   4.549   6.238   3.055  0.4596  0.1146 -0.3324
   38DOPE    HY 4802   4.429   6.341   3.114 -0.3635  1.9364 -0.5924
   38DOPE   O31 4803   4.603   6.367   3.217 -0.5067 -0.1025 -0.3123
   38DOPE   C31 4804   4.693   6.281   3.247  0.0938 -0.3643 -0.3805
   38DOPE   O32 4805   4.716   6.179   3.185 -0.0786 -0.4767  0.2335
   38DOPE   C32 4806   4.759   6.320   3.384 -0.7344  0.0647  0.1755
   38DOPE   H2X 4807   4.834   6.399   3.361 -0.4726  1.1243  4.0054
   38DOPE   H2Y 4808   4.682   6.356   3.455  0.6647  1.6570  0.9757
   38DOPE   C23 4809   5.008   6.643   3.020 -0.8489  0.8981  0.0545
   38DOPE   H3R 4810   4.967   6.745   3.000 -0.4439  1.0408 -0.0564
   38DOPE   H3S 4811   5.111   6.625   2.983 -0.6005  0.6418  0.8529
   38DOPE   C24 4812   5.014   6.601   3.172  0.0450 -1.1580  0.8537
   38DOPE   H4R 4813   5.120   6.584   3.200  1.4407 -0.1213 -3.0251
   38DOPE   H4S 4814   4.956   6.509   3.192  0.4663 -1.0709  2.6407
   38DOPE   C25 4815   4.965   6.717   3.257 -0.4390 -0.4504 -0.0183
   38DOPE   H5R 4816   4.866   6.754   3.221  0.3025  0.4198 -1.2366
   38DOPE   H5S 4817   5.036   6.802   3.246  0.1587 -1.0818 -1.1210
   38DOPE   C26 4818   4.946   6.667   3.397  0.2740  0.7666 -0.4912
   38DOPE   H6R 4819   5.032   6.601   3.420  0.6352  0.6400 -2.0756
   38DOPE   H6S 4820   4.854   6.605   3.400 -0.2689  1.4839 -1.5868
   38DOPE   C27 4821   4.952   6.774   3.505 -0.3954  0.4802 -0.1481
   38DOPE   H7R 4822   4.881   6.858   3.490  2.1606  3.3738  2.4597
   38DOPE   H7S 4823   5.052   6.822   3.496  0.6532 -1.7163 -1.2553
   38DOPE   C28 4824   4.943   6.721   3.650 -0.2019  0.6330  0.3259
   38DOPE   H8R 4825   5.023   6.772   3.708  0.1280 -1.8494  2.2273
   38DOPE   H8S 4826   4.961   6.613   3.667  0.6816  0.5477 -0.9542
   38DOPE   C29 4827   4.805   6.752   3.693  0.2478 -0.8021  0.6128
   38DOPE   H9R 4828   4.721   6.715   3.631 -0.0116 -1.4139  1.3208
   38DOPE  C210 4829   4.767   6.839   3.781  0.5706 -0.0072  0.5953
   38DOPE  H10R 4830   4.660   6.845   3.803 -0.3373 -0.0356 -3.1315
   38DOPE  C211 4831   4.853   6.928   3.867 -0.0408 -0.5167 -0.0405
   38DOPE  H11R 4832   4.816   7.032   3.875  2.1075  0.2933 -0.0106
   38DOPE  H11S 4833   4.952   6.951   3.822 -0.7354  1.2603 -0.7587
   38DOPE  C212 4834   4.879   6.891   4.016  0.2543 -0.5658 -0.4707
   38DOPE  H12R 4835   4.791   6.905   4.083  1.1550  1.3288  0.3904
   38DOPE  H12S 4836   4.958   6.958   4.054 -0.5835  0.4013 -0.3949
   38DOPE  C213 4837   4.941   6.746   4.023  0.5369 -0.1231 -0.3583
   38DOPE  H13R 4838   5.008   6.733   3.935 -0.1876 -0.6824 -0.8300
   38DOPE  H13S 4839   4.852   6.681   4.029 -0.8062  1.7353  1.1242
   38DOPE  C214 4840   5.031   6.726   4.145 -0.1310 -0.5579 -1.1405
   38DOPE  H14R 4841   5.095   6.817   4.144  0.9784 -1.2573  0.8130
   38DOPE  H14S 4842   5.107   6.645   4.140  0.1625 -0.4634  0.9295
   38DOPE  C215 4843   4.956   6.727   4.281 -0.0972  0.6654  0.1933
   38DOPE  H15R 4844   4.860   6.671   4.274  0.0377  0.4071  0.4155
   38DOPE  H15S 4845   4.955   6.834   4.310  0.2830  1.6135 -2.8606
   38DOPE  C216 4846   5.028   6.663   4.407  0.6354 -0.0752  0.2499
   38DOPE  H16R 4847   5.137   6.684   4.396  0.7235 -0.9126 -0.6280
   38DOPE  H16S 4848   5.016   6.553   4.395 -0.5406  0.1898 -1.4295
   38DOPE  C217 4849   4.966   6.697   4.534 -1.0968  0.0260 -0.0628
   38DOPE  H17R 4850   4.886   6.621   4.548 -0.5799 -0.1655  2.2872
   38DOPE  H17S 4851   4.933   6.803   4.527 -1.2572 -0.0576 -0.5900
   38DOPE  C218 4852   5.073   6.693   4.650 -0.3164  0.1750 -0.5923
   38DOPE  H18R 4853   5.155   6.763   4.624 -0.5072  0.7036  0.1811
   38DOPE  H18S 4854   5.120   6.592   4.649 -1.4441 -0.3814  0.1476
   38DOPE  H18T 4855   5.028   6.730   4.744 -3.1602 -0.2506 -1.6946
   38DOPE   C33 4856   4.838   6.193   3.438 -0.0719 -0.4996  0.1321
   38DOPE   H3X 4857   4.919   6.158   3.371  0.2207 -2.4472  1.3969
   38DOPE   H3Y 4858   4.763   6.111   3.444 -0.7634  0.1491  0.7070
   38DOPE   C34 4859   4.873   6.210   3.592 -0.1524 -0.6932  0.2135
   38DOPE   H4X 4860   4.893   6.105   3.622  0.4056 -0.6013  0.1842
   38DOPE   H4Y 4861   4.965   6.273   3.595 -0.7662  0.1804  1.4567
   38DOPE   C35 4862   4.758   6.259   3.687  0.5300  0.3561  0.3497
   38DOPE   H5X 4863   4.669   6.225   3.631  0.7387  1.9878 -1.0852
   38DOPE   H5Y 4864   4.758   6.370   3.683 -1.7460  0.4283  1.3158
   38DOPE   C36 4865   4.756   6.197   3.830  0.2099  0.0646 -0.0970
   38DOPE   H6X 4866   4.780   6.089   3.821  0.6463  0.2334 -1.0095
   38DOPE   H6Y 4867   4.652   6.210   3.868  0.9680  3.2446  1.3006
   38DOPE   C37 4868   4.850   6.267   3.930  0.0777 -0.4790 -0.1390
   38DOPE   H7X 4869   4.954   6.248   3.896  0.6804  1.2870  0.6157
   38DOPE   H7Y 4870   4.827   6.375   3.931  0.3066 -0.4306  0.1031
   38DOPE   C38 4871   4.835   6.194   4.068  0.0910 -0.1314  0.3707
   38DOPE   H8X 4872   4.921   6.218   4.134 -1.6243  1.4655  2.1734
   38DOPE   H8Y 4873   4.827   6.085   4.052 -3.4952 -0.3192  2.3399
   38DOPE   C39 4874   4.706   6.230   4.136 -0.8433 -0.2506 -0.1648
   38DOPE   H9X 4875   4.618   6.194   4.080 -0.3216 -2.0389  0.1097
   38DOPE  C310 4876   4.686   6.296   4.257 -0.0010 -0.7570  0.5726
   38DOPE  H10X 4877   4.589   6.314   4.305  0.7830  0.8056  1.6599
   38DOPE  C311 4878   4.800   6.350   4.347  0.0123  0.1997 -0.4257
   38DOPE  H11X 4879   4.897   6.332   4.296 -0.5562 -2.4674 -0.7105
   38DOPE  H11Y 4880   4.788   6.459   4.366  1.2719  0.1723  0.6930
   38DOPE  C312 4881   4.793   6.282   4.484 -0.2783  0.6309  0.1697
   38DOPE  H12X 4882   4.815   6.177   4.456 -1.4766 -0.6258  3.4369
   38DOPE  H12Y 4883   4.697   6.259   4.535 -0.5515  2.0380  0.3312
   38DOPE  C313 4884   4.911   6.329   4.576 -0.5002 -0.1495 -0.0958
   38DOPE  H13X 4885   5.001   6.347   4.515 -0.0376  3.3524  1.3337
   38DOPE  H13Y 4886   4.884   6.430   4.616 -0.0708  1.3554 -3.2926
   38DOPE  C314 4887   4.945   6.234   4.687  0.5035 -0.1358  0.1099
   38DOPE  H14X 4888   4.939   6.125   4.664 -1.1242  0.6163 -4.0219
   38DOPE  H14Y 4889   4.872   6.263   4.766 -0.1802 -0.5817 -0.3414
   38DOPE  C315 4890   5.093   6.247   4.732 -0.3841  0.4693 -0.2318
   38DOPE  H15X 4891   5.105   6.349   4.776 -1.3097  0.2069  0.6678
   38DOPE  H15Y 4892   5.156   6.219   4.645  0.9245 -0.5676  0.9974
   38DOPE  C316 4893   5.138   6.152   4.846  0.1602  0.2412  0.1188
   38DOPE  H16X 4894   5.248   6.168   4.841  0.6179 -2.4703 -0.1409
   38DOPE  H16Y 4895   5.128   6.046   4.814  0.1682 -0.4434  2.2454
   38DOPE  C317 4896   5.100   6.179   4.992 -0.6006  0.1956 -0.8115
   38DOPE  H17X 4897   5.149   6.267   5.038 -1.0020 -0.3003  0.6363
   38DOPE  H17Y 4898   4.994   6.204   5.015 -0.5693  2.1116 -2.5024
   38DOPE  C318 4899   5.137   6.064   5.090  0.1234 -0.7633  0.2653
   38DOPE  H18X 4900   5.085   5.969   5.066 -0.7309 -0.4452  0.7923
   38DOPE  H18Y 4901   5.243   6.033   5.101 -0.4622 -2.0510  3.6354
   38DOPE  H18Z 4902   5.101   6.096   5.190 -1.7432 -0.5310 -0.4492
   39DOPE     N 4903   6.867   3.080   2.816  0.0734 -0.7909  0.2645
   39DOPE   HN1 4904   6.886   3.181   2.801 -1.5109 -0.3598  0.9533
   39DOPE   HN2 4905   6.876   3.069   2.919 -2.0858  3.2890  1.1172
   39DOPE   HN3 4906   6.940   3.025   2.765  0.5130 -0.0787  0.1013
   39DOPE   C12 4907   6.732   3.038   2.770  0.4092  0.0642  0.6956
   39DOPE  H12A 4908   6.728   2.930   2.748  0.7177 -0.1458  1.6129
   39DOPE  H12B 4909   6.715   3.090   2.674  1.0475  0.0365  0.5660
   39DOPE   C11 4910   6.614   3.072   2.866  0.1762 -0.4279 -0.4652
   39DOPE  H11A 4911   6.629   3.007   2.954  2.9738 -1.7184 -1.7848
   39DOPE  H11B 4912   6.520   3.033   2.823 -0.9240  0.5681  0.9304
   39DOPE     P 4913   6.492   3.303   2.839 -0.6829 -0.4473  0.3913
   39DOPE   O13 4914   6.455   3.239   2.707  0.1593 -0.5463 -0.1602
   39DOPE   O14 4915   6.537   3.442   2.827  0.6779  0.4213 -0.0002
   39DOPE   O11 4916   6.369   3.297   2.937 -0.1887  0.4841 -0.7498
   39DOPE   O12 4917   6.605   3.212   2.904 -0.2771  0.3546  0.0210
   39DOPE    C1 4918   6.384   3.319   3.079 -0.0562 -0.8000 -0.4409
   39DOPE    HA 4919   6.291   3.357   3.127 -0.0549 -0.4777 -0.6937
   39DOPE    HB 4920   6.456   3.400   3.102 -1.1111 -0.1481  0.7412
   39DOPE    C2 4921   6.400   3.189   3.158 -0.1345  0.9195  0.0007
   39DOPE    HS 4922   6.487   3.128   3.125 -0.5214  0.1828  0.3174
   39DOPE   O21 4923   6.275   3.119   3.135 -0.5898  0.2716 -0.6217
   39DOPE   C21 4924   6.286   2.990   3.142  0.3336 -0.1733  0.2805
   39DOPE   O22 4925   6.382   2.924   3.177 -0.2664 -0.7522 -0.1380
   39DOPE   C22 4926   6.168   2.942   3.057  0.0756  0.5216 -0.8883
   39DOPE   H2R 4927   6.176   2.831   3.062 -0.4717  0.4912 -0.5592
   39DOPE   H2S 4928   6.181   2.982   2.955  1.0776  1.5355 -0.3826
   39DOPE    C3 4929   6.435   3.217   3.313 -0.8254 -0.3000  0.3621
   39DOPE    HX 4930   6.349   3.282   3.341 -0.6678 -0.2808  0.8150
   39DOPE    HY 4931   6.529   3.275   3.328 -1.3401  0.1875  1.9120
   39DOPE   O31 4932   6.426   3.105   3.399 -0.7677  0.0626  0.2339
   39DOPE   C31 4933   6.527   3.024   3.403 -0.7650  0.3966  0.7336
   39DOPE   O32 4934   6.635   3.033   3.346 -0.7806  0.8205  0.2376
   39DOPE   C32 4935   6.487   2.904   3.491  0.6182  0.6160 -0.8602
   39DOPE   H2X 4936   6.396   2.937   3.546  0.3779  0.8669 -1.4039
   39DOPE   H2Y 4937   6.469   2.825   3.414  3.6122  0.2142 -1.2686
   39DOPE   C23 4938   6.029   2.990   3.107 -0.2094  0.3146 -0.0642
   39DOPE   H3R 4939   5.948   2.949   3.044 -1.4364  3.4039 -0.6670
   39DOPE   H3S 4940   6.023   3.100   3.092  0.1196  0.7114  2.2239
   39DOPE   C24 4941   5.999   2.957   3.253  0.6328 -0.4207 -0.1602
   39DOPE   H4R 4942   5.889   2.966   3.268  0.1035 -2.0301 -2.5867
   39DOPE   H4S 4943   6.040   3.038   3.317 -0.8657  1.6483 -1.6668
   39DOPE   C25 4944   6.044   2.822   3.302  0.4840 -0.0925 -0.3479
   39DOPE   H5R 4945   6.154   2.810   3.294  1.4674  2.9645  4.4201
   39DOPE   H5S 4946   5.982   2.755   3.239 -0.0678  0.4263 -0.3595
   39DOPE   C26 4947   6.004   2.787   3.442  0.0883  0.4242 -0.1803
   39DOPE   H6R 4948   5.894   2.799   3.448 -0.0051  0.6849 -1.9127
   39DOPE   H6S 4949   6.044   2.847   3.526 -1.5244  2.7512 -0.9785
   39DOPE   C27 4950   6.016   2.633   3.459 -0.7074 -0.1483  0.2241
   39DOPE   H7R 4951   6.119   2.610   3.425 -1.6251 -2.0463 -1.5120
   39DOPE   H7S 4952   5.960   2.576   3.381  2.0572 -2.6081 -0.1526
   39DOPE   C28 4953   6.009   2.560   3.602 -0.8703 -0.8166  0.1569
   39DOPE   H8R 4954   6.050   2.459   3.579 -0.2440 -1.0988  2.2926
   39DOPE   H8S 4955   5.901   2.557   3.628 -1.0164 -0.6670 -0.4070
   39DOPE   C29 4956   6.091   2.623   3.713 -0.4076 -0.1271  0.5784
   39DOPE   H9R 4957   6.161   2.695   3.669  0.9001 -1.3933  0.4711
   39DOPE  C210 4958   6.063   2.619   3.843 -0.7740  0.1788 -0.0877
   39DOPE  H10R 4959   6.123   2.685   3.907 -1.2177  0.1256  0.3891
   39DOPE  C211 4960   5.961   2.537   3.913  0.1365 -0.2622  0.5065
   39DOPE  H11R 4961   5.866   2.521   3.856 -0.1426  0.1354  0.8491
   39DOPE  H11S 4962   5.929   2.589   4.006 -0.5553  0.0680  0.0941
   39DOPE  C212 4963   6.021   2.399   3.965 -0.1383 -0.5606  0.2050
   39DOPE  H12R 4964   6.052   2.355   3.868 -0.9141  2.1693 -1.3848
   39DOPE  H12S 4965   5.955   2.333   4.025  0.5394 -1.4728 -0.0365
   39DOPE  C213 4966   6.137   2.417   4.059  0.3096 -0.6844  0.3301
   39DOPE  H13R 4967   6.223   2.473   4.017 -1.6321  0.6269 -2.1632
   39DOPE  H13S 4968   6.174   2.315   4.082  0.8041 -2.1960 -5.6344
   39DOPE  C214 4969   6.098   2.483   4.192  0.2918  0.1191 -0.1568
   39DOPE  H14R 4970   6.010   2.421   4.221  1.4147 -2.2417 -1.4577
   39DOPE  H14S 4971   6.077   2.591   4.182 -0.2056  0.2470  1.8769
   39DOPE  C215 4972   6.205   2.456   4.303  0.3051  0.3263 -0.1704
   39DOPE  H15R 4973   6.295   2.500   4.255  0.6606  0.8964  0.9635
   39DOPE  H15S 4974   6.223   2.346   4.297  0.3073  0.3678 -0.9708
   39DOPE  C216 4975   6.167   2.503   4.444 -0.0936  0.4676  0.9115
   39DOPE  H16R 4976   6.109   2.597   4.433  1.0045  0.8478 -2.6386
   39DOPE  H16S 4977   6.260   2.511   4.504  0.0720  1.4550  0.5403
   39DOPE  C217 4978   6.075   2.399   4.517 -0.0119  0.2272 -0.1262
   39DOPE  H17R 4979   6.147   2.319   4.543 -1.5613 -1.0028  0.5324
   39DOPE  H17S 4980   5.986   2.367   4.458  1.8132 -3.8934 -1.0002
   39DOPE  C218 4981   6.033   2.462   4.647  0.4006  0.6944 -0.7559
   39DOPE  H18R 4982   5.947   2.404   4.688  0.8245  0.0864 -0.7007
   39DOPE  H18S 4983   6.009   2.567   4.620  1.2722  0.6057 -1.9265
   39DOPE  H18T 4984   6.111   2.461   4.726  1.0356  0.3260 -1.3723
   39DOPE   C33 4985   6.588   2.849   3.601 -0.0877 -0.2134 -0.4571
   39DOPE   H3X 4986   6.536   2.769   3.658 -0.7339 -1.3491 -2.5457
   39DOPE   H3Y 4987   6.620   2.936   3.663 -3.8406  1.4022 -0.4646
   39DOPE   C34 4988   6.706   2.773   3.537  0.2261 -0.6235 -0.8896
   39DOPE   H4X 4989   6.654   2.698   3.474 -2.0114  1.7185 -2.0268
   39DOPE   H4Y 4990   6.766   2.833   3.465 -1.1948  1.5464 -0.3534
   39DOPE   C35 4991   6.793   2.702   3.639 -0.5151  0.3399 -0.4463
   39DOPE   H5X 4992   6.865   2.650   3.572  0.7453  0.7484  0.5475
   39DOPE   H5Y 4993   6.743   2.623   3.699  1.2179  0.7690  1.7127
   39DOPE   C36 4994   6.870   2.795   3.729  1.0955  0.3164 -0.4055
   39DOPE   H6X 4995   6.801   2.866   3.781  0.6073  1.0322 -1.9506
   39DOPE   H6Y 4996   6.942   2.854   3.669  0.6501 -0.5177 -1.8118
   39DOPE   C37 4997   6.956   2.709   3.825 -0.9798  0.1170  0.0524
   39DOPE   H7X 4998   6.914   2.703   3.928  1.6178  0.7908  1.2452
   39DOPE   H7Y 4999   6.976   2.611   3.778  1.5913  2.5415 -4.7264
   39DOPE   C38 5000   7.093   2.776   3.852  0.4433  0.2160  0.3385
   39DOPE   H8X 5001   7.128   2.720   3.941  0.6574 -0.3180 -0.0777
   39DOPE   H8Y 5002   7.087   2.885   3.873 -0.2597  0.3154 -0.3193
   39DOPE   C39 5003   7.184   2.741   3.740 -0.0562  0.0086  0.5531
   39DOPE   H9X 5004   7.170   2.641   3.695  0.6276  0.3174 -0.3948
   39DOPE  C310 5005   7.279   2.820   3.691 -0.4726 -0.6242 -0.1154
   39DOPE  H10X 5006   7.337   2.770   3.612  0.0928 -1.1674  0.6328
   39DOPE  C311 5007   7.323   2.956   3.745  0.1068 -0.3524  0.5025
   39DOPE  H11X 5008   7.382   2.999   3.662  1.7893  0.2908  1.9846
   39DOPE  H11Y 5009   7.240   3.026   3.768 -0.6480 -0.3830 -1.8557
   39DOPE  C312 5010   7.430   2.964   3.862  0.4261  0.4446  0.3402
   39DOPE  H12X 5011   7.378   2.947   3.958  1.9355  0.4030  1.1795
   39DOPE  H12Y 5012   7.484   3.061   3.862 -0.4274  0.9503 -0.7230
   39DOPE  C313 5013   7.537   2.856   3.858  0.1112 -0.8037  0.1742
   39DOPE  H13X 5014   7.483   2.760   3.855 -3.7076  1.1892 -1.2760
   39DOPE  H13Y 5015   7.584   2.872   3.758  0.0302 -0.7648  0.1425
   39DOPE  C314 5016   7.631   2.876   3.977 -0.4288 -0.0838 -0.3444
   39DOPE  H14X 5017   7.682   2.974   3.979 -1.1840  0.3131  1.3461
   39DOPE  H14Y 5018   7.715   2.806   3.954  1.2898  1.4355  0.9743
   39DOPE  C315 5019   7.568   2.840   4.113  0.3124 -0.7677 -0.3427
   39DOPE  H15X 5020   7.518   2.743   4.094  2.1771 -1.2530 -3.5776
   39DOPE  H15Y 5021   7.484   2.909   4.134  1.3255  0.6809 -0.9176
   39DOPE  C316 5022   7.667   2.840   4.227 -0.2356 -0.9786  0.2301
   39DOPE  H16X 5023   7.715   2.937   4.251  1.2728 -2.0764  1.8133
   39DOPE  H16Y 5024   7.750   2.772   4.201  2.4597  2.5838 -1.3743
   39DOPE  C317 5025   7.590   2.805   4.359  0.0151  0.0020 -0.0644
   39DOPE  H17X 5026   7.511   2.880   4.381  0.2171  0.8339 -1.9490
   39DOPE  H17Y 5027   7.545   2.704   4.348  1.9956 -0.9512  0.1692
   39DOPE  C318 5028   7.691   2.797   4.471 -0.0297 -0.7648 -0.4065
   39DOPE  H18X 5029   7.721   2.900   4.500 -2.2948 -0.0883 -0.2825
   39DOPE  H18Y 5030   7.635   2.770   4.563 -1.7331  2.0725 -0.4959
   39DOPE  H18Z 5031   7.781   2.734   4.452  0.3278 -0.0994 -0.9779
   40DOPE     N 5032   6.085   0.194   3.036 -0.4198  0.0868  0.1020
   40DOPE   HN1 5033   6.109   0.267   3.106 -0.9590  1.7546 -1.3856
   40DOPE   HN2 5034   6.159   0.188   2.962 -0.5858  0.5278 -0.1045
   40DOPE   HN3 5035   6.012   0.228   2.970  0.9725  0.3267 -1.3990
   40DOPE   C12 5036   6.063   0.061   3.093  0.4451 -0.9371 -0.7248
   40DOPE  H12A 5037   5.955   0.036   3.091 -0.7502  2.8272  2.6606
   40DOPE  H12B 5038   6.101   0.055   3.197  0.2433  0.1945 -0.5724
   40DOPE   C11 5039   6.145  -0.043   3.014  0.2728 -0.1431 -0.2982
   40DOPE  H11A 5040   6.137  -0.143   3.061  2.3630 -0.3540 -0.2787
   40DOPE  H11B 5041   6.254  -0.023   3.018  0.3858 -0.8686  0.3403
   40DOPE     P 5042   6.058  -0.155   2.797  0.2388 -0.4046 -0.2699
   40DOPE   O13 5043   6.173  -0.217   2.728 -0.0406 -0.2443  0.0914
   40DOPE   O14 5044   5.949  -0.108   2.713  0.0641  0.3526  0.6228
   40DOPE   O11 5045   6.001  -0.272   2.891  0.3168 -0.0326 -0.0452
   40DOPE   O12 5046   6.102  -0.033   2.881 -0.4755  0.6430  0.3642
   40DOPE    C1 5047   5.866  -0.271   2.928 -0.1181  0.1578 -0.2785
   40DOPE    HA 5048   5.803  -0.297   2.841 -0.2532 -0.7176  0.0635
   40DOPE    HB 5049   5.847  -0.168   2.964  3.7978  0.3451  1.8329
   40DOPE    C2 5050   5.827  -0.373   3.043  0.2351  0.5846 -0.0244
   40DOPE    HS 5051   5.717  -0.385   3.048  0.1873  1.0714  0.1284
   40DOPE   O21 5052   5.867  -0.327   3.173  0.0065  0.4530 -0.3250
   40DOPE   C21 5053   5.810  -0.219   3.220 -0.9296  0.1031 -0.1379
   40DOPE   O22 5054   5.747  -0.137   3.161  0.4291  0.0846  0.2509
   40DOPE   C22 5055   5.834  -0.206   3.378 -0.0124 -0.2947 -0.4965
   40DOPE   H2R 5056   5.935  -0.159   3.385  0.7896 -1.7075 -2.0200
   40DOPE   H2S 5057   5.844  -0.300   3.436  0.5253  0.6397  1.0086
   40DOPE    C3 5058   5.889  -0.512   3.018  0.0557  0.2437 -0.0728
   40DOPE    HX 5059   5.997  -0.512   3.041  0.4983 -0.2915 -1.9504
   40DOPE    HY 5060   5.876  -0.522   2.908  2.9870  0.4810 -0.5061
   40DOPE   O31 5061   5.820  -0.610   3.099  0.4991  0.2170  0.2412
   40DOPE   C31 5062   5.892  -0.707   3.156  0.0394  0.3676 -0.0536
   40DOPE   O32 5063   6.012  -0.729   3.143 -0.1294 -0.0290  0.3127
   40DOPE   C32 5064   5.801  -0.812   3.219  0.3581  1.1871 -0.0708
   40DOPE   H2X 5065   5.772  -0.875   3.132  1.9996  0.9511 -0.4949
   40DOPE   H2Y 5066   5.866  -0.880   3.279  0.4743  1.0253 -0.3711
   40DOPE   C23 5067   5.727  -0.128   3.461  0.1506  0.8229  0.5354
   40DOPE   H3R 5068   5.649  -0.206   3.471  1.0400 -0.3583 -1.2226
   40DOPE   H3S 5069   5.696  -0.042   3.398 -0.1807  0.0771 -0.3213
   40DOPE   C24 5070   5.782  -0.085   3.590  0.4774 -0.1002  0.2160
   40DOPE   H4R 5071   5.886  -0.047   3.590  1.1475 -1.8079  1.7421
   40DOPE   H4S 5072   5.792  -0.164   3.667  0.5962  0.5914  0.9233
   40DOPE   C25 5073   5.701   0.029   3.645  0.0744  0.2974  0.2641
   40DOPE   H5R 5074   5.594   0.004   3.639  0.2300 -0.0904 -1.3862
   40DOPE   H5S 5075   5.719   0.122   3.586  2.0866 -0.4059 -0.3174
   40DOPE   C26 5076   5.748   0.069   3.785  0.9107  0.5188  0.0512
   40DOPE   H6R 5077   5.852   0.107   3.780  1.6235 -1.2143  1.0518
   40DOPE   H6S 5078   5.746  -0.024   3.845  4.2577  0.2051 -0.1613
   40DOPE   C27 5079   5.651   0.170   3.855  0.3270  0.4002  0.1737
   40DOPE   H7R 5080   5.546   0.134   3.849  0.9302 -1.2630 -2.5285
   40DOPE   H7S 5081   5.657   0.269   3.806  0.3137 -0.1228 -0.9276
   40DOPE   C28 5082   5.679   0.173   4.006 -0.1204  0.3439  0.8089
   40DOPE   H8R 5083   5.785   0.202   4.022  0.3182 -1.1578  0.8123
   40DOPE   H8S 5084   5.671   0.071   4.049 -2.0166  0.7010  1.4226
   40DOPE   C29 5085   5.582   0.250   4.097 -0.4799 -0.1937  0.1711
   40DOPE   H9R 5086   5.480   0.271   4.064 -0.5186  2.3697  1.6143
   40DOPE  C210 5087   5.619   0.285   4.224 -0.8527 -0.4360  0.2847
   40DOPE  H10R 5088   5.542   0.326   4.292 -1.0144  1.9033 -1.2094
   40DOPE  C211 5089   5.752   0.268   4.290  0.1780  0.0029 -0.3141
   40DOPE  H11R 5090   5.836   0.230   4.229  0.0777 -1.8457  0.6478
   40DOPE  H11S 5091   5.743   0.197   4.375 -1.9749  2.3334  1.6105
   40DOPE  C212 5092   5.804   0.404   4.338  0.8964 -0.5197 -0.8891
   40DOPE  H12R 5093   5.822   0.474   4.254 -2.3864  3.0865  1.0514
   40DOPE  H12S 5094   5.899   0.404   4.396  0.8161 -0.1329 -0.7561
   40DOPE  C213 5095   5.711   0.484   4.436 -0.8700  0.2852 -0.2727
   40DOPE  H13R 5096   5.618   0.527   4.393  0.1250 -0.0223 -2.9685
   40DOPE  H13S 5097   5.780   0.565   4.467 -1.5510  1.1327 -0.9594
   40DOPE  C214 5098   5.663   0.409   4.565  0.1136 -0.2511 -0.3330
   40DOPE  H14R 5099   5.753   0.355   4.601 -0.6330 -1.5109 -0.3170
   40DOPE  H14S 5100   5.591   0.328   4.541  0.1737 -0.5095  0.3494
   40DOPE  C215 5101   5.603   0.502   4.680  0.1313  0.0549 -0.0255
   40DOPE  H15R 5102   5.524   0.568   4.638  0.2944  0.2978  0.0493
   40DOPE  H15S 5103   5.681   0.569   4.721 -1.1659  1.5021  0.1672
   40DOPE  C216 5104   5.550   0.413   4.791  0.4323  0.7310  0.3504
   40DOPE  H16R 5105   5.630   0.356   4.842 -0.0452 -0.3856 -0.1285
   40DOPE  H16S 5106   5.488   0.338   4.739 -1.6902  2.4955  0.2154
   40DOPE  C217 5107   5.486   0.492   4.907  0.0907  0.5024  0.2384
   40DOPE  H17R 5108   5.418   0.566   4.859  0.0944  0.6726  0.4959
   40DOPE  H17S 5109   5.557   0.554   4.966 -0.2629  2.1179 -0.9441
   40DOPE  C218 5110   5.412   0.396   4.993  0.2374  0.4873  0.2270
   40DOPE  H18R 5111   5.323   0.351   4.946  0.2920 -0.2327  0.7940
   40DOPE  H18S 5112   5.370   0.449   5.082 -1.0599 -1.0640  0.5778
   40DOPE  H18T 5113   5.477   0.312   5.026 -1.2512  0.0024  2.0953
   40DOPE   C33 5114   5.683  -0.757   3.302 -0.3773 -0.3490  0.4134
   40DOPE   H3X 5115   5.627  -0.845   3.338 -0.1284 -0.5728  0.2560
   40DOPE   H3Y 5116   5.611  -0.699   3.240  0.2165 -0.1646 -0.1182
   40DOPE   C34 5117   5.735  -0.690   3.430  0.0322 -0.2507  0.0173
   40DOPE   H4X 5118   5.827  -0.740   3.466  0.7527  1.5153  0.6934
   40DOPE   H4Y 5119   5.771  -0.588   3.403  2.4237 -0.3285  2.5241
   40DOPE   C35 5120   5.639  -0.681   3.549 -0.3413  0.8161  0.1041
   40DOPE   H5X 5121   5.630  -0.787   3.581  1.0766 -0.4411 -3.2719
   40DOPE   H5Y 5122   5.551  -0.634   3.501  0.3127 -1.3204 -3.5823
   40DOPE   C36 5123   5.677  -0.603   3.670 -0.2940  0.1017  0.0410
   40DOPE   H6X 5124   5.733  -0.512   3.639  0.1720 -0.1071  0.2576
   40DOPE   H6Y 5125   5.759  -0.666   3.710 -1.2015 -0.1318  1.6100
   40DOPE   C37 5126   5.562  -0.585   3.768  0.6271 -0.4644  0.0826
   40DOPE   H7X 5127   5.493  -0.513   3.718  0.4015  0.1043  1.1885
   40DOPE   H7Y 5128   5.495  -0.671   3.786 -1.8665  1.3835  0.2106
   40DOPE   C38 5129   5.600  -0.535   3.907 -0.3114  0.2409 -0.1123
   40DOPE   H8X 5130   5.681  -0.595   3.953 -0.7475 -1.5826 -1.6036
   40DOPE   H8Y 5131   5.514  -0.542   3.978  0.1356 -1.8842  0.3005
   40DOPE   C39 5132   5.631  -0.390   3.889 -0.0778 -0.4802 -0.7405
   40DOPE   H9X 5133   5.731  -0.365   3.850  0.6400  0.6097  1.6179
   40DOPE  C310 5134   5.547  -0.287   3.901  0.8189 -0.1615 -0.1440
   40DOPE  H10X 5135   5.583  -0.186   3.875 -1.4348  0.6992 -0.1561
   40DOPE  C311 5136   5.402  -0.281   3.923  0.6023  0.4640 -0.3393
   40DOPE  H11X 5137   5.370  -0.355   4.000 -0.8240  1.4574  0.0760
   40DOPE  H11Y 5138   5.384  -0.181   3.969  1.8150  0.9426 -0.8731
   40DOPE  C312 5139   5.322  -0.297   3.793  0.4779 -0.4739  0.3411
   40DOPE  H12X 5140   5.220  -0.314   3.834  0.7353  0.6711  1.5163
   40DOPE  H12Y 5141   5.350  -0.381   3.726  0.4247 -0.2684  0.0610
   40DOPE  C313 5142   5.323  -0.159   3.711  0.1202 -0.2249  0.3547
   40DOPE  H13X 5143   5.276  -0.081   3.774  0.5740  0.1670  0.2203
   40DOPE  H13Y 5144   5.428  -0.122   3.706 -0.0723  0.2053 -1.2206
   40DOPE  C314 5145   5.253  -0.160   3.573 -0.0482  0.4132 -0.0743
   40DOPE  H14X 5146   5.246  -0.056   3.535 -0.6658  1.2062  2.0582
   40DOPE  H14Y 5147   5.150  -0.199   3.589  0.3884 -1.3612 -1.3217
   40DOPE  C315 5148   5.324  -0.236   3.453 -0.3049 -0.1605 -0.7269
   40DOPE  H15X 5149   5.350  -0.339   3.486  0.9818 -0.0713 -1.3941
   40DOPE  H15Y 5150   5.419  -0.181   3.434 -0.4078 -0.2359 -1.4953
   40DOPE  C316 5151   5.236  -0.224   3.328 -0.7629 -0.0257  0.0130
   40DOPE  H16X 5152   5.203  -0.121   3.305  1.7877  0.6486 -0.9429
   40DOPE  H16Y 5153   5.145  -0.286   3.340 -0.7309 -0.0218  0.2953
   40DOPE  C317 5154   5.300  -0.283   3.202  0.0132  0.4772  0.0012
   40DOPE  H17X 5155   5.221  -0.296   3.125  1.4581  1.1754 -1.6710
   40DOPE  H17Y 5156   5.369  -0.207   3.161 -1.0358  1.5109  0.1220
   40DOPE  C318 5157   5.380  -0.410   3.217 -0.8290 -0.1933  0.4475
   40DOPE  H18X 5158   5.398  -0.464   3.122  3.8133  0.2800  0.8329
   40DOPE  H18Y 5159   5.478  -0.391   3.266 -1.0075 -0.8217  1.0700
   40DOPE  H18Z 5160   5.323  -0.486   3.275  1.6549 -1.7144  1.0398
   41DOPE     N 5161   2.746   5.284   2.908  0.6213  0.3169  0.3225
   41DOPE   HN1 5162   2.747   5.372   2.853 -1.3301 -0.8234 -1.6886
   41DOPE   HN2 5163   2.749   5.329   3.002 -2.7154  2.5772 -0.4798
   41DOPE   HN3 5164   2.822   5.217   2.883 -1.0961 -0.9095 -1.8815
   41DOPE   C12 5165   2.616   5.221   2.874  0.2805  0.6438 -0.2888
   41DOPE  H12A 5166   2.598   5.216   2.764 -1.0814  0.5544 -0.0786
   41DOPE  H12B 5167   2.535   5.281   2.922 -1.5758 -0.8086 -1.4316
   41DOPE   C11 5168   2.618   5.082   2.935  0.3614 -0.1378 -0.3331
   41DOPE  H11A 5169   2.628   5.089   3.046 -2.2867 -1.0231  0.0386
   41DOPE  H11B 5170   2.707   5.040   2.884 -0.4242 -0.2954 -1.6052
   41DOPE     P 5171   2.481   4.866   2.946 -0.3373 -0.2028  0.0419
   41DOPE   O13 5172   2.586   4.785   2.889  0.3767  0.2807 -0.3093
   41DOPE   O14 5173   2.336   4.824   2.930  0.4453  0.0882  0.3084
   41DOPE   O11 5174   2.518   4.878   3.103 -0.4906 -0.4186 -0.0341
   41DOPE   O12 5175   2.491   5.024   2.900  0.4426 -0.0714 -0.3740
   41DOPE    C1 5176   2.413   4.898   3.193 -0.3395 -0.3943 -0.4372
   41DOPE    HA 5177   2.435   4.859   3.295 -2.9267 -1.4913 -0.2038
   41DOPE    HB 5178   2.326   4.832   3.171 -0.0124 -0.1902 -2.5761
   41DOPE    C2 5179   2.368   5.050   3.215  1.3849  0.2434  0.5899
   41DOPE    HS 5180   2.353   5.101   3.117 -0.8385 -0.8487  0.2988
   41DOPE   O21 5181   2.472   5.111   3.290  0.7622 -0.2107  0.5395
   41DOPE   C21 5182   2.475   5.243   3.281 -0.1371 -0.7095  0.2648
   41DOPE   O22 5183   2.430   5.310   3.190 -0.2617 -0.0088 -0.4432
   41DOPE   C22 5184   2.542   5.303   3.395  0.6180 -0.5982 -0.0018
   41DOPE   H2R 5185   2.549   5.412   3.378 -0.5846 -0.7853 -2.0165
   41DOPE   H2S 5186   2.640   5.251   3.395  0.6650 -0.5303  1.0036
   41DOPE    C3 5187   2.232   5.053   3.282 -0.2302 -0.1376  0.3513
   41DOPE    HX 5188   2.165   4.992   3.218  0.4582 -0.9632  0.3850
   41DOPE    HY 5189   2.201   5.158   3.302 -2.2712 -0.3546 -1.3049
   41DOPE   O31 5190   2.251   4.993   3.415  0.2132  0.0328  0.2079
   41DOPE   C31 5191   2.165   4.915   3.463 -0.0212 -0.4708  0.6778
   41DOPE   O32 5192   2.059   4.881   3.410  0.0716  0.0498  0.6303
   41DOPE   C32 5193   2.208   4.873   3.602 -0.0782 -0.3650 -0.9219
   41DOPE   H2X 5194   2.140   4.799   3.648  1.0359 -0.5135  0.5498
   41DOPE   H2Y 5195   2.311   4.833   3.591 -0.2367 -1.3942  1.0159
   41DOPE   C23 5196   2.454   5.276   3.522 -0.0364  0.0456 -0.3932
   41DOPE   H3R 5197   2.416   5.172   3.536 -2.0775  0.8704  0.5830
   41DOPE   H3S 5198   2.362   5.338   3.512 -1.1831 -1.7249 -1.3736
   41DOPE   C24 5199   2.532   5.316   3.649  0.1364  0.4313  0.0371
   41DOPE   H4R 5200   2.568   5.420   3.631 -1.2592  0.7319 -1.2897
   41DOPE   H4S 5201   2.624   5.255   3.654  0.1596  0.0504 -3.1322
   41DOPE   C25 5202   2.445   5.321   3.775 -0.0273  1.0536  0.5268
   41DOPE   H5R 5203   2.507   5.353   3.861  0.5914 -0.0862  0.5357
   41DOPE   H5S 5204   2.415   5.218   3.804 -1.6187  1.4039  0.2187
   41DOPE   C26 5205   2.312   5.403   3.768 -0.3994 -0.0767 -0.0360
   41DOPE   H6R 5206   2.257   5.361   3.855 -0.3222  2.3988  1.3214
   41DOPE   H6S 5207   2.251   5.375   3.680  0.8302 -1.1108 -0.5922
   41DOPE   C27 5208   2.331   5.558   3.777 -0.5104  0.7050 -0.1993
   41DOPE   H7R 5209   2.406   5.581   3.698  1.7709 -2.9307  0.6868
   41DOPE   H7S 5210   2.376   5.595   3.872 -2.4900  2.1568  0.2275
   41DOPE   C28 5211   2.196   5.635   3.763  0.3951  0.0075 -0.3014
   41DOPE   H8R 5212   2.212   5.743   3.783 -1.3108  0.9008 -3.2249
   41DOPE   H8S 5213   2.118   5.592   3.829 -0.6526 -1.0019 -2.1038
   41DOPE   C29 5214   2.152   5.616   3.625 -0.4155  0.4017  0.2728
   41DOPE   H9R 5215   2.213   5.682   3.562  0.4481  1.0081  1.6858
   41DOPE  C210 5216   2.052   5.542   3.577  0.1932 -0.2826 -0.5119
   41DOPE  H10R 5217   2.046   5.525   3.469  0.3755  2.6346 -1.0649
   41DOPE  C211 5218   1.955   5.461   3.660 -0.6293  0.0345 -0.0730
   41DOPE  H11R 5219   1.852   5.475   3.620 -0.5903 -0.1032 -0.2245
   41DOPE  H11S 5220   1.945   5.497   3.765  0.7534  0.3736 -0.0376
   41DOPE  C212 5221   1.980   5.306   3.655 -0.1208 -0.3290 -0.5221
   41DOPE  H12R 5222   1.892   5.260   3.705  0.1453 -1.3920 -1.0105
   41DOPE  H12S 5223   2.081   5.279   3.692  2.5528  3.4012 -4.0905
   41DOPE  C213 5224   1.968   5.237   3.519 -0.8082  0.1400 -0.0432
   41DOPE  H13R 5225   1.969   5.126   3.524 -0.6855  0.1368 -0.1261
   41DOPE  H13S 5226   2.055   5.264   3.455 -1.5635 -0.8258 -1.5470
   41DOPE  C214 5227   1.852   5.279   3.421 -0.0449 -1.2331  0.3553
   41DOPE  H14R 5228   1.845   5.212   3.332 -0.7393  0.8962 -1.3044
   41DOPE  H14S 5229   1.875   5.379   3.378  0.3755 -1.4684  0.0181
   41DOPE  C215 5230   1.713   5.272   3.482 -0.0228  0.4264  0.4536
   41DOPE  H15R 5231   1.708   5.318   3.583  3.9646 -1.0290  1.5442
   41DOPE  H15S 5232   1.693   5.165   3.507 -1.5084  0.5973  0.0753
   41DOPE  C216 5233   1.598   5.314   3.387  0.8242  0.4362  0.3732
   41DOPE  H16R 5234   1.593   5.238   3.307  1.4496  0.6781  0.0917
   41DOPE  H16S 5235   1.620   5.410   3.335 -2.8612  0.3440 -1.6733
   41DOPE  C217 5236   1.461   5.316   3.456  0.0026  0.4269  0.0491
   41DOPE  H17R 5237   1.468   5.372   3.552  1.8440 -0.9560  0.7768
   41DOPE  H17S 5238   1.451   5.210   3.488  0.1690  0.6789  0.9610
   41DOPE  C218 5239   1.350   5.354   3.365 -0.7588  0.0963 -0.0643
   41DOPE  H18R 5240   1.354   5.291   3.274 -1.2009 -0.1165  0.0647
   41DOPE  H18S 5241   1.372   5.459   3.334 -3.0484  1.2259  1.8048
   41DOPE  H18T 5242   1.247   5.354   3.406 -2.2996  2.4575 -3.4399
   41DOPE   C33 5243   2.212   4.992   3.711  0.3281  0.6249 -0.6305
   41DOPE   H3X 5244   2.114   5.045   3.713 -0.0251 -0.0365 -0.1415
   41DOPE   H3Y 5245   2.290   5.067   3.683  2.8963 -2.1250 -1.3212
   41DOPE   C34 5246   2.224   4.943   3.853  0.2281  0.4066 -0.1799
   41DOPE   H4X 5247   2.138   4.876   3.874  0.1551 -0.0829 -1.9225
   41DOPE   H4Y 5248   2.313   4.877   3.846 -0.8043 -0.9266 -1.2915
   41DOPE   C35 5249   2.234   5.043   3.965 -0.2202 -0.5654  0.0065
   41DOPE   H5X 5250   2.153   5.116   3.942 -0.7790 -2.0026 -3.1918
   41DOPE   H5Y 5251   2.324   5.107   3.951 -0.7941  0.0241 -1.1286
   41DOPE   C36 5252   2.236   4.982   4.101  0.2390  0.5318 -0.3163
   41DOPE   H6X 5253   2.146   4.920   4.120  0.6523  0.4781  1.7072
   41DOPE   H6Y 5254   2.233   5.064   4.177 -1.6741  2.6602 -2.4970
   41DOPE   C37 5255   2.358   4.899   4.129  0.5440 -0.0605  0.3041
   41DOPE   H7X 5256   2.384   4.813   4.063  0.8891  0.4022 -0.1614
   41DOPE   H7Y 5257   2.442   4.969   4.114  0.4828 -0.2734 -1.1896
   41DOPE   C38 5258   2.350   4.849   4.278  0.7665 -0.1168  0.2341
   41DOPE   H8X 5259   2.429   4.773   4.294 -0.4962 -1.0671  2.3212
   41DOPE   H8Y 5260   2.255   4.799   4.307 -0.2311  2.2134  1.1856
   41DOPE   C39 5261   2.384   4.959   4.370 -0.1007 -0.0874  0.3407
   41DOPE   H9X 5262   2.446   5.040   4.326  0.0206 -1.1743 -1.5861
   41DOPE  C310 5263   2.341   4.975   4.495  0.1915 -0.6780 -0.0461
   41DOPE  H10X 5264   2.371   5.069   4.544  1.7123 -1.3763  0.4353
   41DOPE  C311 5265   2.250   4.882   4.570 -0.6244  0.6086 -0.5165
   41DOPE  H11X 5266   2.195   4.812   4.504  0.6483 -1.8663  0.8860
   41DOPE  H11Y 5267   2.309   4.831   4.649 -0.5034  0.1128 -0.9273
   41DOPE  C312 5268   2.134   4.947   4.655  0.3516  0.2971  0.2873
   41DOPE  H12X 5269   2.083   5.016   4.585  2.1050  0.2678 -1.0894
   41DOPE  H12Y 5270   2.179   4.996   4.744  0.2812  0.8396  0.0316
   41DOPE  C313 5271   2.038   4.843   4.705 -0.4118  0.1896 -0.5852
   41DOPE  H13X 5272   1.994   4.791   4.617  0.9022  2.3156 -2.6218
   41DOPE  H13Y 5273   2.104   4.779   4.767  1.4570  1.7273 -0.9025
   41DOPE  C314 5274   1.925   4.896   4.795 -0.3648 -0.3685  0.1843
   41DOPE  H14X 5275   1.845   4.822   4.816  0.6262 -1.1100  1.4832
   41DOPE  H14Y 5276   1.885   4.983   4.738 -1.5916 -1.0577 -0.0431
   41DOPE  C315 5277   1.976   4.952   4.935  0.1771 -0.0585  0.6343
   41DOPE  H15X 5278   2.017   5.055   4.930  1.5798 -0.5193  1.9926
   41DOPE  H15Y 5279   2.059   4.889   4.974  1.5626 -0.2768 -2.3327
   41DOPE  C316 5280   1.867   4.944   5.039  0.0338 -0.0224  0.5471
   41DOPE  H16X 5281   1.863   4.844   5.088 -3.6287  0.3497  1.2883
   41DOPE  H16Y 5282   1.767   4.962   4.993  1.5035  2.1075 -2.0832
   41DOPE  C317 5283   1.880   5.043   5.152 -0.4832  0.3359 -0.0908
   41DOPE  H17X 5284   1.869   5.146   5.112 -0.8461  0.6319  0.7584
   41DOPE  H17Y 5285   1.789   5.033   5.216 -1.6515 -0.7149 -1.8374
   41DOPE  C318 5286   1.999   5.019   5.237 -0.3151 -0.4937  0.1384
   41DOPE  H18X 5287   2.006   5.081   5.329  0.1631 -0.5832  0.1626
   41DOPE  H18Y 5288   1.993   4.909   5.251 -2.3574 -1.1457 -4.1102
   41DOPE  H18Z 5289   2.090   5.035   5.176 -0.4528 -0.5284 -0.0797
   42DOPE     N 5290   0.965   4.747   2.756 -0.8242  0.3745  0.3629
   42DOPE   HN1 5291   0.867   4.744   2.722 -0.6277  2.1771 -0.4959
   42DOPE   HN2 5292   0.974   4.749   2.859  0.3031 -2.4734  0.4237
   42DOPE   HN3 5293   1.001   4.840   2.727 -1.3918  1.3440  2.5864
   42DOPE   C12 5294   1.051   4.627   2.706 -0.1118  0.0629  0.2297
   42DOPE  H12A 5295   1.156   4.621   2.743 -0.6574  0.5359  1.9661
   42DOPE  H12B 5296   1.060   4.643   2.596 -0.2682  0.9448  0.3408
   42DOPE   C11 5297   0.959   4.499   2.724 -0.3350  0.5794  0.3479
   42DOPE  H11A 5298   1.002   4.419   2.660 -1.3373  0.1067  0.2441
   42DOPE  H11B 5299   0.851   4.508   2.699 -0.6484 -1.6810  0.6590
   42DOPE     P 5300   1.033   4.319   2.902 -0.1969 -0.4466  0.1718
   42DOPE   O13 5301   1.177   4.334   2.865 -0.1930  0.1944  0.1485
   42DOPE   O14 5302   0.963   4.214   2.827 -0.1963  0.3804 -0.6013
   42DOPE   O11 5303   1.002   4.307   3.055  0.0311  0.1141  0.2253
   42DOPE   O12 5304   0.966   4.457   2.859  0.1147  0.6636 -0.4750
   42DOPE    C1 5305   0.987   4.425   3.133  1.3740 -0.1308 -0.3732
   42DOPE    HA 5306   0.887   4.469   3.115 -0.3363 -1.8081  3.6895
   42DOPE    HB 5307   1.063   4.504   3.113  1.8853 -0.1833  1.1909
   42DOPE    C2 5308   0.999   4.400   3.290 -0.7753 -0.3237 -0.4912
   42DOPE    HS 5309   1.026   4.496   3.338  1.9543 -1.0118 -0.4824
   42DOPE   O21 5310   1.099   4.295   3.315  0.1842 -0.3138  0.0166
   42DOPE   C21 5311   1.227   4.345   3.318  0.5960 -0.8092  0.3176
   42DOPE   O22 5312   1.257   4.458   3.288 -0.0824 -0.2561  0.3022
   42DOPE   C22 5313   1.324   4.241   3.366  0.5098 -0.5610  0.7525
   42DOPE   H2R 5314   1.377   4.202   3.277 -1.8732  2.0035 -2.0117
   42DOPE   H2S 5315   1.255   4.166   3.411  1.1395 -1.4597  0.2478
   42DOPE    C3 5316   0.868   4.351   3.360 -0.6462 -0.4070 -0.7628
   42DOPE    HX 5317   0.817   4.280   3.292  0.9874 -1.4400 -0.9491
   42DOPE    HY 5318   0.796   4.435   3.369  0.1843  0.2344  0.2840
   42DOPE   O31 5319   0.902   4.294   3.491 -0.2184 -0.2790 -0.2872
   42DOPE   C31 5320   0.879   4.158   3.512  0.8400  0.7312 -0.2544
   42DOPE   O32 5321   0.828   4.082   3.430 -0.2436  0.0157 -0.1713
   42DOPE   C32 5322   0.925   4.123   3.659  0.3882  0.1407 -0.1348
   42DOPE   H2X 5323   1.029   4.086   3.649 -0.6162 -2.9716 -0.0426
   42DOPE   H2Y 5324   0.926   4.219   3.715 -3.4187  0.9300 -1.1579
   42DOPE   C23 5325   1.417   4.305   3.473 -0.2827 -0.0361 -0.0665
   42DOPE   H3R 5326   1.487   4.385   3.440 -0.1979 -0.2223 -0.3340
   42DOPE   H3S 5327   1.476   4.220   3.512  0.7656 -0.5994 -2.6849
   42DOPE   C24 5328   1.340   4.360   3.591 -0.3853 -0.9293 -0.3499
   42DOPE   H4R 5329   1.284   4.280   3.643 -0.0183 -0.2677  1.1028
   42DOPE   H4S 5330   1.255   4.425   3.561  0.5069  0.0944 -0.7635
   42DOPE   C25 5331   1.431   4.446   3.683 -0.2885  1.0344  0.1588
   42DOPE   H5R 5332   1.474   4.530   3.624 -0.7142  1.4622  0.4580
   42DOPE   H5S 5333   1.508   4.380   3.729 -3.3907 -3.0665  0.0069
   42DOPE   C26 5334   1.343   4.513   3.792  0.2058  1.0358 -0.4426
   42DOPE   H6R 5335   1.242   4.537   3.753  0.4196  1.5280 -0.6945
   42DOPE   H6S 5336   1.395   4.606   3.822  0.5186  0.5686  0.4941
   42DOPE   C27 5337   1.355   4.431   3.928  0.3051 -0.1130 -0.1136
   42DOPE   H7R 5338   1.299   4.501   3.994  1.7535  0.2016  0.8134
   42DOPE   H7S 5339   1.465   4.435   3.943  0.0085 -0.6039  2.6166
   42DOPE   C28 5340   1.281   4.300   3.929  0.1685  0.2025  0.4139
   42DOPE   H8R 5341   1.336   4.219   3.878 -0.8192 -0.0674 -0.2564
   42DOPE   H8S 5342   1.199   4.321   3.857 -1.0670 -0.1477  1.6653
   42DOPE   C29 5343   1.229   4.240   4.058  0.5357  0.2269 -0.0489
   42DOPE   H9R 5344   1.302   4.216   4.136 -0.2413 -2.9323 -0.1467
   42DOPE  C210 5345   1.098   4.238   4.098 -0.2045 -0.1972  0.0050
   42DOPE  H10R 5346   1.071   4.205   4.200 -0.9311 -1.1237 -0.4782
   42DOPE  C211 5347   0.978   4.282   4.018 -0.1322  0.4378  0.2770
   42DOPE  H11R 5348   0.896   4.212   4.046  0.1248 -0.2297 -0.6048
   42DOPE  H11S 5349   0.999   4.261   3.911  0.6479  0.5296  0.4084
   42DOPE  C212 5350   0.936   4.423   4.062  0.4260  0.3494 -0.4473
   42DOPE  H12R 5351   1.018   4.494   4.089 -0.6658  1.1511  0.9476
   42DOPE  H12S 5352   0.882   4.420   4.160 -0.3100 -0.6200 -0.8755
   42DOPE  C213 5353   0.845   4.499   3.964  0.3016  0.5883  0.0009
   42DOPE  H13R 5354   0.819   4.597   4.009 -0.1711  1.0146 -1.1780
   42DOPE  H13S 5355   0.760   4.435   3.933  1.9239 -1.2780 -0.8592
   42DOPE  C214 5356   0.922   4.543   3.839  0.5191  0.6879  0.3529
   42DOPE  H14R 5357   0.916   4.458   3.768  1.5228 -0.3150  1.4175
   42DOPE  H14S 5358   1.029   4.563   3.860  1.0465 -0.2840 -1.2571
   42DOPE  C215 5359   0.859   4.667   3.774 -0.1434 -0.3660 -0.2623
   42DOPE  H15R 5360   0.924   4.690   3.687  0.2995 -1.0372 -0.1199
   42DOPE  H15S 5361   0.873   4.763   3.829  1.7582  0.6511 -2.3896
   42DOPE  C216 5362   0.717   4.659   3.717 -0.4813  0.5625 -0.3900
   42DOPE  H16R 5363   0.642   4.676   3.797  1.0656 -0.2017  1.2882
   42DOPE  H16S 5364   0.700   4.554   3.683 -1.2733  1.0691 -1.6466
   42DOPE  C217 5365   0.691   4.759   3.599 -0.4891 -0.2827 -0.6039
   42DOPE  H17R 5366   0.584   4.757   3.571 -0.4092 -1.9151 -0.9178
   42DOPE  H17S 5367   0.745   4.712   3.514  0.0072 -0.8783  0.0256
   42DOPE  C218 5368   0.730   4.901   3.623 -0.9333 -0.3968  0.0384
   42DOPE  H18R 5369   0.671   4.933   3.711 -1.4474  0.2299 -0.5222
   42DOPE  H18S 5370   0.706   4.965   3.535  1.0985  0.7563  0.2677
   42DOPE  H18T 5371   0.837   4.915   3.647 -1.1961 -0.0390  1.0347
   42DOPE   C33 5372   0.824   4.021   3.719  0.5675 -0.1349  0.1122
   42DOPE   H3X 5373   0.826   3.927   3.660  0.2489  0.6095 -1.1381
   42DOPE   H3Y 5374   0.723   4.063   3.703  0.2678 -1.6136 -2.5336
   42DOPE   C34 5375   0.842   3.980   3.867 -0.2236 -0.2607  0.2292
   42DOPE   H4X 5376   0.937   3.924   3.882 -1.0208 -1.5059  0.8086
   42DOPE   H4Y 5377   0.838   4.078   3.920  1.2066  0.0049 -0.1153
   42DOPE   C35 5378   0.733   3.887   3.917  0.1085  0.6020 -0.4960
   42DOPE   H5X 5379   0.743   3.787   3.869 -1.9079  0.1872 -0.1227
   42DOPE   H5Y 5380   0.643   3.936   3.876 -0.3162  0.3741  0.1397
   42DOPE   C36 5381   0.733   3.850   4.066  0.1051 -0.6844  0.0575
   42DOPE   H6X 5382   0.832   3.804   4.087  1.5475  2.0275 -0.3215
   42DOPE   H6Y 5383   0.648   3.781   4.078 -2.7289  2.3226 -1.1977
   42DOPE   C37 5384   0.712   3.970   4.160 -0.1484  0.1505  1.1682
   42DOPE   H7X 5385   0.769   4.062   4.134  1.4204 -1.4892 -1.8391
   42DOPE   H7Y 5386   0.606   4.001   4.150 -0.1900 -0.0169  1.0782
   42DOPE   C38 5387   0.751   3.937   4.312 -0.1332 -0.6392  0.1053
   42DOPE   H8X 5388   0.788   4.032   4.358 -0.2508 -0.2774 -0.5303
   42DOPE   H8Y 5389   0.835   3.865   4.313  0.4301  0.0115  1.1489
   42DOPE   C39 5390   0.633   3.886   4.393  0.8331  0.3161 -0.7457
   42DOPE   H9X 5391   0.565   3.819   4.339  0.7345  0.5003 -0.8490
   42DOPE  C310 5392   0.614   3.915   4.521 -0.5434 -0.0189 -0.3891
   42DOPE  H10X 5393   0.532   3.855   4.563  1.0421 -1.4825  0.7990
   42DOPE  C311 5394   0.683   4.013   4.613 -0.4565 -0.1520 -0.8162
   42DOPE  H11X 5395   0.741   3.960   4.692  2.1320 -0.4456 -2.7643
   42DOPE  H11Y 5396   0.750   4.080   4.555 -0.6587 -0.8150 -1.8356
   42DOPE  C312 5397   0.578   4.109   4.678  0.5037 -0.2328 -0.1134
   42DOPE  H12X 5398   0.536   4.057   4.767 -0.5746 -0.3914 -0.6969
   42DOPE  H12Y 5399   0.495   4.140   4.610  1.0266 -2.3729 -1.8383
   42DOPE  C313 5400   0.647   4.232   4.736 -0.7760 -0.4162  0.5373
   42DOPE  H13X 5401   0.722   4.201   4.812  1.0706  0.3407 -0.9110
   42DOPE  H13Y 5402   0.705   4.293   4.665  0.3982 -0.7723  1.1507
   42DOPE  C314 5403   0.548   4.325   4.812  0.4346 -0.1716  0.1903
   42DOPE  H14X 5404   0.489   4.266   4.884  1.1195  1.6215  2.3618
   42DOPE  H14Y 5405   0.481   4.365   4.733 -0.9085 -0.3192  1.2216
   42DOPE  C315 5406   0.598   4.447   4.889 -0.0239 -0.2245  0.2329
   42DOPE  H15X 5407   0.517   4.495   4.948  1.0960  1.9303  0.0959
   42DOPE  H15Y 5408   0.632   4.519   4.812 -1.9852  2.3020  1.5676
   42DOPE  C316 5409   0.712   4.424   4.979 -0.0452  0.0477  0.6470
   42DOPE  H16X 5410   0.789   4.360   4.930 -1.4758 -0.1071 -1.5707
   42DOPE  H16Y 5411   0.685   4.374   5.074 -1.4348  0.6718  0.6138
   42DOPE  C317 5412   0.780   4.559   5.022 -0.1760 -0.2781  0.3191
   42DOPE  H17X 5413   0.829   4.601   4.932 -0.9274 -0.0391  0.0210
   42DOPE  H17Y 5414   0.708   4.639   5.050  1.0022  0.8002  0.3468
   42DOPE  C318 5415   0.872   4.522   5.135 -0.1254 -0.2383 -0.5661
   42DOPE  H18X 5416   0.828   4.453   5.211  1.5196  0.6771  1.3287
   42DOPE  H18Y 5417   0.959   4.466   5.094  0.2554 -0.0470 -0.0425
   42DOPE  H18Z 5418   0.900   4.609   5.198  0.2498  1.0025 -2.4019
   43DOPE     N 5419   6.746   2.079   2.455  0.0262  0.2505 -0.2631
   43DOPE   HN1 5420   6.748   2.181   2.436  1.4921  0.1002 -1.0454
   43DOPE   HN2 5421   6.743   2.028   2.365  2.0473 -2.2502  0.9604
   43DOPE   HN3 5422   6.663   2.053   2.511  1.0675 -3.0533 -0.0529
   43DOPE   C12 5423   6.865   2.046   2.538  0.1205  0.3345 -0.2328
   43DOPE  H12A 5424   6.954   2.082   2.482  0.6696  0.6628  0.8193
   43DOPE  H12B 5425   6.870   1.936   2.557  0.4993  0.4914  0.6590
   43DOPE   C11 5426   6.861   2.129   2.667  0.2273  1.0047 -0.4799
   43DOPE  H11A 5427   6.936   2.087   2.738 -1.3610 -1.3774 -0.0971
   43DOPE  H11B 5428   6.760   2.115   2.711  0.3861  0.8065 -0.1738
   43DOPE     P 5429   7.013   2.327   2.696 -0.2458 -0.1806 -0.4569
   43DOPE   O13 5430   7.019   2.469   2.662 -0.5259 -0.9173  0.0960
   43DOPE   O14 5431   7.129   2.251   2.643  0.2066  0.2146 -0.3844
   43DOPE   O11 5432   7.000   2.299   2.850  0.1122  0.1467 -0.1357
   43DOPE   O12 5433   6.889   2.266   2.629 -0.2198  0.1451  0.6194
   43DOPE    C1 5434   6.895   2.373   2.918  0.0225  0.1233 -0.0683
   43DOPE    HA 5435   6.801   2.358   2.861  1.4805 -2.6547 -1.9872
   43DOPE    HB 5436   6.918   2.481   2.926  1.6561 -0.1366 -0.8236
   43DOPE    C2 5437   6.868   2.319   3.062 -0.2615  0.2866 -0.3001
   43DOPE    HS 5438   6.956   2.341   3.127 -0.4315  0.5969 -0.1766
   43DOPE   O21 5439   6.839   2.178   3.052 -0.3630 -0.1974  0.1054
   43DOPE   C21 5440   6.949   2.098   3.081 -0.3106  0.4475 -0.3147
   43DOPE   O22 5441   7.058   2.143   3.098 -0.2906  0.1935 -0.5391
   43DOPE   C22 5442   6.899   1.952   3.089  0.0819 -0.5090 -0.1931
   43DOPE   H2R 5443   6.980   1.886   3.051  0.9657 -0.8438  2.1008
   43DOPE   H2S 5444   6.812   1.946   3.020 -1.0186  5.2576  0.2176
   43DOPE    C3 5445   6.752   2.386   3.138  0.2301  0.0663  0.1874
   43DOPE    HX 5446   6.659   2.354   3.087  1.4642 -1.2379 -1.3602
   43DOPE    HY 5447   6.764   2.496   3.128  1.8206 -0.1673 -0.8562
   43DOPE   O31 5448   6.751   2.344   3.276  0.2056 -0.1269  0.0286
   43DOPE   C31 5449   6.804   2.427   3.364 -0.2029  0.1131  0.0647
   43DOPE   O32 5450   6.867   2.531   3.336  0.4768  0.0468  0.0448
   43DOPE   C32 5451   6.790   2.367   3.501 -0.2475  0.2963  0.3935
   43DOPE   H2X 5452   6.757   2.447   3.571 -0.5927  0.2313  0.3086
   43DOPE   H2Y 5453   6.708   2.293   3.493 -1.0935  1.2428  0.0559
   43DOPE   C23 5454   6.867   1.916   3.230  1.1216 -0.6301  0.5003
   43DOPE   H3R 5455   6.830   1.812   3.225 -2.5102  0.4869  0.8947
   43DOPE   H3S 5456   6.780   1.976   3.266  0.9316 -0.5491 -0.0787
   43DOPE   C24 5457   6.978   1.925   3.335 -0.3947 -0.1215  0.3778
   43DOPE   H4R 5458   7.025   2.025   3.334 -1.5411  0.4305 -0.5297
   43DOPE   H4S 5459   7.059   1.853   3.308 -0.5359 -1.1606  2.5215
   43DOPE   C25 5460   6.940   1.888   3.477 -0.1546  0.3055 -0.0073
   43DOPE   H5R 5461   6.886   1.792   3.484  1.9730 -0.8538  2.0336
   43DOPE   H5S 5462   6.887   1.980   3.510  2.7464  3.0964 -2.5241
   43DOPE   C26 5463   7.049   1.870   3.582 -0.1532  0.2460 -0.1691
   43DOPE   H6R 5464   7.099   1.965   3.607 -1.1271  0.3157  1.7603
   43DOPE   H6S 5465   7.123   1.798   3.542 -1.1610  0.0685 -1.7964
   43DOPE   C27 5466   6.983   1.825   3.714  0.1728  0.2727 -0.3129
   43DOPE   H7R 5467   6.904   1.748   3.703 -0.4899  0.7814  0.7443
   43DOPE   H7S 5468   6.917   1.906   3.753 -1.5390 -1.0255 -0.3732
   43DOPE   C28 5469   7.080   1.786   3.826 -1.0047 -0.9237  0.5415
   43DOPE   H8R 5470   7.151   1.867   3.854 -1.3644 -0.5170  0.2879
   43DOPE   H8S 5471   7.132   1.695   3.789 -1.1966 -0.8345  0.0518
   43DOPE   C29 5472   6.988   1.753   3.943 -0.1248  0.2962 -0.2662
   43DOPE   H9R 5473   6.930   1.661   3.929  0.4030  0.0436 -0.8445
   43DOPE  C210 5474   6.967   1.828   4.051  0.3227 -0.0935  0.7095
   43DOPE  H10R 5475   6.890   1.792   4.122 -0.5968  2.7443  1.3143
   43DOPE  C211 5476   7.031   1.960   4.085 -0.7088  0.4404  0.5334
   43DOPE  H11R 5477   6.955   2.039   4.069 -0.8723  0.0028 -1.0328
   43DOPE  H11S 5478   7.122   1.980   4.024 -1.6452 -2.5264 -2.0984
   43DOPE  C212 5479   7.065   1.953   4.238  0.2196 -0.4383 -0.9132
   43DOPE  H12R 5480   7.134   2.039   4.249 -2.2751  1.5452  0.5281
   43DOPE  H12S 5481   7.111   1.858   4.271 -0.8191  0.2429  3.0592
   43DOPE  C213 5482   6.940   1.975   4.333 -0.7266 -0.2039  0.5779
   43DOPE  H13R 5483   6.861   1.897   4.319 -0.6952 -0.4564  1.7544
   43DOPE  H13S 5484   6.892   2.062   4.283  0.4005  0.4595  0.6259
   43DOPE  C214 5485   6.970   1.981   4.485 -0.1738 -0.1892  0.4186
   43DOPE  H14R 5486   7.012   1.884   4.518  0.0914 -0.0256  0.5609
   43DOPE  H14S 5487   6.879   2.007   4.544  1.1678  2.4056  1.5072
   43DOPE  C215 5488   7.071   2.094   4.512  0.1522  0.1146  0.1775
   43DOPE  H15R 5489   7.015   2.185   4.482 -2.3400 -1.0253  1.1008
   43DOPE  H15S 5490   7.169   2.076   4.463 -0.4913  1.1885 -1.5942
   43DOPE  C216 5491   7.109   2.109   4.660  0.0766  0.8052 -0.1633
   43DOPE  H16R 5492   7.128   2.008   4.702 -3.3736  0.8560  1.9083
   43DOPE  H16S 5493   7.020   2.148   4.713 -1.2137  1.2406 -2.5149
   43DOPE  C217 5494   7.242   2.179   4.680  0.2868  0.0869 -0.0149
   43DOPE  H17R 5495   7.252   2.274   4.623  0.5866  0.1268  0.1074
   43DOPE  H17S 5496   7.321   2.113   4.638  1.9871  1.0772  1.4974
   43DOPE  C218 5497   7.271   2.203   4.831  0.1515 -0.0100 -0.0999
   43DOPE  H18R 5498   7.192   2.264   4.880  1.0759  0.4889  0.8070
   43DOPE  H18S 5499   7.368   2.257   4.831  0.4296 -0.3801  2.4226
   43DOPE  H18T 5500   7.271   2.104   4.881  2.7283 -0.9690 -1.7878
   43DOPE   C33 5501   6.919   2.303   3.534 -0.1953  0.4650  0.0492
   43DOPE   H3X 5502   6.997   2.381   3.543 -1.6060  2.0165 -0.7166
   43DOPE   H3Y 5503   6.955   2.235   3.454  0.6270  0.7543  0.1634
   43DOPE   C34 5504   6.918   2.238   3.672 -0.1415 -0.7637 -0.0046
   43DOPE   H4X 5505   6.820   2.192   3.696  0.7903 -1.0597  4.0524
   43DOPE   H4Y 5506   7.006   2.170   3.685  2.3916  1.5426 -3.3807
   43DOPE   C35 5507   6.927   2.342   3.789 -0.2819 -0.3586 -0.7618
   43DOPE   H5X 5508   6.852   2.423   3.776  1.3568  1.2751 -0.4413
   43DOPE   H5Y 5509   7.031   2.381   3.779 -0.9216  1.6685 -0.0305
   43DOPE   C36 5510   6.918   2.274   3.932  0.2435 -0.2203 -0.0734
   43DOPE   H6X 5511   7.003   2.203   3.941  1.7924  1.4447 -0.8442
   43DOPE   H6Y 5512   6.817   2.229   3.945 -0.5161  1.6048  0.7649
   43DOPE   C37 5513   6.937   2.378   4.038  0.3877 -0.1666 -0.1153
   43DOPE   H7X 5514   7.042   2.411   4.047  1.4579 -3.3960  0.7114
   43DOPE   H7Y 5515   6.873   2.465   4.014  1.2726  0.4222 -0.3520
   43DOPE   C38 5516   6.909   2.327   4.185  0.5235  0.0285 -0.4882
   43DOPE   H8X 5517   6.990   2.251   4.198  1.4543  0.8169 -1.5352
   43DOPE   H8Y 5518   6.811   2.274   4.187  0.3868  0.2908  1.0065
   43DOPE   C39 5519   6.923   2.433   4.296 -0.4228  0.1402 -0.6872
   43DOPE   H9X 5520   6.996   2.515   4.287  1.2970 -1.4243 -1.7197
   43DOPE  C310 5521   6.836   2.449   4.402  0.8467  0.4580 -0.5052
   43DOPE  H10X 5522   6.851   2.530   4.475 -2.1270  0.3475  0.3456
   43DOPE  C311 5523   6.714   2.368   4.440  0.1966 -0.2213  0.0055
   43DOPE  H11X 5524   6.682   2.303   4.355  1.7549  0.9873 -1.5878
   43DOPE  H11Y 5525   6.745   2.304   4.525 -0.9371  0.3013  0.8354
   43DOPE  C312 5526   6.597   2.460   4.480 -0.0119  0.4686  0.5629
   43DOPE  H12X 5527   6.511   2.389   4.482  1.3025 -1.3479 -1.5989
   43DOPE  H12Y 5528   6.588   2.531   4.395 -0.8449 -1.7001 -1.2827
   43DOPE  C313 5529   6.612   2.541   4.612 -0.4224  0.0627  0.0687
   43DOPE  H13X 5530   6.661   2.473   4.685  0.9366 -1.2057 -1.8943
   43DOPE  H13Y 5531   6.688   2.617   4.585 -1.8046  0.5102 -3.0815
   43DOPE  C314 5532   6.476   2.594   4.660 -0.1572  0.8861 -0.0470
   43DOPE  H14X 5533   6.410   2.505   4.676 -0.5816  1.1922 -0.0803
   43DOPE  H14Y 5534   6.435   2.673   4.594 -1.0396  0.1490 -0.4169
   43DOPE  C315 5535   6.486   2.641   4.805  0.2008 -0.0422 -0.1465
   43DOPE  H15X 5536   6.550   2.732   4.804 -0.7587  0.6491 -0.3418
   43DOPE  H15Y 5537   6.530   2.563   4.870 -2.7906 -1.1613  0.6909
   43DOPE  C316 5538   6.346   2.673   4.863 -0.6569 -0.2076  0.7713
   43DOPE  H16X 5539   6.342   2.682   4.973 -3.6110 -1.2363  0.8409
   43DOPE  H16Y 5540   6.277   2.592   4.830 -0.4388 -0.2791  0.4908
   43DOPE  C317 5541   6.296   2.810   4.801  0.1399  1.1477  0.3066
   43DOPE  H17X 5542   6.384   2.877   4.805  0.0983  1.4502 -2.3192
   43DOPE  H17Y 5543   6.274   2.790   4.694  0.1330  1.5465  0.2354
   43DOPE  C318 5544   6.175   2.870   4.875 -0.6774 -0.2444 -0.2158
   43DOPE  H18X 5545   6.185   2.879   4.985 -0.9239  1.8272 -0.3280
   43DOPE  H18Y 5546   6.167   2.973   4.833  0.0187 -0.6161 -1.3167
   43DOPE  H18Z 5547   6.078   2.826   4.842 -0.3406 -0.5188 -0.8618
   44DOPE     N 5548   3.363   0.559   2.431  0.1643 -0.5376 -0.2550
   44DOPE   HN1 5549   3.356   0.599   2.336  1.6211  0.8519  0.1746
   44DOPE   HN2 5550   3.410   0.638   2.479  0.0643 -0.4614 -0.2825
   44DOPE   HN3 5551   3.428   0.477   2.433 -0.7867 -1.3149  0.2973
   44DOPE   C12 5552   3.233   0.515   2.499  0.0665  0.0862  0.3359
   44DOPE  H12A 5553   3.180   0.440   2.437  3.3402 -2.4092  0.2673
   44DOPE  H12B 5554   3.171   0.606   2.510  1.0428  0.5918  1.9750
   44DOPE   C11 5555   3.272   0.456   2.632 -0.1462 -0.2212 -0.0419
   44DOPE  H11A 5556   3.176   0.407   2.661 -1.0562  1.5170  0.0173
   44DOPE  H11B 5557   3.283   0.538   2.706  0.3881 -0.0846 -0.2703
   44DOPE     P 5558   3.393   0.226   2.675  0.1315 -0.2523 -0.0834
   44DOPE   O13 5559   3.526   0.175   2.645 -0.3615 -0.2037 -0.4432
   44DOPE   O14 5560   3.277   0.157   2.613  0.4089 -0.3090 -0.1995
   44DOPE   O11 5561   3.367   0.239   2.825 -0.1202 -0.3831 -0.2305
   44DOPE   O12 5562   3.391   0.375   2.630 -0.5278 -0.1418  0.6550
   44DOPE    C1 5563   3.455   0.297   2.915 -0.0260 -1.1858 -0.4972
   44DOPE    HA 5564   3.473   0.403   2.888 -2.0316 -0.8593 -0.6910
   44DOPE    HB 5565   3.547   0.235   2.919 -0.9659 -2.5741  0.0851
   44DOPE    C2 5566   3.397   0.305   3.063  0.7868 -0.4701  0.0437
   44DOPE    HS 5567   3.468   0.366   3.124 -1.5510  1.5544  0.8863
   44DOPE   O21 5568   3.367   0.173   3.113 -0.3345  0.2222 -0.0452
   44DOPE   C21 5569   3.469   0.121   3.167 -0.3959  0.4242  0.0327
   44DOPE   O22 5570   3.582   0.169   3.175  0.3801 -0.6020  0.1755
   44DOPE   C22 5571   3.422  -0.004   3.240  0.3744  0.6135  0.0126
   44DOPE   H2R 5572   3.372  -0.078   3.174  0.1270 -0.8235  1.7429
   44DOPE   H2S 5573   3.341   0.027   3.308 -1.9078  1.5240 -2.8944
   44DOPE    C3 5574   3.267   0.391   3.058  0.0955 -0.3453  0.3446
   44DOPE    HX 5575   3.204   0.339   2.983 -0.3576  3.3493 -2.0472
   44DOPE    HY 5576   3.286   0.491   3.014 -0.3866 -1.0661 -1.5812
   44DOPE   O31 5577   3.221   0.412   3.186  0.6307  0.2630 -0.1501
   44DOPE   C31 5578   3.097   0.376   3.215  0.5611 -0.1451  0.3398
   44DOPE   O32 5579   3.019   0.337   3.136  0.5177  0.6920 -0.1619
   44DOPE   C32 5580   3.061   0.400   3.369 -0.5169  0.0694  0.2973
   44DOPE   H2X 5581   2.965   0.345   3.379 -0.7471  0.4594  0.2596
   44DOPE   H2Y 5582   3.149   0.354   3.419  1.0219  0.5019 -1.8463
   44DOPE   C23 5583   3.543  -0.070   3.305 -0.4709 -0.5580  0.3281
   44DOPE   H3R 5584   3.591   0.004   3.372 -0.1289 -0.6842  0.2298
   44DOPE   H3S 5585   3.610  -0.090   3.218 -2.6264 -4.6756 -0.6462
   44DOPE   C24 5586   3.509  -0.195   3.386 -0.6421  0.9238 -0.3744
   44DOPE   H4R 5587   3.484  -0.280   3.318  1.5871 -2.5173  2.6865
   44DOPE   H4S 5588   3.422  -0.181   3.454  0.1240 -4.5721  2.3499
   44DOPE   C25 5589   3.631  -0.253   3.464  0.6142 -0.1584 -0.2305
   44DOPE   H5R 5590   3.675  -0.172   3.526  1.4273  0.3334 -1.4083
   44DOPE   H5S 5591   3.708  -0.277   3.388 -0.9104  0.6552 -2.1110
   44DOPE   C26 5592   3.605  -0.376   3.559 -0.2657  0.0693  0.8080
   44DOPE   H6R 5593   3.700  -0.398   3.614  1.9346  1.9598 -1.9351
   44DOPE   H6S 5594   3.596  -0.465   3.494 -1.6775  0.3528  0.5995
   44DOPE   C27 5595   3.486  -0.376   3.653  0.0262 -0.6869  0.1270
   44DOPE   H7R 5596   3.392  -0.384   3.594  0.4182  0.4460 -0.6635
   44DOPE   H7S 5597   3.484  -0.270   3.686 -0.2098 -0.8203  0.5506
   44DOPE   C28 5598   3.486  -0.463   3.772 -0.4766 -0.0405  0.7438
   44DOPE   H8R 5599   3.387  -0.441   3.815 -0.7214  4.1464 -1.4734
   44DOPE   H8S 5600   3.561  -0.423   3.844  0.3279 -0.5159  0.1943
   44DOPE   C29 5601   3.495  -0.609   3.760 -0.0652  0.1671  0.6070
   44DOPE   H9R 5602   3.455  -0.642   3.663 -0.6587  1.1504  0.5108
   44DOPE  C210 5603   3.540  -0.701   3.847 -1.1274 -0.5371 -0.5020
   44DOPE  H10R 5604   3.510  -0.807   3.840  1.0590 -1.0973 -3.2838
   44DOPE  C211 5605   3.611  -0.667   3.977  0.0314 -0.7482 -0.7787
   44DOPE  H11R 5606   3.693  -0.594   3.962  0.1635 -0.1655  2.1665
   44DOPE  H11S 5607   3.670  -0.758   4.004 -1.3839 -1.4073  0.2331
   44DOPE  C212 5608   3.519  -0.630   4.092 -0.4079  0.0949  0.2796
   44DOPE  H12R 5609   3.433  -0.700   4.094 -0.1054 -0.2692  0.7339
   44DOPE  H12S 5610   3.472  -0.534   4.061  0.8295  1.4088  2.2396
   44DOPE  C213 5611   3.584  -0.631   4.232 -0.4078  0.2850  0.0251
   44DOPE  H13R 5612   3.660  -0.550   4.242 -0.5750  0.4740 -0.2007
   44DOPE  H13S 5613   3.636  -0.723   4.265 -1.0916 -0.4523 -0.8984
   44DOPE  C214 5614   3.492  -0.591   4.350 -0.0249 -0.7259 -0.0130
   44DOPE  H14R 5615   3.416  -0.669   4.373 -0.3044 -0.4928 -0.1299
   44DOPE  H14S 5616   3.429  -0.500   4.335 -1.5341 -1.5742  0.8878
   44DOPE  C215 5617   3.561  -0.581   4.487 -0.1135 -0.0018 -0.0613
   44DOPE  H15R 5618   3.620  -0.488   4.501 -1.0506  1.0091 -2.3586
   44DOPE  H15S 5619   3.617  -0.676   4.506 -2.1255 -0.9631  1.3872
   44DOPE  C216 5620   3.462  -0.601   4.599  0.8054  0.0525 -0.4699
   44DOPE  H16R 5621   3.399  -0.692   4.590  0.7557 -0.2639  2.1848
   44DOPE  H16S 5622   3.386  -0.520   4.594  0.8183  0.0133 -1.4349
   44DOPE  C217 5623   3.531  -0.590   4.737  0.2042  0.3145  0.0293
   44DOPE  H17R 5624   3.608  -0.510   4.733  0.1333  0.3898  0.2172
   44DOPE  H17S 5625   3.602  -0.676   4.742  0.1693  0.2700 -0.2156
   44DOPE  C218 5626   3.443  -0.576   4.865 -0.8038 -0.2257 -0.1219
   44DOPE  H18R 5627   3.360  -0.504   4.849 -0.0888  0.8419  0.8058
   44DOPE  H18S 5628   3.503  -0.545   4.953  0.2935  1.3734 -1.3771
   44DOPE  H18T 5629   3.399  -0.677   4.884  1.1094 -1.1568 -0.4107
   44DOPE   C33 5630   3.037   0.548   3.419 -0.9003  0.5575 -0.4358
   44DOPE   H3X 5631   2.945   0.590   3.373 -1.7688 -0.6162  0.1829
   44DOPE   H3Y 5632   3.122   0.617   3.399  0.0073  0.0519  1.4998
   44DOPE   C34 5633   3.023   0.560   3.570  0.0270 -0.3083 -0.2270
   44DOPE   H4X 5634   2.989   0.664   3.588 -1.5408 -1.0470  1.3869
   44DOPE   H4Y 5635   2.947   0.486   3.603 -1.6646  1.1171 -0.7752
   44DOPE   C35 5636   3.149   0.533   3.651 -0.1722 -0.5834  0.3159
   44DOPE   H5X 5637   3.225   0.593   3.596 -0.5766  1.2259  1.6205
   44DOPE   H5Y 5638   3.188   0.430   3.643  3.5770  0.4237  3.0477
   44DOPE   C36 5639   3.151   0.567   3.803  0.7719 -0.2360 -0.3813
   44DOPE   H6X 5640   3.074   0.505   3.852  0.4242  0.1401 -0.4511
   44DOPE   H6Y 5641   3.118   0.673   3.809  0.4533 -0.3452 -0.2285
   44DOPE   C37 5642   3.293   0.560   3.872  0.4742 -0.0276  0.4540
   44DOPE   H7X 5643   3.338   0.459   3.867  3.1140  1.0160  1.4232
   44DOPE   H7Y 5644   3.364   0.621   3.812 -1.4766  1.7801 -0.1544
   44DOPE   C38 5645   3.298   0.609   4.015  0.7735  0.0872 -0.6839
   44DOPE   H8X 5646   3.232   0.541   4.073 -0.4419  0.1291 -1.9749
   44DOPE   H8Y 5647   3.263   0.713   4.033  1.0049  0.1046 -0.3120
   44DOPE   C39 5648   3.443   0.598   4.073  0.1292 -0.3802  0.1794
   44DOPE   H9X 5649   3.517   0.563   3.999 -2.0808 -1.5632 -1.5850
   44DOPE  C310 5650   3.476   0.651   4.196 -0.3159 -0.0919  0.4690
   44DOPE  H10X 5651   3.578   0.649   4.238  1.5957  0.3806 -3.6304
   44DOPE  C311 5652   3.386   0.726   4.290 -0.2692  0.1203 -0.6640
   44DOPE  H11X 5653   3.433   0.813   4.340 -0.4097 -1.1869  1.9329
   44DOPE  H11Y 5654   3.288   0.750   4.244  0.8622  1.8634 -2.3094
   44DOPE  C312 5655   3.355   0.633   4.408 -0.4896 -0.1858 -0.1664
   44DOPE  H12X 5656   3.342   0.526   4.380  0.5006 -0.2603 -0.3823
   44DOPE  H12Y 5657   3.262   0.667   4.458  0.3589  0.7312  0.8336
   44DOPE  C313 5658   3.462   0.631   4.519 -0.2636  0.0827 -0.4184
   44DOPE  H13X 5659   3.557   0.591   4.478 -0.4667  0.5121 -1.3314
   44DOPE  H13Y 5660   3.479   0.738   4.546 -1.0032 -0.2989  1.8016
   44DOPE  C314 5661   3.420   0.553   4.647 -0.5189  0.1865  0.2418
   44DOPE  H14X 5662   3.425   0.442   4.633  0.4008 -0.1642  2.7637
   44DOPE  H14Y 5663   3.323   0.591   4.684  0.3884  0.6881  2.2650
   44DOPE  C315 5664   3.522   0.587   4.758 -0.6237 -0.4227  0.6909
   44DOPE  H15X 5665   3.518   0.697   4.773  1.8138  0.0246 -1.2136
   44DOPE  H15Y 5666   3.622   0.561   4.716  0.7556  2.7809  1.6251
   44DOPE  C316 5667   3.492   0.523   4.894 -0.3199  0.0731 -0.7802
   44DOPE  H16X 5668   3.390   0.547   4.929  0.4048  0.7898  0.9761
   44DOPE  H16Y 5669   3.568   0.560   4.967 -0.7097 -0.0613 -0.3047
   44DOPE  C317 5670   3.505   0.371   4.902  1.0249 -0.8259 -0.8034
   44DOPE  H17X 5671   3.487   0.344   5.008 -0.6447 -1.2687 -1.1767
   44DOPE  H17Y 5672   3.430   0.328   4.832 -1.8407  1.8813  0.4093
   44DOPE  C318 5673   3.643   0.315   4.863 -0.6868  1.2181 -1.0629
   44DOPE  H18X 5674   3.720   0.385   4.900 -0.5837  1.6466 -2.0408
   44DOPE  H18Y 5675   3.651   0.222   4.923 -2.2486  2.3416  1.0017
   44DOPE  H18Z 5676   3.654   0.301   4.753  0.1339  0.5852 -0.9135
   45DOPE     N 5677   2.769   1.073   2.582 -0.1084 -0.0630  0.0166
   45DOPE   HN1 5678   2.745   1.014   2.499  0.0976  3.4311 -2.7782
   45DOPE   HN2 5679   2.694   1.142   2.604 -0.1581  0.0400 -0.4581
   45DOPE   HN3 5680   2.849   1.137   2.563 -0.2826  0.6749  1.6044
   45DOPE   C12 5681   2.802   0.982   2.697  0.1630  0.3558 -0.5962
   45DOPE  H12A 5682   2.704   0.948   2.737  0.5737 -1.4734 -1.0704
   45DOPE  H12B 5683   2.854   1.036   2.779 -0.3620  0.3064 -0.2248
   45DOPE   C11 5684   2.877   0.856   2.649 -0.3082  0.0449 -0.0106
   45DOPE  H11A 5685   2.796   0.781   2.638  0.0244 -0.5665  1.4560
   45DOPE  H11B 5686   2.932   0.811   2.734 -0.6074  0.5976  0.4856
   45DOPE     P 5687   3.113   0.949   2.581 -0.0847  0.0202 -0.2996
   45DOPE   O13 5688   3.173   1.015   2.463  0.0812  0.3541 -0.5743
   45DOPE   O14 5689   3.196   0.853   2.650  0.0087 -0.5106 -0.4286
   45DOPE   O11 5690   3.061   1.049   2.693 -0.3588 -0.0473 -0.2235
   45DOPE   O12 5691   2.970   0.881   2.543  0.2741 -0.6385 -0.0368
   45DOPE    C1 5692   3.141   1.147   2.751  0.3282 -0.0094  0.1050
   45DOPE    HA 5693   3.083   1.238   2.776  2.2561  1.0650  0.8784
   45DOPE    HB 5694   3.216   1.178   2.676  1.1197 -1.0312  0.4481
   45DOPE    C2 5695   3.201   1.100   2.882  0.5181 -0.1591 -0.2299
   45DOPE    HS 5696   3.230   0.993   2.876  1.2433  0.0115  0.0988
   45DOPE   O21 5697   3.101   1.131   2.978 -0.7095  0.1361 -0.1803
   45DOPE   C21 5698   3.017   1.037   3.021 -0.0047 -0.0262 -0.8991
   45DOPE   O22 5699   3.014   0.926   2.981  0.2649  0.0055  0.5465
   45DOPE   C22 5700   2.909   1.106   3.113 -0.7571 -0.0960  0.1132
   45DOPE   H2R 5701   2.815   1.120   3.056 -0.4144 -0.8874 -0.6685
   45DOPE   H2S 5702   2.945   1.207   3.139 -1.2197 -0.2563  1.4795
   45DOPE    C3 5703   3.326   1.186   2.910 -0.3630 -0.0572  0.0835
   45DOPE    HX 5704   3.291   1.292   2.908  2.5660  1.0272  1.4697
   45DOPE    HY 5705   3.395   1.163   2.826  1.2076 -1.0668  1.5920
   45DOPE   O31 5706   3.387   1.139   3.027  0.1441 -0.0177  0.0211
   45DOPE   C31 5707   3.434   1.231   3.101 -0.1968 -0.2556  0.0135
   45DOPE   O32 5708   3.446   1.352   3.077  0.1568 -0.1983  0.2347
   45DOPE   C32 5709   3.476   1.160   3.237 -0.2904  0.1977  0.2897
   45DOPE   H2X 5710   3.403   1.078   3.251  1.5748 -1.7299 -0.8173
   45DOPE   H2Y 5711   3.580   1.129   3.215 -0.2760  0.9081 -0.7710
   45DOPE   C23 5712   2.887   1.031   3.246 -0.3302 -0.0257 -0.5690
   45DOPE   H3R 5713   2.879   0.925   3.214 -0.7078  0.2841 -1.5670
   45DOPE   H3S 5714   2.785   1.058   3.280 -0.0260  1.3410 -0.6858
   45DOPE   C24 5715   2.997   1.051   3.351  0.6008  0.5081 -0.2812
   45DOPE   H4R 5716   2.994   1.150   3.403 -0.7327 -0.5976  1.9277
   45DOPE   H4S 5717   3.094   1.048   3.299  0.2350 -1.8652 -0.9228
   45DOPE   C25 5718   2.990   0.943   3.459  0.0608  0.3565  0.7272
   45DOPE   H5R 5719   3.004   0.839   3.422  1.2565  0.0030  2.0915
   45DOPE   H5S 5720   2.884   0.934   3.492 -0.8551  2.6335 -1.2722
   45DOPE   C26 5721   3.086   0.961   3.583  0.0588 -0.0884  0.3556
   45DOPE   H6R 5722   3.093   0.870   3.645 -1.5505 -0.9734 -0.7012
   45DOPE   H6S 5723   3.050   1.051   3.637  2.4792  1.5868 -0.6275
   45DOPE   C27 5724   3.230   0.997   3.544 -0.2831  0.0659  0.1378
   45DOPE   H7R 5725   3.222   1.092   3.488 -0.6669  1.1541  1.9760
   45DOPE   H7S 5726   3.281   0.921   3.481  0.8071  0.9731 -0.1123
   45DOPE   C28 5727   3.318   1.034   3.668 -0.3066  0.2648  0.4223
   45DOPE   H8R 5728   3.250   1.095   3.731 -0.2799 -0.1882  0.8983
   45DOPE   H8S 5729   3.396   1.106   3.632 -0.2623  0.5843  1.1291
   45DOPE   C29 5730   3.376   0.915   3.731  0.1232  0.6064 -0.7122
   45DOPE   H9R 5731   3.305   0.859   3.794 -1.8761  3.4577 -0.2088
   45DOPE  C210 5732   3.500   0.859   3.700 -1.0556  0.1244  0.3661
   45DOPE  H10R 5733   3.533   0.768   3.753  1.1962  0.4897 -0.3102
   45DOPE  C211 5734   3.599   0.915   3.595  0.6240  0.4670 -0.6980
   45DOPE  H11R 5735   3.551   0.969   3.511 -0.2193  0.5229 -0.1896
   45DOPE  H11S 5736   3.650   0.827   3.550 -0.7148  0.1669 -1.6857
   45DOPE  C212 5737   3.720   1.001   3.636  0.1103  0.7381 -1.0169
   45DOPE  H12R 5738   3.782   0.940   3.704 -0.2167 -0.3798 -1.7015
   45DOPE  H12S 5739   3.681   1.089   3.691 -0.7202  0.7444 -1.5947
   45DOPE  C213 5740   3.794   1.042   3.505  0.7847  0.2210  0.4859
   45DOPE  H13R 5741   3.734   1.107   3.438  1.4278 -0.6636 -1.0063
   45DOPE  H13S 5742   3.815   0.954   3.441  1.1697 -0.0632  0.9951
   45DOPE  C214 5743   3.921   1.114   3.543  0.4606  0.8414  0.4625
   45DOPE  H14R 5744   4.003   1.044   3.569 -0.7537 -1.3222 -1.0930
   45DOPE  H14S 5745   3.898   1.176   3.632  2.6232  2.3616  0.0226
   45DOPE  C215 5746   3.970   1.203   3.435  0.2798 -0.4799 -0.3116
   45DOPE  H15R 5747   4.070   1.239   3.469  0.3497 -0.7532 -0.2204
   45DOPE  H15S 5748   3.909   1.296   3.430 -0.6194 -1.0954 -1.0655
   45DOPE  C216 5749   3.988   1.144   3.292 -0.7916  0.0813  0.0658
   45DOPE  H16R 5750   3.895   1.130   3.234 -0.1010  0.5307 -1.1694
   45DOPE  H16S 5751   4.030   1.043   3.313  0.5569  0.6842  0.3888
   45DOPE  C217 5752   4.083   1.220   3.201  0.3502 -0.0741 -0.0974
   45DOPE  H17R 5753   4.088   1.176   3.099 -0.2915 -0.4283  0.0179
   45DOPE  H17S 5754   4.189   1.213   3.233  0.6127  0.8798 -0.7189
   45DOPE  C218 5755   4.041   1.363   3.190  0.7171 -0.0507 -0.0128
   45DOPE  H18R 5756   3.933   1.372   3.165  0.9504  0.1875 -0.9779
   45DOPE  H18S 5757   4.101   1.424   3.120  2.2507 -0.5056  0.8668
   45DOPE  H18T 5758   4.047   1.409   3.292  0.3704  0.1479 -0.0786
   45DOPE   C33 5759   3.492   1.252   3.361 -0.4154  0.1546  0.0993
   45DOPE   H3X 5760   3.508   1.187   3.450  2.8297  0.7397  0.0749
   45DOPE   H3Y 5761   3.401   1.312   3.384 -0.8215  0.5147 -2.2437
   45DOPE   C34 5762   3.614   1.351   3.353  0.2586 -0.5782 -0.7222
   45DOPE   H4X 5763   3.700   1.286   3.326 -0.9350 -3.4078  1.6886
   45DOPE   H4Y 5764   3.586   1.428   3.278 -2.0364  1.1120  1.7048
   45DOPE   C35 5765   3.655   1.409   3.491 -0.3039  0.5704 -0.0142
   45DOPE   H5X 5766   3.745   1.472   3.477  0.1365  0.3365  1.6381
   45DOPE   H5Y 5767   3.687   1.326   3.556  1.2698  3.1509  2.7818
   45DOPE   C36 5768   3.545   1.473   3.570  0.7845  0.2020 -0.5257
   45DOPE   H6X 5769   3.478   1.385   3.582  2.7045 -1.3520 -0.6709
   45DOPE   H6Y 5770   3.483   1.551   3.520  0.5339  0.7144  0.5270
   45DOPE   C37 5771   3.589   1.501   3.717  0.4688 -0.3119  1.4172
   45DOPE   H7X 5772   3.668   1.579   3.730  0.1997  0.3826 -0.7004
   45DOPE   H7Y 5773   3.496   1.531   3.769  0.2223 -1.2276  1.5125
   45DOPE   C38 5774   3.631   1.382   3.810 -0.5019  1.1752  0.2560
   45DOPE   H8X 5775   3.740   1.372   3.791 -0.1154  2.9808  1.3108
   45DOPE   H8Y 5776   3.592   1.282   3.782 -1.4889  1.2986  1.1302
   45DOPE   C39 5777   3.603   1.420   3.952  0.2921 -0.3025  0.2920
   45DOPE   H9X 5778   3.645   1.519   3.975 -0.0353  0.4455 -2.0868
   45DOPE  C310 5779   3.559   1.331   4.045  0.0885 -0.3350 -0.4021
   45DOPE  H10X 5780   3.544   1.368   4.147  0.0024 -0.0621 -0.5102
   45DOPE  C311 5781   3.497   1.198   4.022 -0.1757  0.2762  0.0568
   45DOPE  H11X 5782   3.387   1.194   4.042 -0.0088 -0.8015  0.8500
   45DOPE  H11Y 5783   3.494   1.170   3.915  0.8967  2.0434 -0.4665
   45DOPE  C312 5784   3.567   1.070   4.092 -0.4822 -0.2696 -0.1809
   45DOPE  H12X 5785   3.501   0.981   4.085 -0.5709 -0.2115 -0.0849
   45DOPE  H12Y 5786   3.585   1.083   4.201  1.5105 -0.7943 -0.4139
   45DOPE  C313 5787   3.708   1.034   4.032  0.0695 -0.5843 -0.0795
   45DOPE  H13X 5788   3.689   1.026   3.923  1.5804  1.0670 -0.5120
   45DOPE  H13Y 5789   3.781   1.117   4.043  0.6118 -1.1222  0.5023
   45DOPE  C314 5790   3.770   0.904   4.074 -0.3400 -0.0564  0.1018
   45DOPE  H14X 5791   3.836   0.858   3.998  0.5802 -2.0676  1.9950
   45DOPE  H14Y 5792   3.691   0.829   4.094 -0.9977  0.7764  0.6821
   45DOPE  C315 5793   3.858   0.906   4.195  0.0223 -0.3777  0.3508
   45DOPE  H15X 5794   3.815   0.944   4.290 -0.4569  0.6654 -0.2745
   45DOPE  H15Y 5795   3.949   0.968   4.178  0.3310 -0.7621  0.5617
   45DOPE  C316 5796   3.908   0.759   4.218 -0.5311 -0.8123 -0.4357
   45DOPE  H16X 5797   3.965   0.719   4.132  0.0992 -0.0390 -0.3767
   45DOPE  H16Y 5798   3.824   0.688   4.240 -1.8013  1.0924  1.2834
   45DOPE  C317 5799   4.009   0.750   4.342  0.9126 -0.6877 -0.0407
   45DOPE  H17X 5800   4.106   0.775   4.294  0.0098  0.2723 -1.4213
   45DOPE  H17Y 5801   3.990   0.826   4.421  0.2427 -0.3040 -0.5696
   45DOPE  C318 5802   4.008   0.612   4.414 -0.2134 -0.2777 -0.8948
   45DOPE  H18X 5803   3.907   0.582   4.447  0.8322 -2.2449  0.7481
   45DOPE  H18Y 5804   4.035   0.522   4.354  2.9921  0.4989 -0.7928
   45DOPE  H18Z 5805   4.065   0.611   4.509 -0.8685 -0.3624 -0.5043
   46DOPE     N 5806   5.550   0.179   2.577  0.3786 -0.5166 -0.0772
   46DOPE   HN1 5807   5.560   0.100   2.510  0.1422 -1.6802  1.2229
   46DOPE   HN2 5808   5.600   0.155   2.664 -0.7336 -2.5802  0.0537
   46DOPE   HN3 5809   5.453   0.179   2.613  0.9630 -2.4741  1.6774
   46DOPE   C12 5810   5.592   0.311   2.520 -0.4461 -0.3972  0.3144
   46DOPE  H12A 5811   5.521   0.344   2.441  0.1877  0.0271 -0.0901
   46DOPE  H12B 5812   5.685   0.282   2.467 -0.1559  0.9978  0.0249
   46DOPE   C11 5813   5.633   0.417   2.628  0.1332 -0.4456 -0.0155
   46DOPE  H11A 5814   5.550   0.422   2.702  1.6720 -1.6220  1.8784
   46DOPE  H11B 5815   5.645   0.518   2.584 -1.9114 -0.3040 -0.3560
   46DOPE     P 5816   5.769   0.303   2.816  0.1263  0.5615 -0.0114
   46DOPE   O13 5817   5.909   0.300   2.863  0.5800 -0.2905 -0.3244
   46DOPE   O14 5818   5.710   0.173   2.783  0.3290  0.3115  0.3842
   46DOPE   O11 5819   5.677   0.378   2.916 -0.0138 -0.8213 -0.4585
   46DOPE   O12 5820   5.764   0.393   2.693 -0.0079  0.0642  0.0526
   46DOPE    C1 5821   5.725   0.489   2.989 -0.3489 -0.9709 -0.0343
   46DOPE    HA 5822   5.649   0.570   2.993  0.3039  0.1225 -4.2785
   46DOPE    HB 5823   5.808   0.549   2.946  0.9152 -1.0700  2.1583
   46DOPE    C2 5824   5.761   0.452   3.137  0.5244  1.4814  0.1151
   46DOPE    HS 5825   5.865   0.412   3.132  0.3602  1.1196 -0.4182
   46DOPE   O21 5826   5.661   0.365   3.197 -0.3853 -0.3518  0.2663
   46DOPE   C21 5827   5.684   0.238   3.191  0.4633  1.0891  0.2278
   46DOPE   O22 5828   5.786   0.184   3.145  0.3315  0.2249 -0.6476
   46DOPE   C22 5829   5.560   0.163   3.235 -1.0016 -0.1003 -0.4222
   46DOPE   H2R 5830   5.588   0.056   3.247 -0.7243 -0.1648 -1.5383
   46DOPE   H2S 5831   5.479   0.176   3.160 -2.4357 -0.7181  0.9405
   46DOPE    C3 5832   5.789   0.576   3.227 -0.7066 -0.1783  1.0779
   46DOPE    HX 5833   5.694   0.634   3.225 -0.8288 -0.3048  2.2118
   46DOPE    HY 5834   5.866   0.634   3.172 -0.4248  0.1208  1.7673
   46DOPE   O31 5835   5.841   0.544   3.354  0.6511  0.3083 -0.5715
   46DOPE   C31 5836   5.779   0.585   3.462  0.2965 -0.2453  0.8083
   46DOPE   O32 5837   5.670   0.645   3.463 -0.0147  0.5234  0.4798
   46DOPE   C32 5838   5.860   0.551   3.591 -0.4354 -0.4653  0.5449
   46DOPE   H2X 5839   5.893   0.445   3.592 -1.0730 -0.6686  0.4408
   46DOPE   H2Y 5840   5.953   0.611   3.601  0.8119 -2.0722 -0.8760
   46DOPE   C23 5841   5.491   0.217   3.366 -0.5584 -0.2220  0.0729
   46DOPE   H3R 5842   5.459   0.323   3.354  0.7922  0.2501  0.4221
   46DOPE   H3S 5843   5.559   0.220   3.454 -0.3259  1.3309 -0.1353
   46DOPE   C24 5844   5.366   0.138   3.417 -0.6991 -0.0055  0.1083
   46DOPE   H4R 5845   5.406   0.052   3.474 -0.9423 -0.1469  0.0680
   46DOPE   H4S 5846   5.309   0.092   3.333 -2.1105  1.3147  0.3058
   46DOPE   C25 5847   5.271   0.223   3.500  0.3750  0.1969 -1.0893
   46DOPE   H5R 5848   5.189   0.156   3.532 -0.7385  2.1547  0.4246
   46DOPE   H5S 5849   5.223   0.305   3.443 -0.2564  0.0061 -0.8412
   46DOPE   C26 5850   5.335   0.278   3.627 -0.7937 -0.2430  0.5868
   46DOPE   H6R 5851   5.405   0.355   3.589 -1.4490 -0.6439 -1.5664
   46DOPE   H6S 5852   5.398   0.197   3.669  2.2568  1.0735 -1.1415
   46DOPE   C27 5853   5.227   0.336   3.725 -1.0419 -0.4358 -0.6388
   46DOPE   H7R 5854   5.167   0.248   3.757 -0.8246 -0.5570 -0.5670
   46DOPE   H7S 5855   5.161   0.409   3.673  0.1712 -0.2855 -2.0149
   46DOPE   C28 5856   5.295   0.386   3.855 -0.6585 -0.4744 -0.1887
   46DOPE   H8R 5857   5.371   0.313   3.891 -0.3017 -0.2001 -0.3822
   46DOPE   H8S 5858   5.226   0.398   3.941  1.1035  1.2305  1.0984
   46DOPE   C29 5859   5.357   0.517   3.820 -0.6978 -0.7826  1.0752
   46DOPE   H9R 5860   5.447   0.504   3.757 -0.7853 -0.2522  0.8359
   46DOPE  C210 5861   5.331   0.641   3.867 -0.2443 -0.2938 -0.0895
   46DOPE  H10R 5862   5.387   0.728   3.830  0.3468 -0.2412  0.8912
   46DOPE  C211 5863   5.218   0.682   3.953  0.9569 -0.1071 -0.3567
   46DOPE  H11R 5864   5.147   0.596   3.953  2.6984 -1.6305 -1.7958
   46DOPE  H11S 5865   5.164   0.764   3.902 -0.7625 -1.2189 -0.4241
   46DOPE  C212 5866   5.242   0.712   4.103 -0.6609 -0.3047  0.2358
   46DOPE  H12R 5867   5.164   0.775   4.150 -0.6907  1.4691 -2.0181
   46DOPE  H12S 5868   5.344   0.755   4.105 -0.4575 -0.5282 -2.4325
   46DOPE  C213 5869   5.258   0.578   4.185  0.0241  0.4865  0.5524
   46DOPE  H13R 5870   5.337   0.511   4.144 -1.3956 -0.6798 -0.3468
   46DOPE  H13S 5871   5.167   0.514   4.187 -0.0163  0.5482  0.7312
   46DOPE  C214 5872   5.312   0.600   4.334  0.1165 -0.1674  0.7529
   46DOPE  H14R 5873   5.403   0.661   4.317  0.9278 -1.5344 -0.0588
   46DOPE  H14S 5874   5.334   0.497   4.368 -1.0103 -0.2897  1.1643
   46DOPE  C215 5875   5.204   0.663   4.422 -0.6299 -0.2545 -1.2971
   46DOPE  H15R 5876   5.112   0.601   4.424 -0.0309 -1.1770  0.8063
   46DOPE  H15S 5877   5.187   0.766   4.384 -0.5976 -0.2427 -1.2805
   46DOPE  C216 5878   5.250   0.663   4.572  0.5993  0.6913 -0.0166
   46DOPE  H16R 5879   5.329   0.741   4.574  0.3263  1.2007 -3.2093
   46DOPE  H16S 5880   5.299   0.565   4.590  0.6018  0.8520  0.9298
   46DOPE  C217 5881   5.143   0.698   4.673  0.4836  0.0679  0.4003
   46DOPE  H17R 5882   5.095   0.790   4.632 -0.2240  0.7676  2.6267
   46DOPE  H17S 5883   5.193   0.727   4.767 -2.0505  3.2193  0.9539
   46DOPE  C218 5884   5.031   0.596   4.700 -1.1693  0.3424  0.7207
   46DOPE  H18R 5885   4.928   0.637   4.695 -0.7092  1.3922 -1.1872
   46DOPE  H18S 5886   5.050   0.565   4.805  2.0593  3.5631  1.3209
   46DOPE  H18T 5887   5.041   0.507   4.635 -1.4672 -0.7191  2.0973
   46DOPE   C33 5888   5.777   0.578   3.725  0.4008 -0.8735 -0.2437
   46DOPE   H3X 5889   5.697   0.501   3.724  1.0135 -1.6393  1.9701
   46DOPE   H3Y 5890   5.743   0.683   3.734 -0.0622 -0.8162 -2.1850
   46DOPE   C34 5891   5.864   0.569   3.847 -0.0572 -0.1688 -0.6911
   46DOPE   H4X 5892   5.941   0.650   3.851 -0.3586  0.1037 -0.3524
   46DOPE   H4Y 5893   5.795   0.575   3.934  0.1559 -1.2336 -0.4400
   46DOPE   C35 5894   5.948   0.439   3.860  0.6622 -1.0632  0.3924
   46DOPE   H5X 5895   6.013   0.432   3.770 -0.8925  1.2641 -1.0460
   46DOPE   H5Y 5896   5.880   0.353   3.847 -0.6243  0.2686 -2.9418
   46DOPE   C36 5897   6.034   0.435   3.991 -0.0090 -0.3875  0.2542
   46DOPE   H6X 5898   6.070   0.331   4.008 -0.8384 -0.7730 -0.2519
   46DOPE   H6Y 5899   5.971   0.447   4.082 -0.4650 -1.2816  0.0727
   46DOPE   C37 5900   6.163   0.518   3.989  0.7123 -0.3182  0.1365
   46DOPE   H7X 5901   6.216   0.484   3.897 -2.8342  0.0978 -2.2974
   46DOPE   H7Y 5902   6.137   0.624   3.965 -1.0650 -0.8230 -0.3496
   46DOPE   C38 5903   6.235   0.504   4.125  0.2154 -0.3156 -0.8029
   46DOPE   H8X 5904   6.335   0.552   4.119  0.1399  0.1897  1.2250
   46DOPE   H8Y 5905   6.248   0.397   4.152  0.4899 -0.0952 -0.0546
   46DOPE   C39 5906   6.159   0.585   4.225  0.5941  1.5357  0.3074
   46DOPE   H9X 5907   6.104   0.669   4.180  0.0491 -0.2141 -2.5639
   46DOPE  C310 5908   6.147   0.557   4.354 -0.6652  0.2397  1.2884
   46DOPE  H10X 5909   6.073   0.619   4.407 -0.8839  1.0576  0.0604
   46DOPE  C311 5910   6.203   0.436   4.432 -0.2145  0.5798 -0.5886
   46DOPE  H11X 5911   6.151   0.344   4.397  2.7974 -1.5942  0.2408
   46DOPE  H11Y 5912   6.312   0.419   4.419  0.2423 -0.1140  3.1418
   46DOPE  C312 5913   6.187   0.444   4.587  0.5412  0.1627  0.3159
   46DOPE  H12X 5914   6.247   0.526   4.631  1.4750  0.1392 -0.8501
   46DOPE  H12Y 5915   6.233   0.350   4.624  0.8841  0.0237 -0.4406
   46DOPE  C313 5916   6.040   0.439   4.626 -0.3828  0.1173  0.5860
   46DOPE  H13X 5917   5.991   0.533   4.593 -0.2508 -0.6385 -1.9773
   46DOPE  H13Y 5918   5.993   0.357   4.567  2.3099 -0.2982 -1.1822
   46DOPE  C314 5919   6.028   0.414   4.781 -0.3386  0.3551  0.6569
   46DOPE  H14X 5920   5.923   0.445   4.800 -0.2587  1.7399 -0.9303
   46DOPE  H14Y 5921   6.091   0.494   4.826 -1.7175  2.3071 -0.7475
   46DOPE  C315 5922   6.057   0.272   4.825 -0.3703  0.1227 -0.4631
   46DOPE  H15X 5923   6.166   0.252   4.814 -0.2581 -1.0181  2.0626
   46DOPE  H15Y 5924   6.006   0.200   4.758 -0.3030  1.2334 -1.7670
   46DOPE  C316 5925   6.020   0.250   4.976 -0.4955 -0.7668 -0.3820
   46DOPE  H16X 5926   5.913   0.257   5.005 -0.7562  2.0641 -1.7331
   46DOPE  H16Y 5927   6.069   0.327   5.040  3.7385 -1.2377 -2.7193
   46DOPE  C317 5928   6.085   0.113   5.023  0.0396 -0.4481  0.2659
   46DOPE  H17X 5929   6.034   0.033   4.965 -0.3910  0.7882 -1.1208
   46DOPE  H17Y 5930   6.191   0.126   4.993  0.0081 -1.2269 -0.2012
   46DOPE  C318 5931   6.071   0.092   5.172  0.1866  0.0613 -0.3020
   46DOPE  H18X 5932   6.131   0.003   5.202 -0.8298 -0.6953 -0.4371
   46DOPE  H18Y 5933   6.110   0.183   5.222  2.9916 -0.1690 -1.8762
   46DOPE  H18Z 5934   5.966   0.070   5.203  0.9997 -1.0148  1.8884
   47DOPE     N 5935   3.052   6.507   2.873  0.5280 -0.6326 -1.1730
   47DOPE   HN1 5936   3.098   6.600   2.876 -1.3000  0.3462 -1.5767
   47DOPE   HN2 5937   3.109   6.444   2.933 -1.3122 -0.7466  0.5596
   47DOPE   HN3 5938   3.046   6.461   2.780  1.0853  0.5062 -1.7856
   47DOPE   C12 5939   2.918   6.516   2.934  0.7412  0.0523  0.1201
   47DOPE  H12A 5940   2.853   6.594   2.890 -0.1985  0.2774  1.8043
   47DOPE  H12B 5941   2.925   6.531   3.044  1.5294 -0.0235  0.0846
   47DOPE   C11 5942   2.865   6.370   2.941  0.0699  0.8981  0.8959
   47DOPE  H11A 5943   2.864   6.330   2.838 -0.4613  1.8783  0.5039
   47DOPE  H11B 5944   2.758   6.375   2.972  0.5310 -0.0036  2.7975
   47DOPE     P 5945   2.897   6.142   3.052  0.2351 -0.2262 -0.4267
   47DOPE   O13 5946   2.993   6.075   3.140  0.4869 -0.3320  0.2974
   47DOPE   O14 5947   2.865   6.082   2.917 -0.5424 -0.6840 -0.8633
   47DOPE   O11 5948   2.762   6.157   3.134 -0.5090 -0.6841 -0.0330
   47DOPE   O12 5949   2.940   6.293   3.036  0.2055 -0.7778 -0.5109
   47DOPE    C1 5950   2.763   6.219   3.269  0.5852 -0.7779  0.0216
   47DOPE    HA 5951   2.864   6.235   3.313 -0.1844  2.3507  0.9035
   47DOPE    HB 5952   2.709   6.159   3.345 -0.9706  1.1299  0.4929
   47DOPE    C2 5953   2.693   6.357   3.266  0.2146  0.1872  0.7861
   47DOPE    HS 5954   2.762   6.429   3.217 -1.4177  0.2091 -1.7157
   47DOPE   O21 5955   2.667   6.391   3.404 -0.3631  0.3451  0.7130
   47DOPE   C21 5956   2.627   6.514   3.418  0.2191 -0.3686  0.5387
   47DOPE   O22 5957   2.629   6.603   3.331 -0.5894  0.0168  0.3639
   47DOPE   C22 5958   2.596   6.542   3.568  0.1028  0.0774 -0.0184
   47DOPE   H2R 5959   2.580   6.652   3.569  2.3444  0.5056 -2.3270
   47DOPE   H2S 5960   2.685   6.511   3.627  0.5137 -0.9173 -1.1310
   47DOPE    C3 5961   2.566   6.355   3.182  0.3249 -0.1901 -0.1539
   47DOPE    HX 5962   2.587   6.347   3.073  1.5741  1.8149 -0.1206
   47DOPE    HY 5963   2.512   6.451   3.198  0.3055 -0.3626  0.8783
   47DOPE   O31 5964   2.475   6.246   3.216 -0.5967  0.1416 -0.9761
   47DOPE   C31 5965   2.370   6.251   3.290  0.2942 -0.3696  0.0278
   47DOPE   O32 5966   2.327   6.358   3.343 -0.2325 -0.0062  0.6576
   47DOPE   C32 5967   2.296   6.115   3.293 -0.4581  0.0421 -0.1609
   47DOPE   H2X 5968   2.240   6.107   3.197  0.5137 -1.5480 -0.6210
   47DOPE   H2Y 5969   2.382   6.046   3.285 -0.4811 -0.1359  0.9826
   47DOPE   C23 5970   2.479   6.455   3.626  0.4816  0.8748 -0.3113
   47DOPE   H3R 5971   2.491   6.345   3.633  1.3235  1.0591  2.0656
   47DOPE   H3S 5972   2.406   6.465   3.543  1.8226  0.2541 -1.6047
   47DOPE   C24 5973   2.419   6.515   3.756 -0.6867 -0.1445  0.5733
   47DOPE   H4R 5974   2.325   6.457   3.772  1.5406 -3.4349  2.9786
   47DOPE   H4S 5975   2.397   6.624   3.752 -2.6861 -0.4609  1.4150
   47DOPE   C25 5976   2.500   6.475   3.876 -0.6604  0.5520 -0.2313
   47DOPE   H5R 5977   2.591   6.539   3.879  0.6994 -1.3272  2.1095
   47DOPE   H5S 5978   2.537   6.370   3.882  2.7608  1.6330 -0.1968
   47DOPE   C26 5979   2.432   6.500   4.013 -0.0132  1.0113 -0.0713
   47DOPE   H6R 5980   2.345   6.431   4.010 -0.6770  1.8612 -1.8929
   47DOPE   H6S 5981   2.393   6.604   4.022 -0.9326  0.8326 -1.6097
   47DOPE   C27 5982   2.529   6.470   4.125 -0.0025 -0.1320  0.2094
   47DOPE   H7R 5983   2.494   6.526   4.215  1.1241 -0.5291  0.9064
   47DOPE   H7S 5984   2.633   6.505   4.113  0.2411 -1.3630 -1.8009
   47DOPE   C28 5985   2.543   6.322   4.159 -0.2999 -0.6295  0.2310
   47DOPE   H8R 5986   2.632   6.313   4.225  2.0813  1.5710 -2.4523
   47DOPE   H8S 5987   2.572   6.268   4.067 -0.0525  3.5870 -2.3894
   47DOPE   C29 5988   2.417   6.276   4.230 -0.4628  0.0483 -0.6860
   47DOPE   H9R 5989   2.387   6.329   4.322  1.8627 -2.5271  1.7979
   47DOPE  C210 5990   2.350   6.170   4.189  0.6173  1.1971  0.3281
   47DOPE  H10R 5991   2.263   6.133   4.245 -0.2944  1.5979 -0.7769
   47DOPE  C211 5992   2.386   6.093   4.062  0.1203 -0.3415 -0.0065
   47DOPE  H11R 5993   2.430   6.161   3.987 -0.6547 -0.2343 -0.3662
   47DOPE  H11S 5994   2.292   6.058   4.016  0.7390 -0.9948 -0.7944
   47DOPE  C212 5995   2.496   5.999   4.089 -0.5048  0.7907 -0.1569
   47DOPE  H12R 5996   2.572   6.041   4.157 -1.1487  1.0697  0.4094
   47DOPE  H12S 5997   2.541   5.966   3.993 -0.9542 -0.1400 -0.0623
   47DOPE  C213 5998   2.440   5.876   4.157 -0.1989 -0.8289  0.5520
   47DOPE  H13R 5999   2.338   5.855   4.117 -0.8354  1.4735  0.8293
   47DOPE  H13S 6000   2.422   5.895   4.265 -4.8888  0.1564 -0.1740
   47DOPE  C214 6001   2.522   5.748   4.117 -0.5126 -0.0881 -0.3810
   47DOPE  H14R 6002   2.624   5.766   4.155 -0.7677  1.3341 -0.3042
   47DOPE  H14S 6003   2.508   5.730   4.008  0.2180 -0.7311 -0.3773
   47DOPE  C215 6004   2.472   5.624   4.190 -0.0413  0.7220 -0.1365
   47DOPE  H15R 6005   2.364   5.606   4.167 -0.3774  1.2013  1.0198
   47DOPE  H15S 6006   2.462   5.643   4.299 -0.0957 -0.5678  0.0871
   47DOPE  C216 6007   2.554   5.496   4.164 -0.4207 -0.8323  0.2310
   47DOPE  H16R 6008   2.638   5.492   4.237 -0.5185  0.0188  0.3990
   47DOPE  H16S 6009   2.605   5.505   4.066 -2.7103  0.6834 -0.8830
   47DOPE  C217 6010   2.478   5.361   4.184  0.0588  0.0947 -0.2005
   47DOPE  H17R 6011   2.568   5.296   4.196  1.9519  2.9450  2.6375
   47DOPE  H17S 6012   2.415   5.343   4.094 -0.3142  0.2557  0.0284
   47DOPE  C218 6013   2.394   5.355   4.311 -0.0127  0.4592 -0.3068
   47DOPE  H18R 6014   2.449   5.353   4.408  0.4803  0.6669 -0.5828
   47DOPE  H18S 6015   2.328   5.265   4.310 -2.8204  2.3794  0.2186
   47DOPE  H18T 6016   2.335   5.449   4.313  0.3408  0.6731  0.4598
   47DOPE   C33 6017   2.201   6.089   3.416 -0.0389  0.2371  0.7546
   47DOPE   H3X 6018   2.157   5.987   3.403  0.7735 -0.6184  3.8241
   47DOPE   H3Y 6019   2.114   6.156   3.403  1.9518  2.6976 -0.6333
   47DOPE   C34 6020   2.272   6.090   3.546 -0.1712  0.1554 -0.4873
   47DOPE   H4X 6021   2.337   6.000   3.546 -0.2360  0.0655 -2.5018
   47DOPE   H4Y 6022   2.344   6.175   3.549  0.8988 -0.7009 -1.2491
   47DOPE   C35 6023   2.179   6.073   3.667 -0.0753  0.2209 -0.7413
   47DOPE   H5X 6024   2.225   6.023   3.755  0.0802  1.8415  0.1417
   47DOPE   H5Y 6025   2.095   6.007   3.635  0.2428 -0.4822 -0.1612
   47DOPE   C36 6026   2.134   6.205   3.718 -0.1505 -0.1882 -0.1711
   47DOPE   H6X 6027   2.162   6.272   3.633  0.1115 -0.1937 -0.0908
   47DOPE   H6Y 6028   2.187   6.234   3.811  1.7340  0.2153 -1.3032
   47DOPE   C37 6029   1.992   6.218   3.763  0.1453  0.1965  0.0627
   47DOPE   H7X 6030   1.933   6.180   3.676  0.5738 -0.9995  0.2693
   47DOPE   H7Y 6031   1.972   6.143   3.842  0.1867 -0.2667 -0.3571
   47DOPE   C38 6032   1.940   6.358   3.810 -0.3054 -0.2020 -1.2550
   47DOPE   H8X 6033   1.838   6.348   3.853  0.9368 -1.5214  1.6109
   47DOPE   H8Y 6034   1.934   6.416   3.715  0.9825 -1.2951 -2.0444
   47DOPE   C39 6035   2.019   6.420   3.919  0.1089 -0.3149  0.4031
   47DOPE   H9X 6036   2.079   6.504   3.883 -0.4233 -0.4080 -0.7534
   47DOPE  C310 6037   2.010   6.385   4.052  0.3472  0.9133  0.2598
   47DOPE  H10X 6038   2.070   6.451   4.115 -0.8239  1.9802  0.2918
   47DOPE  C311 6039   1.916   6.281   4.112 -0.1202 -0.6392  0.6230
   47DOPE  H11X 6040   1.827   6.269   4.046  0.3874  1.3938 -0.5340
   47DOPE  H11Y 6041   1.972   6.187   4.096  2.4932  1.2360 -2.4089
   47DOPE  C312 6042   1.876   6.281   4.260 -0.4134  0.0262  0.1845
   47DOPE  H12X 6043   1.788   6.216   4.280 -1.0248  0.7844  0.0059
   47DOPE  H12Y 6044   1.856   6.388   4.278 -2.0065 -0.3712  0.9311
   47DOPE  C313 6045   1.984   6.226   4.356 -0.2346  0.1973 -0.1384
   47DOPE  H13X 6046   1.989   6.115   4.358  1.6871  0.2573  0.0692
   47DOPE  H13Y 6047   2.083   6.271   4.334 -1.7954  3.7829 -0.5373
   47DOPE  C314 6048   1.947   6.280   4.497  0.1145  0.6051 -0.2109
   47DOPE  H14X 6049   1.844   6.244   4.519  0.7363  0.8203  3.9503
   47DOPE  H14Y 6050   1.952   6.390   4.505  0.4102  0.5248  0.8801
   47DOPE  C315 6051   2.043   6.227   4.614  0.4559 -0.6943  0.2956
   47DOPE  H15X 6052   2.041   6.116   4.608  0.9674 -0.6545 -0.8787
   47DOPE  H15Y 6053   2.004   6.250   4.715  2.2024  0.3498  0.7633
   47DOPE  C316 6054   2.188   6.267   4.612 -0.2758 -0.2248 -0.1145
   47DOPE  H16X 6055   2.232   6.232   4.517 -4.3816 -0.1967 -2.2448
   47DOPE  H16Y 6056   2.239   6.220   4.699 -0.9154  1.8903  1.5079
   47DOPE  C317 6057   2.210   6.417   4.622 -0.1621  0.2289  0.5851
   47DOPE  H17X 6058   2.156   6.474   4.543 -0.0859 -0.1499  0.2527
   47DOPE  H17Y 6059   2.164   6.452   4.716 -1.4710 -2.2416  0.9449
   47DOPE  C318 6060   2.351   6.458   4.611 -0.0704 -0.0537 -0.4705
   47DOPE  H18X 6061   2.395   6.444   4.510 -0.1302 -0.8557 -0.3970
   47DOPE  H18Y 6062   2.379   6.556   4.655  1.7378 -0.8042  0.1589
   47DOPE  H18Z 6063   2.409   6.396   4.683 -0.4720 -0.2954 -0.3453
   48DOPE     N 6064   5.283   2.417   2.245 -0.5909  0.1391  0.2960
   48DOPE   HN1 6065   5.309   2.399   2.145 -0.9188  0.9202  0.0626
   48DOPE   HN2 6066   5.282   2.521   2.246 -1.8874  0.1650 -0.9901
   48DOPE   HN3 6067   5.366   2.394   2.303 -0.8539  1.9471  1.4892
   48DOPE   C12 6068   5.154   2.348   2.293 -0.3684 -0.0457  0.6423
   48DOPE  H12A 6069   5.145   2.266   2.219  2.1105 -0.6509  0.9109
   48DOPE  H12B 6070   5.074   2.425   2.290  1.0710  1.5256  0.8863
   48DOPE   C11 6071   5.176   2.282   2.432 -0.7240  0.1923  0.2530
   48DOPE  H11A 6072   5.080   2.236   2.465 -0.2223 -2.3273 -1.5055
   48DOPE  H11B 6073   5.192   2.367   2.502  1.2882  0.3062 -0.2926
   48DOPE     P 6074   5.425   2.214   2.474  0.0038 -0.2299  0.4219
   48DOPE   O13 6075   5.472   2.338   2.408 -0.0075  0.0519 -0.0297
   48DOPE   O14 6076   5.510   2.090   2.456 -0.3713  0.0305 -0.3864
   48DOPE   O11 6077   5.419   2.244   2.630  0.0607  0.1479 -0.1985
   48DOPE   O12 6078   5.274   2.179   2.440  0.2226 -0.0090 -0.9166
   48DOPE    C1 6079   5.441   2.157   2.740 -0.3843 -0.1705  0.5040
   48DOPE    HA 6080   5.499   2.196   2.826  0.9353 -2.6756  0.8398
   48DOPE    HB 6081   5.496   2.067   2.704  0.6116  0.9439 -0.9184
   48DOPE    C2 6082   5.311   2.100   2.792  0.8410 -0.0614 -0.5028
   48DOPE    HS 6083   5.243   2.069   2.709  1.0343 -3.1126  0.3722
   48DOPE   O21 6084   5.255   2.199   2.881  0.0114 -0.3675 -0.0528
   48DOPE   C21 6085   5.122   2.208   2.878  0.3015 -0.7197 -0.6700
   48DOPE   O22 6086   5.047   2.150   2.803 -0.1210  0.2432  0.1304
   48DOPE   C22 6087   5.066   2.307   2.987 -0.1811 -0.4055  0.0176
   48DOPE   H2R 6088   5.049   2.400   2.928  0.5515 -1.9246 -2.8213
   48DOPE   H2S 6089   5.153   2.316   3.056  0.9958 -3.3749 -0.8715
   48DOPE    C3 6090   5.334   1.967   2.873  0.1451 -0.3209 -0.2944
   48DOPE    HX 6091   5.416   1.987   2.945  0.6321  2.8013 -1.5640
   48DOPE    HY 6092   5.381   1.896   2.801 -1.7986 -0.9988 -0.9496
   48DOPE   O31 6093   5.218   1.911   2.935 -1.1239  0.4930 -0.0681
   48DOPE   C31 6094   5.241   1.797   3.006  0.3208 -0.7126 -0.5501
   48DOPE   O32 6095   5.348   1.743   3.012 -0.2942 -0.4703  0.1034
   48DOPE   C32 6096   5.109   1.745   3.058 -0.3088  0.2089 -0.1076
   48DOPE   H2X 6097   5.052   1.819   3.119  0.5517 -1.8143  3.3833
   48DOPE   H2Y 6098   5.062   1.712   2.963 -0.6027 -3.3971  1.1529
   48DOPE   C23 6099   4.936   2.252   3.045  0.0771  0.1017  0.0429
   48DOPE   H3R 6100   4.961   2.145   3.066  2.0649  0.4458 -0.3099
   48DOPE   H3S 6101   4.862   2.263   2.963  0.1851  3.4620  0.2725
   48DOPE   C24 6102   4.885   2.311   3.178  0.5183  0.2118  0.1826
   48DOPE   H4R 6103   4.800   2.245   3.206  2.3402 -2.1851  0.3823
   48DOPE   H4S 6104   4.856   2.416   3.157  1.0386 -0.0180 -1.8433
   48DOPE   C25 6105   4.978   2.310   3.297 -0.0255  0.0213  0.2694
   48DOPE   H5R 6106   4.951   2.371   3.386  1.9170  1.6450 -0.1493
   48DOPE   H5S 6107   5.074   2.350   3.257 -0.3261  2.9492  2.1624
   48DOPE   C26 6108   5.012   2.164   3.343  0.0245 -0.0948  0.2396
   48DOPE   H6R 6109   5.030   2.110   3.248 -0.5810  1.6767 -0.9215
   48DOPE   H6S 6110   4.926   2.117   3.394  0.1995  1.1086  1.7320
   48DOPE   C27 6111   5.138   2.155   3.433 -0.1786  0.4331 -0.7107
   48DOPE   H7R 6112   5.127   2.191   3.537  0.1709  1.3879 -0.9948
   48DOPE   H7S 6113   5.207   2.228   3.387  0.4384  1.6354  1.9188
   48DOPE   C28 6114   5.199   2.012   3.424 -0.3111 -0.5066  0.0066
   48DOPE   H8R 6115   5.221   2.000   3.316 -0.0912  0.6882 -0.0971
   48DOPE   H8S 6116   5.126   1.940   3.466 -1.5061  0.0215 -1.0807
   48DOPE   C29 6117   5.334   2.008   3.494 -0.5184  0.5734  0.1359
   48DOPE   H9R 6118   5.419   2.003   3.425  1.1812 -1.0195  2.1660
   48DOPE  C210 6119   5.356   1.993   3.622  0.1202  0.1794 -0.1577
   48DOPE  H10R 6120   5.459   1.972   3.656 -0.4765 -1.1651  0.8723
   48DOPE  C211 6121   5.253   1.996   3.733  0.8278 -0.2281  0.1016
   48DOPE  H11R 6122   5.214   1.892   3.743  0.5941 -0.6208 -3.4805
   48DOPE  H11S 6123   5.168   2.061   3.702  3.5385  2.5085 -2.1492
   48DOPE  C212 6124   5.298   2.063   3.867  0.2758 -0.1387 -0.3479
   48DOPE  H12R 6125   5.330   2.167   3.845  0.6666 -0.2655 -0.4070
   48DOPE  H12S 6126   5.385   2.004   3.905  1.4835  0.8513 -1.4450
   48DOPE  C213 6127   5.175   2.075   3.960  0.1371  0.5702  0.5533
   48DOPE  H13R 6128   5.128   1.975   3.971 -0.2581  0.5813 -0.8046
   48DOPE  H13S 6129   5.104   2.144   3.909  1.6458  1.1616 -0.8482
   48DOPE  C214 6130   5.186   2.118   4.111 -0.4517  0.0489 -0.5635
   48DOPE  H14R 6131   5.283   2.071   4.136  0.6065  0.4466 -3.5116
   48DOPE  H14S 6132   5.098   2.079   4.166 -2.1905  0.5038 -2.8820
   48DOPE  C215 6133   5.206   2.269   4.134 -0.6067 -0.5051  0.0712
   48DOPE  H15R 6134   5.276   2.304   4.054 -0.9305 -2.6442 -1.2334
   48DOPE  H15S 6135   5.250   2.295   4.232 -0.4266  2.4023 -0.6769
   48DOPE  C216 6136   5.073   2.338   4.119 -0.2622 -0.3229  1.2385
   48DOPE  H16R 6137   5.006   2.280   4.187  0.3360 -2.0403  0.4147
   48DOPE  H16S 6138   5.039   2.347   4.014  3.6296  1.1066 -0.0569
   48DOPE  C217 6139   5.073   2.484   4.170  0.8888 -0.2779  0.0857
   48DOPE  H17R 6140   5.132   2.550   4.103 -1.5815  1.8838 -0.1288
   48DOPE  H17S 6141   5.117   2.487   4.271 -0.6545  0.1510  0.7826
   48DOPE  C218 6142   4.931   2.549   4.171  0.0958  0.5670 -0.5024
   48DOPE  H18R 6143   4.869   2.486   4.238 -0.2453  1.4485  0.0345
   48DOPE  H18S 6144   4.890   2.556   4.068 -0.4742 -0.8543 -0.3903
   48DOPE  H18T 6145   4.933   2.648   4.222 -0.8341  0.3758 -0.0653
   48DOPE   C33 6146   5.130   1.610   3.140 -0.1429 -0.9421  0.5665
   48DOPE   H3X 6147   5.209   1.552   3.089  0.8581 -0.7795  1.8803
   48DOPE   H3Y 6148   5.043   1.541   3.143 -1.7087  0.9423  1.1261
   48DOPE   C34 6149   5.190   1.642   3.277  0.2110 -0.4397  0.5804
   48DOPE   H4X 6150   5.260   1.559   3.303  0.3895 -0.8910 -1.2423
   48DOPE   H4Y 6151   5.254   1.732   3.278 -0.7409  0.2571  1.7962
   48DOPE   C35 6152   5.085   1.672   3.386 -0.1968 -0.0643  0.3488
   48DOPE   H5X 6153   4.993   1.614   3.365 -1.1466  0.5581  2.4194
   48DOPE   H5Y 6154   5.065   1.781   3.372  0.0363 -0.2892 -2.0814
   48DOPE   C36 6155   5.132   1.631   3.523 -0.0532  0.0410 -0.4452
   48DOPE   H6X 6156   5.233   1.675   3.539  0.8053 -1.9737 -0.0387
   48DOPE   H6Y 6157   5.153   1.522   3.519 -0.5067 -0.1770  1.7335
   48DOPE   C37 6158   5.037   1.664   3.634 -0.0488 -0.3631 -0.8658
   48DOPE   H7X 6159   5.040   1.775   3.640 -0.2218 -0.3631 -0.7737
   48DOPE   H7Y 6160   4.935   1.648   3.593 -1.0763  0.9357  1.0439
   48DOPE   C38 6161   5.055   1.588   3.770  0.1281  0.2723  0.3544
   48DOPE   H8X 6162   5.160   1.612   3.798  0.4075  1.3437 -1.4609
   48DOPE   H8Y 6163   5.057   1.478   3.757 -0.9096 -0.1914  3.3911
   48DOPE   C39 6164   4.953   1.636   3.868 -0.6253  0.1046  0.3452
   48DOPE   H9X 6165   4.854   1.644   3.820 -0.0824  1.2313 -0.6120
   48DOPE  C310 6166   4.963   1.657   3.999 -0.1388 -0.8202  0.1676
   48DOPE  H10X 6167   4.873   1.690   4.053  0.1205 -0.4680  0.3887
   48DOPE  C311 6168   5.074   1.633   4.096 -0.0745  0.3665  0.4117
   48DOPE  H11X 6169   5.060   1.540   4.157 -1.1058  1.4528  1.8982
   48DOPE  H11Y 6170   5.166   1.619   4.035  0.4482  0.8027  1.0806
   48DOPE  C312 6171   5.108   1.748   4.188  0.2194  0.2769 -0.2791
   48DOPE  H12X 6172   5.031   1.739   4.268 -1.7253  2.0288 -1.8353
   48DOPE  H12Y 6173   5.103   1.844   4.133  1.7404 -0.1388 -1.2127
   48DOPE  C313 6174   5.249   1.742   4.241  0.0583  0.9626 -0.2503
   48DOPE  H13X 6175   5.256   1.638   4.280 -3.5803 -0.0429 -1.8342
   48DOPE  H13Y 6176   5.331   1.761   4.169 -1.5459 -0.1744 -2.5338
   48DOPE  C314 6177   5.267   1.852   4.344 -0.3544 -0.1330 -0.3927
   48DOPE  H14X 6178   5.195   1.934   4.325  1.0324  1.1627 -0.2143
   48DOPE  H14Y 6179   5.366   1.900   4.326 -0.5574  0.0411 -1.1122
   48DOPE  C315 6180   5.272   1.793   4.492  0.0243  0.1422  0.2291
   48DOPE  H15X 6181   5.353   1.718   4.501 -0.2172 -0.0150  1.1263
   48DOPE  H15Y 6182   5.173   1.746   4.513  0.0603  0.1772  0.4745
   48DOPE  C316 6183   5.283   1.906   4.588  0.2314 -0.3455 -0.0435
   48DOPE  H16X 6184   5.254   1.864   4.686 -1.2029  2.9314  1.1127
   48DOPE  H16Y 6185   5.215   1.994   4.582  1.2828  0.7296  2.4840
   48DOPE  C317 6186   5.427   1.951   4.612  0.2170 -0.3585 -0.4454
   48DOPE  H17X 6187   5.478   1.853   4.603 -0.5812 -0.6938 -1.4031
   48DOPE  H17Y 6188   5.439   2.024   4.529 -1.2183 -0.9027 -1.1533
   48DOPE  C318 6189   5.464   2.016   4.738 -0.4420  0.4655 -0.2653
   48DOPE  H18X 6190   5.453   1.953   4.829  1.4759 -1.6060 -1.3668
   48DOPE  H18Y 6191   5.571   2.044   4.733  0.2785 -1.8470  0.9064
   48DOPE  H18Z 6192   5.415   2.114   4.751 -0.7383  0.0941  1.6444
   49DOPE     N 6193   1.742   6.097   2.707 -0.2621  0.3744  0.2863
   49DOPE   HN1 6194   1.680   6.164   2.657  1.4942  1.6332 -0.3044
   49DOPE   HN2 6195   1.814   6.068   2.638  0.4532  0.8820  0.8096
   49DOPE   HN3 6196   1.690   6.009   2.727  0.3961 -0.3182 -0.9215
   49DOPE   C12 6197   1.817   6.169   2.824  0.4002  0.2625  1.2335
   49DOPE  H12A 6198   1.894   6.228   2.770 -0.9655  0.6227 -0.3981
   49DOPE  H12B 6199   1.868   6.088   2.881  3.2400 -0.1385 -1.5762
   49DOPE   C11 6200   1.720   6.261   2.907 -0.8214 -0.0122 -0.1524
   49DOPE  H11A 6201   1.766   6.276   3.007 -0.3898  0.3449 -0.3972
   49DOPE  H11B 6202   1.625   6.206   2.922  0.4927 -2.2660  0.5657
   49DOPE     P 6203   1.575   6.408   2.765 -0.0665  0.0558  0.1743
   49DOPE   O13 6204   1.553   6.288   2.678 -0.0460 -0.1490  0.1868
   49DOPE   O14 6205   1.584   6.538   2.697  0.0506  0.2259  0.7289
   49DOPE   O11 6206   1.468   6.410   2.875  0.1724  0.0957  0.0938
   49DOPE   O12 6207   1.704   6.386   2.843  0.1867  0.5869 -0.0033
   49DOPE    C1 6208   1.443   6.533   2.949  0.5341 -0.6146  0.1636
   49DOPE    HA 6209   1.333   6.549   2.955  0.8013  0.8926  2.4054
   49DOPE    HB 6210   1.486   6.628   2.909 -0.6520  0.2424  0.8381
   49DOPE    C2 6211   1.494   6.524   3.093  0.5232 -0.4741  0.0812
   49DOPE    HS 6212   1.605   6.516   3.094  0.4728 -1.5830  1.9364
   49DOPE   O21 6213   1.439   6.402   3.152 -0.2723 -0.0146 -0.1927
   49DOPE   C21 6214   1.528   6.344   3.233  0.0627  0.6186 -0.5646
   49DOPE   O22 6215   1.641   6.375   3.259  0.2471  0.0687  0.4793
   49DOPE   C22 6216   1.468   6.217   3.295 -0.0240 -0.4731  0.7127
   49DOPE   H2R 6217   1.494   6.130   3.231  1.4086 -0.6107  1.4457
   49DOPE   H2S 6218   1.358   6.227   3.309  0.2228  0.8736  1.9354
   49DOPE    C3 6219   1.450   6.645   3.183  0.4076  0.2261 -0.1259
   49DOPE    HX 6220   1.340   6.652   3.189  0.5398  2.2091  0.6250
   49DOPE    HY 6221   1.477   6.742   3.135 -1.8780 -0.2256 -2.5573
   49DOPE   O31 6222   1.498   6.630   3.327 -0.0695 -0.4019  0.1011
   49DOPE   C31 6223   1.612   6.691   3.352  0.1909 -0.4037  0.2019
   49DOPE   O32 6224   1.671   6.762   3.273  0.4516  0.2512  0.0908
   49DOPE   C32 6225   1.673   6.659   3.491  0.3028 -0.5781  0.3752
   49DOPE   H2X 6226   1.651   6.743   3.561  0.4934 -0.9669  0.9098
   49DOPE   H2Y 6227   1.614   6.568   3.516  1.1568 -1.5832 -1.0986
   49DOPE   C23 6228   1.526   6.184   3.437 -0.2840 -0.8095 -0.3069
   49DOPE   H3R 6229   1.536   6.277   3.498 -1.2997 -1.9468  1.7176
   49DOPE   H3S 6230   1.625   6.138   3.417  0.4378  0.2908  0.6044
   49DOPE   C24 6231   1.441   6.085   3.510  0.7906 -0.3278  0.4329
   49DOPE   H4R 6232   1.346   6.133   3.543  2.9247  2.4732  3.1157
   49DOPE   H4S 6233   1.490   6.060   3.607 -0.3791  1.2496  1.4861
   49DOPE   C25 6234   1.395   5.962   3.436 -1.1147 -0.3263  0.6457
   49DOPE   H5R 6235   1.491   5.933   3.388 -1.5117  1.5343 -1.4653
   49DOPE   H5S 6236   1.324   5.994   3.357 -1.1621  0.1274  0.8693
   49DOPE   C26 6237   1.329   5.845   3.515 -0.1112 -0.7854  0.5155
   49DOPE   H6R 6238   1.405   5.793   3.576 -0.3162 -1.7865 -0.0574
   49DOPE   H6S 6239   1.284   5.771   3.446  0.4183 -1.1091  0.5137
   49DOPE   C27 6240   1.224   5.898   3.618 -0.8470  0.1559 -0.2899
   49DOPE   H7R 6241   1.146   5.953   3.561 -0.6696  1.8163  0.9935
   49DOPE   H7S 6242   1.270   5.972   3.687  2.2602 -0.2174 -1.8022
   49DOPE   C28 6243   1.180   5.771   3.699  0.2227 -0.9863 -0.4608
   49DOPE   H8R 6244   1.272   5.747   3.757 -0.3660  0.7286  1.2804
   49DOPE   H8S 6245   1.167   5.676   3.644  0.5353 -2.4772  1.9076
   49DOPE   C29 6246   1.062   5.804   3.786  0.4853  1.1294 -0.4649
   49DOPE   H9R 6247   0.967   5.788   3.733 -1.0602 -2.1719  2.8571
   49DOPE  C210 6248   1.058   5.855   3.911  0.0880  0.4893  0.0697
   49DOPE  H10R 6249   0.961   5.857   3.963  0.0102  1.1438 -0.0931
   49DOPE  C211 6250   1.181   5.878   4.008  0.0107 -0.0541  0.2952
   49DOPE  H11R 6251   1.151   5.940   4.095 -1.6144  1.4028 -1.2187
   49DOPE  H11S 6252   1.260   5.936   3.955 -0.5533 -0.1877 -0.7169
   49DOPE  C212 6253   1.256   5.750   4.053  0.1649  0.2286 -0.4616
   49DOPE  H12R 6254   1.322   5.716   3.970 -0.6845 -0.0667 -1.0415
   49DOPE  H12S 6255   1.174   5.675   4.067  0.2673 -0.1005 -1.5307
   49DOPE  C213 6256   1.331   5.772   4.184 -0.2321  0.7846 -0.7087
   49DOPE  H13R 6257   1.267   5.801   4.270  1.1228 -1.8527  1.3308
   49DOPE  H13S 6258   1.418   5.842   4.176 -0.0409  0.7258  0.5901
   49DOPE  C214 6259   1.378   5.633   4.246  0.0767  0.2466  0.3273
   49DOPE  H14R 6260   1.456   5.592   4.178 -0.6403  1.5700 -1.3629
   49DOPE  H14S 6261   1.296   5.558   4.246  3.3842 -3.7808 -1.9360
   49DOPE  C215 6262   1.437   5.661   4.381  0.4497  0.6292  0.1373
   49DOPE  H15R 6263   1.369   5.702   4.459 -1.1416 -0.4770 -0.6197
   49DOPE  H15S 6264   1.518   5.736   4.376  0.9188  0.3257  2.2165
   49DOPE  C216 6265   1.495   5.524   4.430  0.3620 -0.1742  0.0901
   49DOPE  H16R 6266   1.545   5.466   4.350 -1.2424 -1.0214 -0.3399
   49DOPE  H16S 6267   1.418   5.457   4.474 -0.0223  0.3669  0.2588
   49DOPE  C217 6268   1.592   5.555   4.544 -0.1609  0.6527  0.2668
   49DOPE  H17R 6269   1.548   5.595   4.638  0.0117 -1.3444  1.2518
   49DOPE  H17S 6270   1.666   5.623   4.497  0.5139  1.0897  1.9056
   49DOPE  C218 6271   1.670   5.428   4.586  0.1129 -0.0383  0.3172
   49DOPE  H18R 6272   1.696   5.439   4.693  0.8400 -2.3666  0.4384
   49DOPE  H18S 6273   1.761   5.408   4.525  0.3485 -2.6859  1.4350
   49DOPE  H18T 6274   1.612   5.333   4.591  1.7275 -1.0201  1.2872
   49DOPE   C33 6275   1.819   6.627   3.487 -0.1788 -0.2724  0.2677
   49DOPE   H3X 6276   1.840   6.553   3.406 -1.0021  0.7459 -0.9028
   49DOPE   H3Y 6277   1.839   6.580   3.586 -1.5350  1.5761  1.4703
   49DOPE   C34 6278   1.909   6.753   3.489  0.2817  0.0492  0.9496
   49DOPE   H4X 6279   1.913   6.791   3.385 -1.9164  1.1004  1.1712
   49DOPE   H4Y 6280   1.860   6.826   3.557 -1.3553 -0.8236  0.7821
   49DOPE   C35 6281   2.052   6.723   3.535 -0.0045 -0.1684  0.7387
   49DOPE   H5X 6282   2.086   6.631   3.483 -1.7376  0.5646 -1.9137
   49DOPE   H5Y 6283   2.064   6.720   3.645 -0.7540  0.4551  0.8503
   49DOPE   C36 6284   2.145   6.831   3.475 -0.0061 -0.2461  0.0990
   49DOPE   H6X 6285   2.123   6.935   3.507  0.8774  0.2919 -0.9925
   49DOPE   H6Y 6286   2.138   6.832   3.364 -0.0039 -0.3952  0.0968
   49DOPE   C37 6287   2.292   6.810   3.514  0.1857 -0.3873 -0.6052
   49DOPE   H7X 6288   2.317   6.844   3.617 -2.4968  1.5254 -0.4737
   49DOPE   H7Y 6289   2.338   6.710   3.502  2.9644  0.5414  1.3256
   49DOPE   C38 6290   2.376   6.917   3.435  0.0346 -0.7022 -0.3742
   49DOPE   H8X 6291   2.336   7.013   3.474 -3.5917 -1.8538 -0.9317
   49DOPE   H8Y 6292   2.349   6.927   3.328  3.4593 -2.1229 -1.5377
   49DOPE   C39 6293   2.528   6.902   3.443 -0.5259 -0.5819 -0.1253
   49DOPE   H9X 6294   2.570   6.822   3.380 -1.3217 -1.0302 -0.1034
   49DOPE  C310 6295   2.607   6.979   3.513 -0.3616 -0.3690  0.7380
   49DOPE  H10X 6296   2.714   6.956   3.519 -0.8563 -2.8093  0.9842
   49DOPE  C311 6297   2.558   7.102   3.595  0.0592  0.4485 -0.6711
   49DOPE  H11X 6298   2.597   7.198   3.554 -0.9331  0.6201 -1.2589
   49DOPE  H11Y 6299   2.449   7.111   3.617  0.3373 -0.8058  1.4257
   49DOPE  C312 6300   2.616   7.099   3.735 -0.3224  0.1079 -0.3434
   49DOPE  H12X 6301   2.571   7.179   3.798 -0.6756 -0.1857 -0.2254
   49DOPE  H12Y 6302   2.727   7.108   3.733 -0.2206 -0.6326  1.0231
   49DOPE  C313 6303   2.593   6.976   3.815  0.0102  0.3125 -1.3518
   49DOPE  H13X 6304   2.488   6.947   3.791 -0.0553  1.1063 -2.0851
   49DOPE  H13Y 6305   2.664   6.896   3.785 -0.0651  0.0250 -0.7765
   49DOPE  C314 6306   2.615   6.997   3.967 -0.2114 -0.1858  0.0028
   49DOPE  H14X 6307   2.591   7.104   3.989 -1.9356  0.1984 -3.1627
   49DOPE  H14Y 6308   2.713   6.973   4.014 -0.4443 -0.9466  0.0994
   49DOPE  C315 6309   2.513   6.909   4.042 -0.3705  0.3108  0.3163
   49DOPE  H15X 6310   2.543   6.802   4.035 -0.3996  0.4182 -2.6868
   49DOPE  H15Y 6311   2.415   6.924   3.992  0.9682  2.7089 -1.8269
   49DOPE  C316 6312   2.507   6.943   4.192 -0.0329  0.3738  0.1618
   49DOPE  H16X 6313   2.401   6.926   4.217 -0.6172  1.2975 -1.5227
   49DOPE  H16Y 6314   2.518   7.052   4.212  2.2243  0.0472  1.0738
   49DOPE  C317 6315   2.601   6.860   4.276 -0.4351  0.1279  0.3971
   49DOPE  H17X 6316   2.602   6.758   4.231 -0.0072 -0.1806  1.0923
   49DOPE  H17Y 6317   2.706   6.894   4.268  0.4088 -2.1920  0.6513
   49DOPE  C318 6318   2.576   6.831   4.425 -0.0798 -0.2841  0.0199
   49DOPE  H18X 6319   2.643   6.757   4.475 -0.3618  0.6627  1.8893
   49DOPE  H18Y 6320   2.587   6.921   4.489 -1.3207  0.4912 -0.8179
   49DOPE  H18Z 6321   2.472   6.791   4.436  0.4731 -1.8175 -0.0817
   50DOPE     N 6322   0.098   3.642   2.959  0.2044  0.8158  0.1685
   50DOPE   HN1 6323   0.162   3.718   2.927  2.6001 -1.2779 -0.3192
   50DOPE   HN2 6324   0.067   3.588   2.877  1.8384  0.4631 -0.2623
   50DOPE   HN3 6325   0.013   3.692   2.992 -1.8171 -2.1756 -0.1322
   50DOPE   C12 6326   0.145   3.565   3.075 -0.9556 -0.1952  0.2142
   50DOPE  H12A 6327   0.180   3.637   3.152  3.7270  0.4143 -2.1105
   50DOPE  H12B 6328   0.240   3.517   3.044 -0.3999  1.1955 -0.3130
   50DOPE   C11 6329   0.045   3.477   3.140 -0.1394 -0.0589 -0.1443
   50DOPE  H11A 6330  -0.044   3.535   3.175 -0.1646 -0.0550 -0.2148
   50DOPE  H11B 6331   0.085   3.428   3.231 -1.4508 -2.2916 -0.6918
   50DOPE     P 6332   0.082   3.270   2.976  0.1067  0.4354 -0.0145
   50DOPE   O13 6333   0.111   3.314   2.836  0.3309 -0.2362 -0.4106
   50DOPE   O14 6334   0.010   3.143   2.985 -0.1525  0.2008 -0.2818
   50DOPE   O11 6335   0.222   3.267   3.050 -0.1212 -0.0003  0.2022
   50DOPE   O12 6336  -0.004   3.377   3.050  0.0585  0.4051 -0.0741
   50DOPE    C1 6337   0.263   3.146   3.114  0.4307  0.2602  0.1593
   50DOPE    HA 6338   0.290   3.075   3.032 -0.4277 -0.0442  0.1303
   50DOPE    HB 6339   0.181   3.100   3.173 -0.6744  1.5051 -0.3532
   50DOPE    C2 6340   0.388   3.165   3.201 -0.8453 -0.2178 -0.3733
   50DOPE    HS 6341   0.426   3.069   3.243  0.1887  0.3934  0.1487
   50DOPE   O21 6342   0.372   3.270   3.299  0.1293  0.2905  0.7028
   50DOPE   C21 6343   0.288   3.233   3.400  0.5674 -0.0611 -0.0796
   50DOPE   O22 6344   0.238   3.119   3.412 -0.1748  0.6523 -0.4366
   50DOPE   C22 6345   0.250   3.348   3.489  0.0602  0.1316 -0.6233
   50DOPE   H2R 6346   0.217   3.436   3.431 -2.4012  0.2776  0.8365
   50DOPE   H2S 6347   0.349   3.378   3.530  0.2420 -2.1513  0.8474
   50DOPE    C3 6348   0.513   3.198   3.101 -0.1225 -0.6923  0.3016
   50DOPE    HX 6349   0.480   3.296   3.059  1.1010 -0.5891 -0.4622
   50DOPE    HY 6350   0.514   3.119   3.024 -0.9000 -0.5686  0.1520
   50DOPE   O31 6351   0.642   3.231   3.171  0.2611 -0.6520 -0.3118
   50DOPE   C31 6352   0.709   3.115   3.182  0.5984 -0.6770  0.6594
   50DOPE   O32 6353   0.672   3.008   3.137  0.1165  0.2814  0.2014
   50DOPE   C32 6354   0.843   3.141   3.246  0.4346 -0.3185  0.4340
   50DOPE   H2X 6355   0.923   3.119   3.172 -1.0502  1.0365 -1.6869
   50DOPE   H2Y 6356   0.839   3.246   3.285 -0.5063 -0.8077  1.7135
   50DOPE   C23 6357   0.139   3.305   3.590 -0.3498 -0.5893  0.2985
   50DOPE   H3R 6358   0.181   3.228   3.658 -0.4976 -2.4195 -1.5558
   50DOPE   H3S 6359   0.049   3.266   3.538  0.4795 -2.3826  0.1414
   50DOPE   C24 6360   0.105   3.437   3.666  0.4880 -0.0200  0.1142
   50DOPE   H4R 6361   0.063   3.517   3.602  0.1994  0.4284  0.8439
   50DOPE   H4S 6362   0.189   3.463   3.734  1.3696 -3.2647  0.4762
   50DOPE   C25 6363   0.001   3.393   3.778  0.2299 -0.3734 -0.2585
   50DOPE   H5R 6364  -0.058   3.299   3.771 -1.3041  0.3613  1.7733
   50DOPE   H5S 6365  -0.084   3.465   3.775 -0.7218 -1.4903 -1.2373
   50DOPE   C26 6366   0.056   3.407   3.926  0.3682 -0.4073 -0.0820
   50DOPE   H6R 6367   0.078   3.514   3.947 -0.6936 -0.2869  0.4824
   50DOPE   H6S 6368   0.151   3.349   3.939 -0.2557 -1.1229  1.5491
   50DOPE   C27 6369  -0.030   3.355   4.043  0.1866 -0.6042 -0.6492
   50DOPE   H7R 6370  -0.052   3.252   4.009 -1.8908 -0.6628  0.6974
   50DOPE   H7S 6371  -0.117   3.423   4.049  0.2262 -0.6851  2.9489
   50DOPE   C28 6372   0.022   3.353   4.186 -0.0347  0.0627 -0.4306
   50DOPE   H8R 6373  -0.052   3.299   4.249 -0.5245 -0.3695 -1.3394
   50DOPE   H8S 6374   0.024   3.456   4.226  1.2798  0.0050 -0.3316
   50DOPE   C29 6375   0.148   3.261   4.205  0.3603 -0.0974  0.0547
   50DOPE   H9R 6376   0.208   3.256   4.113 -1.2046  0.9262 -1.0644
   50DOPE  C210 6377   0.183   3.197   4.319  0.1287  0.2428 -0.5064
   50DOPE  H10R 6378   0.282   3.148   4.316 -0.1114 -0.2087 -1.6386
   50DOPE  C211 6379   0.111   3.196   4.451 -0.8123  0.2756 -0.2328
   50DOPE  H11R 6380   0.078   3.297   4.483 -2.4033 -0.4596  0.5588
   50DOPE  H11S 6381   0.189   3.168   4.525 -0.3550  0.5746 -0.5912
   50DOPE  C212 6382  -0.005   3.092   4.439 -0.5899  0.5854  0.0075
   50DOPE  H12R 6383   0.034   3.000   4.392  2.3093  1.0810  1.2388
   50DOPE  H12S 6384  -0.091   3.127   4.378 -0.8288  0.1905  0.1198
   50DOPE  C213 6385  -0.076   3.045   4.571  0.5262  0.0456  0.1831
   50DOPE  H13R 6386  -0.000   3.023   4.649  2.5608 -0.4464 -1.8346
   50DOPE  H13S 6387  -0.121   2.948   4.539  1.7332 -0.5955  0.3911
   50DOPE  C214 6388  -0.184   3.135   4.625  0.4842  0.5686 -0.1931
   50DOPE  H14R 6389  -0.258   3.147   4.544 -0.0280 -1.3905 -0.0602
   50DOPE  H14S 6390  -0.139   3.236   4.635  1.8252 -0.1357  1.3957
   50DOPE  C215 6391  -0.229   3.080   4.764 -0.1583 -0.8389 -0.3621
   50DOPE  H15R 6392  -0.138   3.062   4.825  0.2208 -1.1677 -1.0083
   50DOPE  H15S 6393  -0.273   2.980   4.743  1.0129 -1.8308  1.6295
   50DOPE  C216 6394  -0.327   3.172   4.834  0.5240 -0.4084 -0.9290
   50DOPE  H16R 6395  -0.394   3.216   4.757 -2.0558 -3.0802 -0.3976
   50DOPE  H16S 6396  -0.281   3.249   4.900 -1.1936  0.4227 -0.6428
   50DOPE  C217 6397  -0.427   3.092   4.918  0.5304  0.1443 -0.1606
   50DOPE  H17R 6398  -0.483   3.022   4.852  0.1024  1.1202 -0.8445
   50DOPE  H17S 6399  -0.513   3.146   4.963  0.1930 -0.3939 -0.1492
   50DOPE  C218 6400  -0.362   3.025   5.038 -0.0303  0.3270  0.7059
   50DOPE  H18R 6401  -0.278   3.090   5.069  0.6504  0.5953 -1.5401
   50DOPE  H18S 6402  -0.314   2.931   5.001  0.3144  0.8202 -0.1337
   50DOPE  H18T 6403  -0.436   3.007   5.118 -0.5520 -0.5616  0.0444
   50DOPE   C33 6404   0.878   3.051   3.369 -0.6349 -0.2627 -0.2562
   50DOPE   H3X 6405   0.860   2.942   3.366 -1.3178 -0.2259  1.5473
   50DOPE   H3Y 6406   0.816   3.084   3.456  1.2696  1.2694  0.6044
   50DOPE   C34 6407   1.028   3.059   3.402 -0.3332 -0.0314  0.2311
   50DOPE   H4X 6408   1.080   3.020   3.311 -0.0323 -0.4905  0.5959
   50DOPE   H4Y 6409   1.068   3.161   3.418  0.8245 -0.3622 -0.4033
   50DOPE   C35 6410   1.069   2.970   3.522  0.8523 -0.1133 -0.2282
   50DOPE   H5X 6411   1.179   2.985   3.532  0.8382  1.2381 -1.6211
   50DOPE   H5Y 6412   1.045   2.864   3.499 -1.6863  0.1854  0.7581
   50DOPE   C36 6413   0.994   2.994   3.658  0.7652  0.4482  0.2803
   50DOPE   H6X 6414   0.884   2.991   3.642  0.6775  0.0927  0.8853
   50DOPE   H6Y 6415   1.011   3.100   3.685  0.0066  0.4795  0.6665
   50DOPE   C37 6416   1.045   2.908   3.776 -0.4861  0.4466  0.0778
   50DOPE   H7X 6417   1.040   2.799   3.755 -0.0920  0.4611 -0.0953
   50DOPE   H7Y 6418   1.154   2.928   3.777 -0.3845  0.0375 -1.3610
   50DOPE   C38 6419   0.984   2.926   3.915  0.1507  0.3310  0.6362
   50DOPE   H8X 6420   1.016   3.024   3.956  1.8741 -0.3687  1.0363
   50DOPE   H8Y 6421   1.037   2.853   3.980 -1.6593 -0.7466  0.9805
   50DOPE   C39 6422   0.833   2.909   3.927  0.6623 -0.6156 -0.2106
   50DOPE   H9X 6423   0.772   2.964   3.853  0.9964  1.6435  1.1107
   50DOPE  C310 6424   0.764   2.831   4.013 -0.1688  0.1380  0.2680
   50DOPE  H10X 6425   0.654   2.835   4.004 -0.1384  1.6182  0.3752
   50DOPE  C311 6426   0.823   2.732   4.114 -0.3421  0.4948  0.5099
   50DOPE  H11X 6427   0.760   2.640   4.112 -2.4600  1.8689  0.2748
   50DOPE  H11Y 6428   0.929   2.710   4.091 -0.1403  0.7501  1.1822
   50DOPE  C312 6429   0.823   2.797   4.250 -0.0350  0.7856 -0.0210
   50DOPE  H12X 6430   0.720   2.804   4.291 -0.6244 -1.5649 -0.8866
   50DOPE  H12Y 6431   0.865   2.898   4.231  2.0999 -0.1260 -0.5400
   50DOPE  C313 6432   0.915   2.717   4.342  0.5392 -0.2574 -0.7671
   50DOPE  H13X 6433   0.902   2.607   4.334 -1.6732  0.0780 -3.5813
   50DOPE  H13Y 6434   1.013   2.741   4.294  0.2031  0.9327 -0.8828
   50DOPE  C314 6435   0.924   2.763   4.489 -0.4079 -0.0210  0.5701
   50DOPE  H14X 6436   0.954   2.870   4.485 -0.6755  0.1328  2.1097
   50DOPE  H14Y 6437   0.986   2.696   4.553  1.0838 -0.0536 -0.8578
   50DOPE  C315 6438   0.782   2.771   4.557 -0.6479  0.6060 -0.3403
   50DOPE  H15X 6439   0.741   2.669   4.543  1.0206 -0.1164 -0.1975
   50DOPE  H15Y 6440   0.731   2.861   4.516  0.2974  1.5898  0.5916
   50DOPE  C316 6441   0.792   2.793   4.711  0.5794 -0.5767  0.0032
   50DOPE  H16X 6442   0.818   2.895   4.745 -1.3832  0.0323 -0.2531
   50DOPE  H16Y 6443   0.863   2.720   4.757  0.9405  0.3438  0.9474
   50DOPE  C317 6444   0.643   2.775   4.758 -0.2427 -0.4623 -0.6032
   50DOPE  H17X 6445   0.575   2.824   4.684 -1.0448  0.3091  0.6184
   50DOPE  H17Y 6446   0.613   2.668   4.760 -0.8793 -0.2893 -0.6404
   50DOPE  C318 6447   0.631   2.838   4.897  0.8395  0.1956  0.4541
   50DOPE  H18X 6448   0.532   2.820   4.944  0.3058  2.4756  0.3139
   50DOPE  H18Y 6449   0.710   2.800   4.965  1.6303 -0.2104 -0.6597
   50DOPE  H18Z 6450   0.646   2.948   4.902 -0.1858  0.3221  1.0228
   51DOPE     N 6451   4.355   5.838   2.931 -0.5128 -0.5630  0.2679
   51DOPE   HN1 6452   4.278   5.842   3.000  0.4520  1.7601  1.3281
   51DOPE   HN2 6453   4.351   5.926   2.877  0.7358 -1.4263 -1.3231
   51DOPE   HN3 6454   4.338   5.758   2.867  0.4990 -0.6039  0.0324
   51DOPE   C12 6455   4.480   5.842   3.013  0.1411 -0.6702  0.3289
   51DOPE  H12A 6456   4.473   5.943   3.060 -2.8073 -0.8732  0.5363
   51DOPE  H12B 6457   4.573   5.842   2.954 -0.1691  1.9353 -0.2748
   51DOPE   C11 6458   4.490   5.723   3.108 -0.0934 -0.7347  0.0766
   51DOPE  H11A 6459   4.412   5.744   3.184  0.8975  0.1209  0.9070
   51DOPE  H11B 6460   4.593   5.722   3.151  0.6148 -0.4464 -1.5304
   51DOPE     P 6461   4.431   5.468   3.095  0.2386 -0.1372 -0.2541
   51DOPE   O13 6462   4.544   5.376   3.073 -0.3009 -0.0168  0.1161
   51DOPE   O14 6463   4.305   5.424   3.033 -0.2567 -0.1238 -0.3992
   51DOPE   O11 6464   4.411   5.501   3.243 -0.4395 -0.1842  0.0256
   51DOPE   O12 6465   4.464   5.604   3.029 -0.3943  0.0834 -0.3036
   51DOPE    C1 6466   4.511   5.503   3.345  0.8766 -0.2263 -0.1265
   51DOPE    HA 6467   4.477   5.570   3.427 -0.9678  0.7147 -1.6034
   51DOPE    HB 6468   4.607   5.539   3.303  1.1820  1.3281  1.7744
   51DOPE    C2 6469   4.536   5.366   3.406 -0.3299  0.3801  0.0587
   51DOPE    HS 6470   4.563   5.298   3.322  0.1547  2.8126 -1.8801
   51DOPE   O21 6471   4.418   5.324   3.476 -0.1786  0.0193  0.3106
   51DOPE   C21 6472   4.398   5.193   3.480 -0.3006  0.6472 -0.2236
   51DOPE   O22 6473   4.479   5.110   3.446 -0.0584  0.1733 -0.1226
   51DOPE   C22 6474   4.271   5.173   3.562 -1.1945 -0.1734 -0.4009
   51DOPE   H2R 6475   4.184   5.206   3.502 -0.1255  1.2525 -1.2036
   51DOPE   H2S 6476   4.284   5.239   3.650 -0.3001  0.1819 -0.7870
   51DOPE    C3 6477   4.658   5.383   3.509  0.5412  0.1550 -0.3376
   51DOPE    HX 6478   4.667   5.291   3.570  1.5189  0.5049  0.0701
   51DOPE    HY 6479   4.629   5.465   3.577 -0.2513  0.5964 -1.1789
   51DOPE   O31 6480   4.788   5.426   3.468 -0.2593  0.2209 -0.1501
   51DOPE   C31 6481   4.855   5.350   3.379 -0.6280  0.0204 -0.3624
   51DOPE   O32 6482   4.835   5.235   3.352  0.1487  0.0541 -0.0010
   51DOPE   C32 6483   4.987   5.413   3.350 -0.3886 -0.8062  0.8706
   51DOPE   H2X 6484   5.003   5.403   3.241 -1.6650  0.3970  0.5441
   51DOPE   H2Y 6485   4.987   5.524   3.360  0.3719 -0.5065 -1.6810
   51DOPE   C23 6486   4.246   5.019   3.590 -0.2527 -0.2397 -0.3630
   51DOPE   H3R 6487   4.339   4.990   3.644 -1.0904 -3.3453 -0.4200
   51DOPE   H3S 6488   4.239   4.950   3.503  0.9872 -2.0490  0.9008
   51DOPE   C24 6489   4.128   5.009   3.684  0.4804  0.2900  0.4038
   51DOPE   H4R 6490   4.036   5.041   3.631 -0.0295 -0.9075  0.5279
   51DOPE   H4S 6491   4.142   5.070   3.776  0.8875 -1.3810  1.4944
   51DOPE   C25 6492   4.118   4.873   3.758  0.8415 -0.7854 -0.4373
   51DOPE   H5R 6493   4.189   4.859   3.843 -0.6343  1.2222  1.2165
   51DOPE   H5S 6494   4.142   4.793   3.684 -1.4237 -0.7996 -1.2247
   51DOPE   C26 6495   3.971   4.845   3.807 -0.5935 -0.0185  0.5772
   51DOPE   H6R 6496   3.975   4.737   3.830  0.8225 -0.2267 -0.4904
   51DOPE   H6S 6497   3.905   4.863   3.719 -0.5657 -1.9865  0.1171
   51DOPE   C27 6498   3.939   4.929   3.937  0.6805 -0.1105 -0.3427
   51DOPE   H7R 6499   3.838   4.894   3.967 -0.0495  1.2047 -1.2134
   51DOPE   H7S 6500   3.940   5.038   3.916  0.9451  0.0648  0.5209
   51DOPE   C28 6501   4.027   4.896   4.066  0.1721 -0.0731  0.3143
   51DOPE   H8R 6502   4.133   4.917   4.040 -0.2481  0.1171 -1.3237
   51DOPE   H8S 6503   4.039   4.786   4.079  2.8612  0.0238 -0.6775
   51DOPE   C29 6504   3.992   4.959   4.194  0.2004 -0.0897 -0.5501
   51DOPE   H9R 6505   3.885   4.972   4.215  0.4626  1.5904 -0.1870
   51DOPE  C210 6506   4.079   5.022   4.277 -0.0605  0.1671  0.2016
   51DOPE  H10R 6507   4.042   5.075   4.366  0.2556  0.6507  0.0479
   51DOPE  C211 6508   4.229   5.028   4.265  0.1239  0.2143  0.2757
   51DOPE  H11R 6509   4.270   5.131   4.254  0.7728 -0.2376 -2.4225
   51DOPE  H11S 6510   4.258   4.979   4.170 -1.0053 -0.9515  0.5070
   51DOPE  C212 6511   4.310   4.949   4.364 -0.5523  0.1225 -0.1052
   51DOPE  H12R 6512   4.281   4.842   4.372 -1.4726  0.4458  1.1282
   51DOPE  H12S 6513   4.285   4.992   4.464 -2.2786  0.4227 -0.6452
   51DOPE  C213 6514   4.461   4.955   4.325  0.6240  0.7133 -0.2953
   51DOPE  H13R 6515   4.492   5.061   4.313  0.6606  0.7570  0.1437
   51DOPE  H13S 6516   4.469   4.908   4.225  2.0588  0.7003 -0.1945
   51DOPE  C214 6517   4.550   4.886   4.427 -0.0419  0.6164 -1.5438
   51DOPE  H14R 6518   4.528   4.778   4.426  0.6231  0.4178  0.4625
   51DOPE  H14S 6519   4.529   4.930   4.527 -0.0195 -0.9730 -0.8026
   51DOPE  C215 6520   4.706   4.909   4.397 -0.1287  0.6033  0.6675
   51DOPE  H15R 6521   4.728   5.012   4.433  0.1770  0.8090 -0.0964
   51DOPE  H15S 6522   4.723   4.902   4.288 -1.2236 -1.0137  0.5734
   51DOPE  C216 6523   4.790   4.813   4.486 -0.1356 -0.2278  0.5870
   51DOPE  H16R 6524   4.763   4.705   4.482  1.8618 -0.8137  1.6599
   51DOPE  H16S 6525   4.782   4.843   4.592  3.8609  0.6836  0.8114
   51DOPE  C217 6526   4.940   4.814   4.449  0.5950  0.4667  0.2328
   51DOPE  H17R 6527   4.956   4.780   4.344  0.7951  0.5688  0.2305
   51DOPE  H17S 6528   5.000   4.745   4.512 -1.7988 -0.0911  2.0574
   51DOPE  C218 6529   5.014   4.947   4.467  0.2777 -0.3802  0.5788
   51DOPE  H18R 6530   5.006   4.980   4.573 -0.3503  0.3098  0.3283
   51DOPE  H18S 6531   4.972   5.035   4.412 -0.7227 -0.8292  0.5974
   51DOPE  H18T 6532   5.117   4.939   4.427 -0.0623 -2.4428 -0.0005
   51DOPE   C33 6533   5.094   5.357   3.446 -0.8725  0.2335 -0.8220
   51DOPE   H3X 6534   5.194   5.400   3.424 -0.7438 -0.8468 -2.5617
   51DOPE   H3Y 6535   5.090   5.247   3.432 -1.3375  0.0047  0.9281
   51DOPE   C34 6536   5.067   5.392   3.590 -0.3257 -0.4558  0.4417
   51DOPE   H4X 6537   5.014   5.488   3.608  0.5217  0.7077 -2.6099
   51DOPE   H4Y 6538   4.999   5.309   3.619 -0.7991 -0.0022  0.6314
   51DOPE   C35 6539   5.191   5.388   3.675  0.6139  0.2798 -0.4187
   51DOPE   H5X 6540   5.272   5.459   3.648 -0.3479  1.4529 -0.3067
   51DOPE   H5Y 6541   5.243   5.294   3.646  1.9548  0.9583 -0.2910
   51DOPE   C36 6542   5.178   5.397   3.827  0.3544  0.2773 -0.3533
   51DOPE   H6X 6543   5.128   5.309   3.872 -0.1956  0.4034 -0.7083
   51DOPE   H6Y 6544   5.107   5.482   3.840 -0.2369  0.0759 -2.0307
   51DOPE   C37 6545   5.312   5.419   3.893  0.0973  0.2826 -0.6403
   51DOPE   H7X 6546   5.374   5.327   3.907  1.1727  0.9429 -0.9143
   51DOPE   H7Y 6547   5.362   5.491   3.825 -0.9990 -0.2815 -2.0896
   51DOPE   C38 6548   5.299   5.496   4.023 -0.2194 -0.2997 -0.2227
   51DOPE   H8X 6549   5.240   5.440   4.099 -0.9714  0.2342 -0.4059
   51DOPE   H8Y 6550   5.246   5.588   3.990 -2.4411 -2.1042 -2.0380
   51DOPE   C39 6551   5.431   5.527   4.080 -0.3556 -0.0717  1.0049
   51DOPE   H9X 6552   5.516   5.513   4.011 -1.6279  1.8278 -1.0652
   51DOPE  C310 6553   5.463   5.560   4.207  0.0697  0.0009 -0.2620
   51DOPE  H10X 6554   5.569   5.576   4.233 -0.0457  0.7401 -0.2314
   51DOPE  C311 6555   5.375   5.576   4.329 -0.3146 -0.2156 -0.4430
   51DOPE  H11X 6556   5.383   5.682   4.363  0.4364 -0.2621 -0.4453
   51DOPE  H11Y 6557   5.268   5.559   4.304 -0.7019  0.3596  0.7358
   51DOPE  C312 6558   5.435   5.489   4.445  1.5568  0.3714 -0.1267
   51DOPE  H12X 6559   5.385   5.520   4.539  0.5468 -0.0886 -0.5017
   51DOPE  H12Y 6560   5.543   5.498   4.470  1.7706 -1.6297 -0.2050
   51DOPE  C313 6561   5.403   5.339   4.432 -0.6238  0.1000 -0.6713
   51DOPE  H13X 6562   5.297   5.331   4.399  0.2202 -1.6847 -3.2024
   51DOPE  H13Y 6563   5.464   5.298   4.350  1.0113  1.5594 -0.2618
   51DOPE  C314 6564   5.442   5.267   4.568  0.6613 -0.6010  0.8461
   51DOPE  H14X 6565   5.394   5.321   4.652  1.0258  2.7313 -0.9256
   51DOPE  H14Y 6566   5.553   5.259   4.574  0.8623  1.0730 -0.1163
   51DOPE  C315 6567   5.380   5.126   4.562  0.4919 -0.8812  0.0193
   51DOPE  H15X 6568   5.436   5.070   4.484 -0.8563 -1.5660 -0.4946
   51DOPE  H15Y 6569   5.280   5.124   4.513  1.0015  0.8734 -1.2024
   51DOPE  C316 6570   5.391   5.050   4.693 -0.3876  0.4558  0.0843
   51DOPE  H16X 6571   5.487   5.067   4.746 -0.5074 -0.3878  0.6074
   51DOPE  H16Y 6572   5.392   4.940   4.674  1.0934  0.7822 -1.9723
   51DOPE  C317 6573   5.271   5.069   4.791  0.0685  0.3617  0.6960
   51DOPE  H17X 6574   5.237   5.173   4.812  1.1328  0.5641  1.5296
   51DOPE  H17Y 6575   5.189   5.028   4.730  2.2568 -0.0983 -2.1469
   51DOPE  C318 6576   5.284   4.994   4.916  0.3351  0.2480 -0.3932
   51DOPE  H18X 6577   5.355   5.048   4.984  0.1815 -2.5957  2.2676
   51DOPE  H18Y 6578   5.184   4.980   4.963  0.7082 -0.1872  0.2974
   51DOPE  H18Z 6579   5.334   4.895   4.901  2.9687  0.4493  4.5896
   52DOPE     N 6580   7.034   4.205   2.655  0.0977 -0.1293 -0.0165
   52DOPE   HN1 6581   6.975   4.265   2.594 -0.7920 -1.4420 -0.4901
   52DOPE   HN2 6582   7.014   4.109   2.622  0.5016  0.6392 -2.7555
   52DOPE   HN3 6583   7.017   4.221   2.757  0.3737  0.2507 -0.0283
   52DOPE   C12 6584   7.182   4.232   2.632 -0.2478  0.2664 -0.3718
   52DOPE  H12A 6585   7.198   4.341   2.617  0.9133  0.2570  0.7000
   52DOPE  H12B 6586   7.200   4.174   2.539 -1.6578 -0.2440 -0.3584
   52DOPE   C11 6587   7.261   4.184   2.756  0.6967 -0.0615 -0.1417
   52DOPE  H11A 6588   7.365   4.163   2.721  0.4974 -0.0714 -0.7431
   52DOPE  H11B 6589   7.215   4.086   2.782 -2.4286  0.0914 -4.1847
   52DOPE     P 6590   7.159   4.283   2.979 -0.2146 -0.6841  0.2804
   52DOPE   O13 6591   7.038   4.231   2.916 -0.6140  0.4644  0.0072
   52DOPE   O14 6592   7.158   4.419   3.046 -0.0941 -0.0553  0.2586
   52DOPE   O11 6593   7.208   4.184   3.088 -0.7624  0.2766 -0.3100
   52DOPE   O12 6594   7.264   4.276   2.863 -0.5270  0.2017  0.7585
   52DOPE    C1 6595   7.334   4.118   3.080  0.0479  0.3272  0.0339
   52DOPE    HA 6596   7.410   4.187   3.036  0.0196 -0.4686 -1.3033
   52DOPE    HB 6597   7.323   4.028   3.016 -2.4572  0.2604  0.4591
   52DOPE    C2 6598   7.397   4.086   3.222 -0.4487 -0.8445  0.1212
   52DOPE    HS 6599   7.493   4.032   3.207 -1.3936 -2.1833 -1.4988
   52DOPE   O21 6600   7.308   4.006   3.300 -0.1515 -0.4681 -0.1823
   52DOPE   C21 6601   7.292   3.886   3.260 -0.3072  0.6888 -0.6435
   52DOPE   O22 6602   7.363   3.836   3.178 -0.4919 -0.0919  0.2463
   52DOPE   C22 6603   7.175   3.827   3.341  0.3410 -0.1414  0.1453
   52DOPE   H2R 6604   7.156   3.732   3.285  0.3039  0.2658 -0.5507
   52DOPE   H2S 6605   7.089   3.897   3.338  2.0727  2.2500  2.1087
   52DOPE    C3 6606   7.423   4.217   3.295 -0.8189 -0.7440 -0.2596
   52DOPE    HX 6607   7.338   4.284   3.265 -0.2554 -0.7159 -1.8845
   52DOPE    HY 6608   7.515   4.264   3.255 -0.6019  0.4510  1.5243
   52DOPE   O31 6609   7.439   4.195   3.437  0.4931 -0.1114 -0.4447
   52DOPE   C31 6610   7.322   4.207   3.506 -0.1451 -0.2614  0.2486
   52DOPE   O32 6611   7.213   4.249   3.469 -0.3204 -0.6025  0.1450
   52DOPE   C32 6612   7.348   4.150   3.642  0.4852  0.2799  0.5516
   52DOPE   H2X 6613   7.392   4.049   3.629 -1.1466 -0.4052  0.1578
   52DOPE   H2Y 6614   7.421   4.214   3.697 -0.0219  0.9507  0.4602
   52DOPE   C23 6615   7.211   3.812   3.485  0.1708 -0.6867  0.2640
   52DOPE   H3R 6616   7.255   3.904   3.528  0.6958 -1.0942  0.6060
   52DOPE   H3S 6617   7.287   3.731   3.485  0.4928 -0.4085  1.7294
   52DOPE   C24 6618   7.090   3.783   3.573  0.2089  0.3529 -0.4090
   52DOPE   H4R 6619   7.048   3.691   3.527  0.5562  1.8715 -4.1485
   52DOPE   H4S 6620   7.016   3.864   3.559  0.3226  0.4520 -0.4367
   52DOPE   C25 6621   7.120   3.771   3.726 -0.4738  0.1515 -0.5673
   52DOPE   H5R 6622   7.160   3.870   3.755  0.8235 -0.8525  1.2628
   52DOPE   H5S 6623   7.206   3.701   3.732 -0.3983  0.3906  1.9490
   52DOPE   C26 6624   7.008   3.730   3.824  0.2777 -0.4618  0.0606
   52DOPE   H6R 6625   6.942   3.655   3.776 -0.4010  1.2656 -1.8762
   52DOPE   H6S 6626   6.934   3.813   3.827 -0.4911 -1.0491 -1.5016
   52DOPE   C27 6627   7.066   3.688   3.957  0.2679  0.4041  0.2277
   52DOPE   H7R 6628   7.147   3.760   3.980 -2.2052  3.3609  0.4590
   52DOPE   H7S 6629   7.116   3.591   3.941 -1.4523 -0.2733 -1.3008
   52DOPE   C28 6630   6.953   3.689   4.068 -0.2769 -0.2154 -0.1966
   52DOPE   H8R 6631   6.893   3.783   4.064  0.7928  0.4409 -2.0961
   52DOPE   H8S 6632   7.015   3.683   4.160  0.6393  1.3688 -0.6805
   52DOPE   C29 6633   6.856   3.579   4.042  0.4054  0.6057 -0.1139
   52DOPE   H9R 6634   6.783   3.613   3.967  1.7037  0.0540 -1.6957
   52DOPE  C210 6635   6.838   3.454   4.098  0.0027 -0.2298 -0.2436
   52DOPE  H10R 6636   6.748   3.395   4.077 -1.4494  1.3832  1.1872
   52DOPE  C211 6637   6.920   3.412   4.222 -0.1224 -0.6131 -0.0430
   52DOPE  H11R 6638   6.992   3.492   4.250  0.1428 -0.4496 -1.1718
   52DOPE  H11S 6639   6.975   3.317   4.206  2.0397  0.5394  0.0724
   52DOPE  C212 6640   6.835   3.399   4.349  0.1230  0.4738  0.2301
   52DOPE  H12R 6641   6.902   3.344   4.419  1.8275  2.9264  0.6585
   52DOPE  H12S 6642   6.752   3.326   4.337  0.3313 -0.4187  3.3528
   52DOPE  C213 6643   6.782   3.525   4.408  0.1645 -0.3827 -0.2270
   52DOPE  H13R 6644   6.699   3.560   4.342 -1.5371 -0.7883  1.6283
   52DOPE  H13S 6645   6.868   3.596   4.418 -0.2407 -0.0700  1.2518
   52DOPE  C214 6646   6.720   3.508   4.550  0.3769  0.5107  0.4347
   52DOPE  H14R 6647   6.785   3.442   4.612  0.5851  0.1947 -0.1168
   52DOPE  H14S 6648   6.623   3.464   4.521  1.6877 -1.2462 -1.6154
   52DOPE  C215 6649   6.698   3.639   4.618 -0.0228 -0.3848 -0.1611
   52DOPE  H15R 6650   6.651   3.709   4.546 -1.4574 -1.0977  0.0557
   52DOPE  H15S 6651   6.789   3.678   4.670 -0.5062 -0.6532  0.9113
   52DOPE  C216 6652   6.581   3.632   4.722  0.8127  0.5903 -0.1496
   52DOPE  H16R 6653   6.618   3.563   4.800  2.2037  0.7197 -0.6628
   52DOPE  H16S 6654   6.486   3.588   4.683  0.2196 -0.8803  2.7399
   52DOPE  C217 6655   6.561   3.773   4.786  1.1280 -0.0165  0.2281
   52DOPE  H17R 6656   6.539   3.849   4.708 -4.2498 -1.2496  0.1404
   52DOPE  H17S 6657   6.655   3.803   4.838  2.7658  0.1352 -2.6549
   52DOPE  C218 6658   6.439   3.778   4.882 -0.2456  0.0201  0.2600
   52DOPE  H18R 6659   6.341   3.780   4.830 -0.2888  1.4115  0.3484
   52DOPE  H18S 6660   6.451   3.689   4.948 -0.2335  0.1303  0.4083
   52DOPE  H18T 6661   6.440   3.866   4.950  0.2857  0.0242  0.2531
   52DOPE   C33 6662   7.224   4.144   3.720 -0.0838 -0.1361 -0.1084
   52DOPE   H3X 6663   7.177   4.048   3.689  3.3363 -1.8339 -0.5010
   52DOPE   H3Y 6664   7.164   4.235   3.700  0.0542  0.0077  0.1321
   52DOPE   C34 6665   7.257   4.137   3.867  0.8694  0.1588  0.2921
   52DOPE   H4X 6666   7.334   4.062   3.891 -0.2815 -0.3849  2.5280
   52DOPE   H4Y 6667   7.277   4.241   3.900 -0.7881 -0.0951  2.3128
   52DOPE   C35 6668   7.129   4.107   3.946  0.4859  0.5720 -0.1579
   52DOPE   H5X 6669   7.085   4.009   3.920  0.5730  0.8005 -1.2103
   52DOPE   H5Y 6670   7.054   4.188   3.930 -1.1308 -0.5011  1.6841
   52DOPE   C36 6671   7.155   4.103   4.098  0.0427  0.2596  0.0661
   52DOPE   H6X 6672   7.216   4.014   4.125  0.6820  1.0756  1.4892
   52DOPE   H6Y 6673   7.051   4.099   4.136  0.9555 -0.4727  2.7508
   52DOPE   C37 6674   7.233   4.233   4.150 -0.5538  0.3433 -0.1999
   52DOPE   H7X 6675   7.338   4.239   4.112 -0.8723  1.1909 -1.0043
   52DOPE   H7Y 6676   7.181   4.318   4.101 -0.5867 -1.5556 -3.7869
   52DOPE   C38 6677   7.230   4.255   4.304 -0.0270 -0.0804 -0.8153
   52DOPE   H8X 6678   7.293   4.177   4.351  0.3183 -0.0997 -1.3056
   52DOPE   H8Y 6679   7.125   4.246   4.341  0.8430  0.2959  1.9722
   52DOPE   C39 6680   7.282   4.392   4.325 -0.7835  0.1789 -0.5771
   52DOPE   H9X 6681   7.390   4.410   4.309 -0.1764  0.2113  2.8721
   52DOPE  C310 6682   7.220   4.493   4.385 -0.0978  0.0946 -0.4085
   52DOPE  H10X 6683   7.269   4.589   4.407 -1.2981  0.4255  1.0156
   52DOPE  C311 6684   7.082   4.495   4.433  0.5100 -0.0117  0.3382
   52DOPE  H11X 6685   7.030   4.594   4.427 -0.8710 -0.7736 -0.8395
   52DOPE  H11Y 6686   7.015   4.432   4.371 -0.2966  1.3829 -0.2491
   52DOPE  C312 6687   7.085   4.455   4.582  0.8171 -0.3545  0.6448
   52DOPE  H12X 6688   7.165   4.505   4.642  0.8613 -0.5640  0.7621
   52DOPE  H12Y 6689   7.094   4.345   4.596  1.5669 -0.6660 -1.8263
   52DOPE  C313 6690   6.959   4.502   4.660 -0.1141  0.7679  0.0882
   52DOPE  H13X 6691   6.955   4.613   4.655 -2.3845  0.7232  0.2279
   52DOPE  H13Y 6692   6.871   4.460   4.607  0.9977 -2.1400  0.3411
   52DOPE  C314 6693   6.948   4.460   4.812 -0.5555  0.1543  0.3395
   52DOPE  H14X 6694   7.052   4.483   4.844 -1.0208  2.1258  0.6146
   52DOPE  H14Y 6695   6.916   4.355   4.826  2.6601 -1.2088 -1.3470
   52DOPE  C315 6696   6.856   4.551   4.897  0.1938  0.3774  0.3477
   52DOPE  H15X 6697   6.751   4.521   4.878 -0.4746  1.2419  2.3206
   52DOPE  H15Y 6698   6.871   4.658   4.874 -1.3389  0.2676 -1.3436
   52DOPE  C316 6699   6.870   4.531   5.048 -0.0114  0.9259 -0.1018
   52DOPE  H16X 6700   6.962   4.578   5.087 -0.5854  2.0989 -0.1245
   52DOPE  H16Y 6701   6.874   4.424   5.078 -2.9944  0.0851 -2.1714
   52DOPE  C317 6702   6.753   4.580   5.131 -0.5009 -0.7610 -0.1104
   52DOPE  H17X 6703   6.669   4.515   5.098  1.2060 -2.4622 -1.3666
   52DOPE  H17Y 6704   6.782   4.562   5.237  0.9804 -0.1686 -0.3893
   52DOPE  C318 6705   6.714   4.729   5.128  0.0956 -0.2170 -0.3475
   52DOPE  H18X 6706   6.666   4.749   5.030 -4.3709  1.7816  1.9136
   52DOPE  H18Y 6707   6.640   4.748   5.210  0.4098 -0.9438  0.1174
   52DOPE  H18Z 6708   6.808   4.789   5.134  1.8183 -2.8976  2.5173
   53DOPE     N 6709   0.076   0.713   2.911 -0.3021 -0.4177  0.4208
   53DOPE   HN1 6710  -0.008   0.752   2.959 -0.9883  0.3346 -1.3011
   53DOPE   HN2 6711   0.048   0.651   2.832  1.4341  1.9198 -2.2526
   53DOPE   HN3 6712   0.141   0.663   2.975  0.2700 -0.7700 -0.4125
   53DOPE   C12 6713   0.154   0.826   2.859 -0.1425 -0.4816 -0.4446
   53DOPE  H12A 6714   0.225   0.788   2.784  1.1596  0.0103  0.5042
   53DOPE  H12B 6715   0.221   0.854   2.943  1.1150 -1.7920 -0.9828
   53DOPE   C11 6716   0.060   0.933   2.806  0.2779  0.0217  0.3028
   53DOPE  H11A 6717   0.126   1.000   2.746 -0.4005 -0.4393 -1.0019
   53DOPE  H11B 6718   0.018   0.990   2.891  2.1026  0.4426  0.9768
   53DOPE     P 6719  -0.170   0.968   2.683  0.0043  0.2216 -0.1169
   53DOPE   O13 6720  -0.220   0.916   2.557  0.0793 -0.5232 -0.7096
   53DOPE   O14 6721  -0.129   1.112   2.676 -0.1766 -0.3887 -0.6420
   53DOPE   O11 6722  -0.286   0.947   2.786  0.7060  0.2654  0.1328
   53DOPE   O12 6723  -0.045   0.876   2.722 -0.3118 -0.6371  0.5636
   53DOPE    C1 6724  -0.286   0.819   2.841  0.4631 -0.4042  0.0894
   53DOPE    HA 6725  -0.198   0.801   2.908  1.8856  1.9684 -0.9974
   53DOPE    HB 6726  -0.277   0.738   2.766  0.4640 -0.9681  0.6873
   53DOPE    C2 6727  -0.401   0.803   2.940 -0.5116  0.0793  0.6764
   53DOPE    HS 6728  -0.489   0.859   2.901 -0.3151  1.3568  1.9390
   53DOPE   O21 6729  -0.350   0.865   3.061 -0.0895  0.0134 -0.0199
   53DOPE   C21 6730  -0.448   0.884   3.150  0.5268 -0.1367  0.0138
   53DOPE   O22 6731  -0.559   0.838   3.138 -0.6024 -0.4243 -0.2233
   53DOPE   C22 6732  -0.403   0.960   3.269 -0.1487 -0.0817 -0.5598
   53DOPE   H2R 6733  -0.481   1.038   3.274 -0.4975 -0.5069  1.0077
   53DOPE   H2S 6734  -0.301   1.003   3.256 -0.0353  0.1432  0.9609
   53DOPE    C3 6735  -0.450   0.647   2.958 -0.2377 -0.1498  0.6378
   53DOPE    HX 6736  -0.474   0.615   2.854  0.7906 -0.7272  0.5666
   53DOPE    HY 6737  -0.549   0.636   3.007 -0.6136  0.1767 -0.0260
   53DOPE   O31 6738  -0.349   0.550   3.007 -0.4345 -0.4140 -0.2711
   53DOPE   C31 6739  -0.345   0.533   3.141 -0.1293 -0.3658  0.7170
   53DOPE   O32 6740  -0.401   0.602   3.225 -0.9235  0.4972 -0.0099
   53DOPE   C32 6741  -0.255   0.418   3.175  0.3976 -0.2909 -0.5917
   53DOPE   H2X 6742  -0.291   0.373   3.270  1.2474  0.5952  0.1645
   53DOPE   H2Y 6743  -0.264   0.339   3.097  1.4498 -0.6307 -0.3734
   53DOPE   C23 6744  -0.424   0.882   3.404  0.8471 -0.0946  0.5621
   53DOPE   H3R 6745  -0.346   0.804   3.414  3.4666  2.3619  0.8083
   53DOPE   H3S 6746  -0.528   0.845   3.407  1.5355 -2.3033 -0.7502
   53DOPE   C24 6747  -0.405   0.975   3.529 -0.8685  0.2649 -0.1849
   53DOPE   H4R 6748  -0.500   1.033   3.535 -0.8010  0.4156 -0.5377
   53DOPE   H4S 6749  -0.315   1.040   3.519 -1.3649  0.9198 -0.4618
   53DOPE   C25 6750  -0.373   0.893   3.656  0.4854  0.0618  0.0944
   53DOPE   H5R 6751  -0.292   0.818   3.643 -1.4439 -2.3119  1.0215
   53DOPE   H5S 6752  -0.464   0.830   3.666  1.7505 -1.8414  0.0294
   53DOPE   C26 6753  -0.356   0.965   3.797  0.0356 -0.4203  0.2777
   53DOPE   H6R 6754  -0.424   1.053   3.802  0.3112 -0.2555  1.8518
   53DOPE   H6S 6755  -0.256   1.014   3.802 -1.2915  2.4407  1.0050
   53DOPE   C27 6756  -0.372   0.872   3.915  0.0222  0.4524  0.1764
   53DOPE   H7R 6757  -0.293   0.795   3.910 -0.1236  0.3676 -1.0843
   53DOPE   H7S 6758  -0.473   0.828   3.903 -0.1079  0.9751 -0.7602
   53DOPE   C28 6759  -0.359   0.928   4.052 -0.1579  0.2370  0.0215
   53DOPE   H8R 6760  -0.432   1.012   4.052  0.3290  0.6684  0.1338
   53DOPE   H8S 6761  -0.256   0.966   4.066  0.4679 -1.5256  0.3541
   53DOPE   C29 6762  -0.402   0.838   4.168 -0.0868 -0.4751 -0.6871
   53DOPE   H9R 6763  -0.509   0.854   4.187 -0.2052 -0.8402 -1.0367
   53DOPE  C210 6764  -0.323   0.757   4.242  0.5946 -0.1289 -0.3688
   53DOPE  H10R 6765  -0.365   0.699   4.325  1.8641 -0.0402  0.3637
   53DOPE  C211 6766  -0.178   0.742   4.219  0.2562  0.0896 -0.1462
   53DOPE  H11R 6767  -0.139   0.800   4.132  2.1424 -1.2483 -0.2373
   53DOPE  H11S 6768  -0.165   0.637   4.186 -3.3000 -1.0018  1.5001
   53DOPE  C212 6769  -0.100   0.751   4.353  0.0633  0.2351  0.2188
   53DOPE  H12R 6770   0.007   0.745   4.327  0.4303  0.7767  1.5395
   53DOPE  H12S 6771  -0.127   0.664   4.417 -0.6676 -0.3845 -0.8927
   53DOPE  C213 6772  -0.135   0.869   4.435  0.3018  0.0343 -0.2546
   53DOPE  H13R 6773  -0.245   0.881   4.439  0.4771  1.9300 -0.4226
   53DOPE  H13S 6774  -0.092   0.953   4.378  0.7943 -0.2405 -0.2989
   53DOPE  C214 6775  -0.070   0.870   4.573  0.0624  0.4647 -0.4503
   53DOPE  H14R 6776   0.038   0.847   4.564 -0.1434 -0.7800 -0.0381
   53DOPE  H14S 6777  -0.095   0.778   4.631  1.7982  1.3735  1.9066
   53DOPE  C215 6778  -0.092   0.992   4.665 -0.7225  0.4657  0.0096
   53DOPE  H15R 6779  -0.061   1.085   4.612 -0.2992 -0.0442 -0.6595
   53DOPE  H15S 6780  -0.022   0.992   4.751 -1.4785  0.1761  0.6316
   53DOPE  C216 6781  -0.234   0.994   4.721  0.0109 -0.0260 -0.1452
   53DOPE  H16R 6782  -0.256   0.893   4.762  0.3637  0.4353  1.2158
   53DOPE  H16S 6783  -0.306   1.013   4.639  2.1631 -0.4275 -2.2349
   53DOPE  C217 6784  -0.247   1.091   4.844  0.5938 -0.2247  0.3328
   53DOPE  H17R 6785  -0.165   1.069   4.916 -0.1158  0.0675  1.2439
   53DOPE  H17S 6786  -0.346   1.069   4.889  0.5517 -0.3140  0.1968
   53DOPE  C218 6787  -0.264   1.240   4.794 -0.0656  0.4128 -0.1264
   53DOPE  H18R 6788  -0.235   1.310   4.875 -0.5135 -1.3967  1.7121
   53DOPE  H18S 6789  -0.361   1.260   4.744 -0.9555 -2.1318  0.4004
   53DOPE  H18T 6790  -0.190   1.261   4.714 -1.3870  0.2312 -1.4450
   53DOPE   C33 6791  -0.115   0.472   3.197  0.3225  0.3756 -0.2797
   53DOPE   H3X 6792  -0.072   0.542   3.123  1.4653  0.2671  0.2548
   53DOPE   H3Y 6793  -0.053   0.380   3.205 -1.3768 -0.9905 -1.9118
   53DOPE   C34 6794  -0.088   0.553   3.326 -0.2514  0.2515  0.4232
   53DOPE   H4X 6795   0.021   0.574   3.322  0.1122 -1.5814 -0.4114
   53DOPE   H4Y 6796  -0.148   0.646   3.325 -1.8573 -0.7360 -1.4319
   53DOPE   C35 6797  -0.118   0.461   3.445  0.1982  0.4183 -0.3129
   53DOPE   H5X 6798  -0.108   0.354   3.418 -1.0739  0.0659  0.5439
   53DOPE   H5Y 6799  -0.229   0.463   3.445  0.1182  3.3303 -2.3834
   53DOPE   C36 6800  -0.047   0.499   3.575 -0.1289  0.2714 -0.8777
   53DOPE   H6X 6801  -0.040   0.609   3.578 -0.2648  0.2834 -0.9647
   53DOPE   H6Y 6802   0.056   0.462   3.559  0.6354  1.2990  1.3233
   53DOPE   C37 6803  -0.099   0.442   3.704 -0.1471 -0.1199 -0.1535
   53DOPE   H7X 6804  -0.209   0.458   3.712 -0.2813 -0.5682 -1.0150
   53DOPE   H7Y 6805  -0.090   0.332   3.696  0.0894 -0.1603  0.5480
   53DOPE   C38 6806  -0.025   0.495   3.832 -0.5044  0.6391 -0.1942
   53DOPE   H8X 6807  -0.028   0.605   3.819 -0.7852  0.5762 -0.7071
   53DOPE   H8Y 6808   0.083   0.470   3.823 -0.7218  0.2472 -2.5086
   53DOPE   C39 6809  -0.086   0.458   3.972  0.0939  0.1705  0.2055
   53DOPE   H9X 6810  -0.181   0.513   3.974 -1.2944 -2.1252  1.4961
   53DOPE  C310 6811  -0.036   0.420   4.092  0.1586 -1.3397  0.0866
   53DOPE  H10X 6812  -0.118   0.403   4.164  1.2765  0.6406  1.9230
   53DOPE  C311 6813   0.103   0.375   4.119 -0.5405  0.5025  0.3240
   53DOPE  H11X 6814   0.108   0.270   4.155  0.0633  0.6810  0.7695
   53DOPE  H11Y 6815   0.173   0.370   4.032 -0.4623  1.2131  0.3433
   53DOPE  C312 6816   0.184   0.451   4.229 -0.1551  0.4691 -0.1141
   53DOPE  H12X 6817   0.190   0.562   4.231  2.0434  0.4274 -1.1961
   53DOPE  H12Y 6818   0.290   0.420   4.219 -0.2324  0.4326 -0.8821
   53DOPE  C313 6819   0.129   0.414   4.367  0.7331  0.3187  0.1459
   53DOPE  H13X 6820   0.025   0.448   4.382  0.1048 -0.5951 -1.7882
   53DOPE  H13Y 6821   0.129   0.303   4.373  0.9615  0.3632  1.2503
   53DOPE  C314 6822   0.212   0.463   4.481 -0.5216  0.9737  0.2114
   53DOPE  H14X 6823   0.237   0.571   4.482 -2.0293  1.3452  1.7440
   53DOPE  H14Y 6824   0.304   0.401   4.481  0.1334  1.9314 -0.4300
   53DOPE  C315 6825   0.150   0.424   4.621  0.5731  0.2362 -0.3759
   53DOPE  H15X 6826   0.088   0.333   4.606  0.0999  0.6511 -1.0224
   53DOPE  H15Y 6827   0.080   0.508   4.642  0.8470  0.3888 -0.0555
   53DOPE  C316 6828   0.247   0.403   4.732 -0.3959 -0.5764  0.0736
   53DOPE  H16X 6829   0.304   0.497   4.742 -0.9654 -0.2022 -0.1664
   53DOPE  H16Y 6830   0.312   0.317   4.705  0.6963  0.3214 -0.2340
   53DOPE  C317 6831   0.189   0.366   4.869  0.1448 -0.2518 -0.3435
   53DOPE  H17X 6832   0.126   0.451   4.902  0.3726  0.4892 -1.7733
   53DOPE  H17Y 6833   0.129   0.273   4.867 -2.6235  1.3718  1.2439
   53DOPE  C318 6834   0.284   0.335   4.984  0.3448  0.4451 -1.0807
   53DOPE  H18X 6835   0.354   0.254   4.952 -1.5685 -2.1514  0.8804
   53DOPE  H18Y 6836   0.346   0.423   5.011  1.4503 -0.4276 -0.6495
   53DOPE  H18Z 6837   0.238   0.292   5.075  0.6218  0.9992 -0.6689
   54DOPE     N 6838   6.564   3.704   2.854  0.6059  0.4636  0.3901
   54DOPE   HN1 6839   6.471   3.738   2.824  1.7320  1.9145 -1.7175
   54DOPE   HN2 6840   6.551   3.601   2.849 -2.4941  0.5165  3.5063
   54DOPE   HN3 6841   6.599   3.725   2.950 -1.3859  0.8313  1.0877
   54DOPE   C12 6842   6.669   3.765   2.759 -0.0614  0.7140  0.7990
   54DOPE  H12A 6843   6.670   3.876   2.770  0.8430  0.6094  1.8213
   54DOPE  H12B 6844   6.633   3.744   2.656 -1.4203 -0.5035  1.4903
   54DOPE   C11 6845   6.812   3.711   2.789 -0.2965  0.0809  0.0362
   54DOPE  H11A 6846   6.849   3.737   2.890 -1.4468 -1.7997  1.0024
   54DOPE  H11B 6847   6.876   3.766   2.717  0.4997  0.0305  0.6984
   54DOPE     P 6848   6.933   3.480   2.827  0.0059 -0.5611  0.5889
   54DOPE   O13 6849   7.054   3.537   2.766  0.3207 -0.1329  0.0757
   54DOPE   O14 6850   6.901   3.342   2.793 -0.0684  0.4979  0.1698
   54DOPE   O11 6851   6.916   3.508   2.980  0.2114  0.0730  0.5315
   54DOPE   O12 6852   6.819   3.576   2.769  0.5598  0.0962 -0.2580
   54DOPE    C1 6853   6.796   3.480   3.054 -0.0067 -0.2712  0.0530
   54DOPE    HA 6854   6.725   3.414   3.000  0.9375 -2.2851  1.1599
   54DOPE    HB 6855   6.747   3.576   3.079  0.6202 -0.6453  3.0906
   54DOPE    C2 6856   6.830   3.414   3.197 -0.1106  0.0117  0.0653
   54DOPE    HS 6857   6.750   3.340   3.221  0.0497 -0.4321 -0.7628
   54DOPE   O21 6858   6.834   3.514   3.301 -0.2522 -0.2532  0.0413
   54DOPE   C21 6859   6.719   3.568   3.336 -0.0583  0.3851  0.0577
   54DOPE   O22 6860   6.614   3.543   3.288  0.3218 -0.1326  0.2194
   54DOPE   C22 6861   6.758   3.663   3.453 -0.3634  0.1614  0.8749
   54DOPE   H2R 6862   6.840   3.730   3.420 -1.3339  0.0006 -2.2557
   54DOPE   H2S 6863   6.783   3.605   3.544 -0.7179 -2.6112 -0.6565
   54DOPE    C3 6864   6.965   3.331   3.187  0.3630  0.1996  0.2370
   54DOPE    HX 6865   7.050   3.399   3.163  1.4674 -1.3975 -0.4981
   54DOPE    HY 6866   6.955   3.264   3.099  2.6158  0.4344 -0.2549
   54DOPE   O31 6867   6.991   3.256   3.309 -0.4273  0.2629  0.0435
   54DOPE   C31 6868   7.034   3.306   3.419  0.1254  0.1725 -0.5017
   54DOPE   O32 6869   7.075   3.421   3.441  0.0160  0.2023  0.4478
   54DOPE   C32 6870   7.017   3.189   3.519 -0.0186  0.2125 -0.6939
   54DOPE   H2X 6871   7.060   3.094   3.480  1.5262  0.4832  0.2848
   54DOPE   H2Y 6872   7.080   3.213   3.608 -1.0712 -1.9789  0.7286
   54DOPE   C23 6873   6.640   3.756   3.504 -0.1317 -0.5117 -0.3412
   54DOPE   H3R 6874   6.545   3.698   3.503 -1.1952  1.1687 -0.1220
   54DOPE   H3S 6875   6.609   3.832   3.429  2.1337  0.2265 -0.6261
   54DOPE   C24 6876   6.669   3.836   3.630 -0.0401  0.1652 -0.8022
   54DOPE   H4R 6877   6.752   3.908   3.617  0.8940 -0.6743  0.1767
   54DOPE   H4S 6878   6.711   3.765   3.705  0.0975  1.2973  0.2172
   54DOPE   C25 6879   6.543   3.910   3.685  0.5511 -0.6589  0.2694
   54DOPE   H5R 6880   6.458   3.839   3.686 -0.1223 -0.0593 -2.8050
   54DOPE   H5S 6881   6.525   3.983   3.603  2.8343 -0.5874 -0.2522
   54DOPE   C26 6882   6.549   3.983   3.820  0.1916 -0.4852 -0.5322
   54DOPE   H6R 6883   6.443   4.004   3.849  0.2453  0.5728 -1.0465
   54DOPE   H6S 6884   6.606   4.078   3.812  2.5627 -1.6543  1.3324
   54DOPE   C27 6885   6.599   3.896   3.941  0.6831  0.4695  0.3745
   54DOPE   H7R 6886   6.696   3.848   3.917 -0.9742 -3.1167  0.2464
   54DOPE   H7S 6887   6.527   3.812   3.930  0.0202  0.9617  0.8553
   54DOPE   C28 6888   6.596   3.973   4.072  0.3258  0.6471  0.6470
   54DOPE   H8R 6889   6.494   4.017   4.074 -1.3327 -2.4118 -2.7911
   54DOPE   H8S 6890   6.680   4.045   4.073 -1.9545  3.5241 -0.6338
   54DOPE   C29 6891   6.604   3.870   4.182 -0.2487  0.2192 -0.3045
   54DOPE   H9R 6892   6.709   3.846   4.206 -0.4561 -0.3966 -0.0012
   54DOPE  C210 6893   6.500   3.818   4.257  0.5318  0.0291  0.1697
   54DOPE  H10R 6894   6.520   3.729   4.319  0.7094 -1.4912 -1.9878
   54DOPE  C211 6895   6.354   3.835   4.234  0.6376 -0.6134 -0.8609
   54DOPE  H11R 6896   6.308   3.786   4.146 -3.2183 -0.4508  0.8820
   54DOPE  H11S 6897   6.336   3.941   4.208  0.1059 -0.4357  0.1835
   54DOPE  C212 6898   6.259   3.801   4.347  0.2819 -0.8832  0.1582
   54DOPE  H12R 6899   6.160   3.836   4.310  0.7309  0.2414 -0.0128
   54DOPE  H12S 6900   6.283   3.864   4.436 -1.3723 -0.8239  0.6008
   54DOPE  C213 6901   6.261   3.655   4.381  0.4810  0.2984 -0.4395
   54DOPE  H13R 6902   6.361   3.606   4.381  0.5634  0.4446  0.4429
   54DOPE  H13S 6903   6.218   3.608   4.290 -0.7465 -0.0281  0.2834
   54DOPE  C214 6904   6.172   3.613   4.500  0.4545  0.1185 -0.3142
   54DOPE  H14R 6905   6.069   3.647   4.477 -0.0704 -1.6571 -0.7366
   54DOPE  H14S 6906   6.211   3.662   4.591 -1.7557  0.4488  0.5052
   54DOPE  C215 6907   6.180   3.463   4.524  0.3794 -0.0704  0.0433
   54DOPE  H15R 6908   6.290   3.448   4.535  0.2770  0.4937  2.4618
   54DOPE  H15S 6909   6.144   3.399   4.441 -0.5700  1.1517 -0.5251
   54DOPE  C216 6910   6.109   3.429   4.649  0.2423  0.3725  0.3396
   54DOPE  H16R 6911   6.157   3.472   4.739 -0.9982  0.3476  1.0388
   54DOPE  H16S 6912   6.113   3.320   4.668 -3.2400 -0.2879 -1.7270
   54DOPE  C217 6913   5.957   3.465   4.652  0.5162 -0.3741  0.3584
   54DOPE  H17R 6914   5.946   3.575   4.661 -3.3898 -0.5368 -0.6818
   54DOPE  H17S 6915   5.894   3.419   4.732 -1.6594  0.0529 -1.0096
   54DOPE  C218 6916   5.882   3.435   4.518  0.1741  0.6418  0.0343
   54DOPE  H18R 6917   5.859   3.328   4.500 -2.2400  0.8765  1.1963
   54DOPE  H18S 6918   5.931   3.487   4.433  0.8060 -0.5391 -0.3514
   54DOPE  H18T 6919   5.782   3.484   4.531 -0.4207 -0.1686 -1.2621
   54DOPE   C33 6920   6.870   3.171   3.560  0.0515  0.1031 -0.2938
   54DOPE   H3X 6921   6.851   3.077   3.615 -1.5304  1.0482  0.8792
   54DOPE   H3Y 6922   6.819   3.164   3.461  2.0591 -3.8242 -1.2239
   54DOPE   C34 6923   6.825   3.291   3.630 -0.7077 -0.5391  0.4342
   54DOPE   H4X 6924   6.900   3.314   3.709  1.1762 -0.3958 -1.2873
   54DOPE   H4Y 6925   6.825   3.382   3.566  0.5706 -0.5928  0.3267
   54DOPE   C35 6926   6.688   3.262   3.696 -0.2476 -0.4736  0.0010
   54DOPE   H5X 6927   6.709   3.189   3.777  4.4726 -0.9891 -1.3743
   54DOPE   H5Y 6928   6.625   3.221   3.614  1.6684 -0.4414 -1.5801
   54DOPE   C36 6929   6.619   3.389   3.748  0.4521  0.2501  0.4315
   54DOPE   H6X 6930   6.607   3.464   3.667 -1.7555 -0.4827 -0.0142
   54DOPE   H6Y 6931   6.673   3.429   3.836  1.3095 -1.4961  0.7522
   54DOPE   C37 6932   6.474   3.355   3.801  0.1379 -0.3098  0.8104
   54DOPE   H7X 6933   6.427   3.323   3.706  2.1658 -1.2635  0.0732
   54DOPE   H7Y 6934   6.478   3.268   3.871  0.7077 -0.4060  0.6591
   54DOPE   C38 6935   6.395   3.470   3.861  0.1891  0.0125  1.2139
   54DOPE   H8X 6936   6.287   3.447   3.871  0.2417  0.1573  2.2748
   54DOPE   H8Y 6937   6.401   3.559   3.795 -1.1813 -0.7534 -0.0078
   54DOPE   C39 6938   6.443   3.510   3.997 -0.7988 -0.3923  0.3158
   54DOPE   H9X 6939   6.523   3.585   4.001 -1.6516  0.5148  0.7058
   54DOPE  C310 6940   6.407   3.461   4.113  0.5344  0.5801  0.0533
   54DOPE  H10X 6941   6.454   3.499   4.204  1.0328 -2.5843  1.2454
   54DOPE  C311 6942   6.315   3.346   4.140  0.1347 -0.5353  0.4876
   54DOPE  H11X 6943   6.241   3.376   4.217 -1.3254 -3.4762  0.3634
   54DOPE  H11Y 6944   6.251   3.319   4.053 -0.3849  2.6659 -0.2630
   54DOPE  C312 6945   6.387   3.220   4.186 -0.1267 -0.6641 -0.2101
   54DOPE  H12X 6946   6.468   3.186   4.119 -1.0738 -0.0553 -1.7005
   54DOPE  H12Y 6947   6.320   3.131   4.188  0.2699 -0.9526  0.3319
   54DOPE  C313 6948   6.444   3.248   4.323 -0.1326 -0.4462 -0.1791
   54DOPE  H13X 6949   6.492   3.347   4.338 -1.6313  0.5563 -1.6631
   54DOPE  H13Y 6950   6.357   3.254   4.393 -0.0394 -0.8624 -0.0241
   54DOPE  C314 6951   6.530   3.136   4.375  0.3423  0.5475 -0.2713
   54DOPE  H14X 6952   6.626   3.129   4.319  0.2771  1.4379 -0.5041
   54DOPE  H14Y 6953   6.477   3.041   4.354 -0.9596  0.5946  2.3874
   54DOPE  C315 6954   6.563   3.120   4.525  0.3000  0.6256  0.4035
   54DOPE  H15X 6955   6.471   3.126   4.588  0.8468  1.8951  1.1207
   54DOPE  H15Y 6956   6.633   3.201   4.556  1.9962 -0.5192 -0.2900
   54DOPE  C316 6957   6.627   2.989   4.551 -0.4571  0.9260 -0.0439
   54DOPE  H16X 6958   6.587   2.909   4.485  1.9791  0.2222 -0.7691
   54DOPE  H16Y 6959   6.595   2.955   4.652 -1.3867  1.6644 -0.0800
   54DOPE  C317 6960   6.777   2.984   4.531  0.0142 -0.0019 -0.2438
   54DOPE  H17X 6961   6.795   3.035   4.434  1.3286  2.2327  1.0976
   54DOPE  H17Y 6962   6.816   3.046   4.614 -0.9039  0.2977 -0.0286
   54DOPE  C318 6963   6.848   2.848   4.535 -0.0166  0.6532  0.3541
   54DOPE  H18X 6964   6.833   2.776   4.452 -0.0843 -1.4562  2.1243
   54DOPE  H18Y 6965   6.958   2.861   4.533  0.0643 -0.0760 -0.9395
   54DOPE  H18Z 6966   6.817   2.791   4.625  0.2938 -0.1349 -0.0358
   55DOPE     N 6967   0.626   5.783   2.539 -0.1429  0.1386  0.4133
   55DOPE   HN1 6968   0.688   5.853   2.493 -1.5093  0.1337 -1.5524
   55DOPE   HN2 6969   0.662   5.696   2.494 -0.4545  1.2672 -2.2037
   55DOPE   HN3 6970   0.531   5.793   2.499  0.8594 -1.1713 -2.6311
   55DOPE   C12 6971   0.627   5.792   2.693 -0.4471  0.1654 -0.1054
   55DOPE  H12A 6972   0.546   5.722   2.724 -0.0455 -0.4795 -0.4963
   55DOPE  H12B 6973   0.613   5.901   2.713  1.5358  0.1196  1.9384
   55DOPE   C11 6974   0.766   5.744   2.747  0.3275  0.2536 -0.2161
   55DOPE  H11A 6975   0.753   5.748   2.857  0.1264  0.3665 -0.2436
   55DOPE  H11B 6976   0.843   5.821   2.726  1.2280 -0.1121  1.5710
   55DOPE     P 6977   0.913   5.537   2.769  0.8684  0.4762 -0.3749
   55DOPE   O13 6978   1.050   5.576   2.733 -0.2026  0.8595 -0.3286
   55DOPE   O14 6979   0.876   5.399   2.750  0.2010 -0.1293 -0.2277
   55DOPE   O11 6980   0.893   5.573   2.918  0.0923 -0.0655 -0.4389
   55DOPE   O12 6981   0.807   5.618   2.694  0.6669  0.5939  0.4895
   55DOPE    C1 6982   1.007   5.625   2.994  0.6234 -0.1156 -0.2248
   55DOPE    HA 6983   1.050   5.718   2.952 -1.6055  0.3804 -1.5120
   55DOPE    HB 6984   1.095   5.556   2.993  1.3361  0.7543  0.2860
   55DOPE    C2 6985   0.958   5.639   3.138  0.2334 -1.5206 -0.6447
   55DOPE    HS 6986   0.880   5.560   3.152 -0.4993 -1.4174 -3.5129
   55DOPE   O21 6987   0.906   5.781   3.148  0.1506  0.2130 -0.0076
   55DOPE   C21 6988   0.803   5.789   3.225 -0.3809  0.5793 -0.1033
   55DOPE   O22 6989   0.745   5.693   3.280  0.8895  0.2280 -0.3446
   55DOPE   C22 6990   0.767   5.934   3.249 -0.0605  0.7668 -0.5234
   55DOPE   H2R 6991   0.656   5.942   3.257 -0.3823 -0.3861 -2.8491
   55DOPE   H2S 6992   0.790   5.988   3.154 -3.2467  0.2616 -1.7201
   55DOPE    C3 6993   1.084   5.621   3.236 -0.2978  0.2012 -0.0864
   55DOPE    HX 6994   1.156   5.705   3.225  1.1601 -1.1892 -1.6717
   55DOPE    HY 6995   1.141   5.530   3.210 -0.7216 -0.4201  1.0827
   55DOPE   O31 6996   1.048   5.608   3.375 -0.4787 -0.6885  0.3285
   55DOPE   C31 6997   0.978   5.499   3.404  0.1096  0.2171 -0.6749
   55DOPE   O32 6998   0.960   5.401   3.334  0.5095 -0.1418  0.1434
   55DOPE   C32 6999   0.913   5.514   3.544 -0.0651  0.7793  0.9213
   55DOPE   H2X 7000   0.980   5.577   3.606  0.8806 -0.0290  0.7573
   55DOPE   H2Y 7001   0.823   5.573   3.519 -0.4588  0.2234  0.9981
   55DOPE   C23 7002   0.853   6.002   3.359 -0.4025  0.2154 -0.2732
   55DOPE   H3R 7003   0.836   6.112   3.367 -0.9385 -0.0071  2.6752
   55DOPE   H3S 7004   0.957   5.995   3.320 -0.5653 -0.3480 -0.6102
   55DOPE   C24 7005   0.846   5.944   3.494  0.2306  0.5022 -1.0011
   55DOPE   H4R 7006   0.921   5.983   3.565  0.5612 -0.7804 -0.6106
   55DOPE   H4S 7007   0.874   5.836   3.489 -0.6242  0.1162  1.2430
   55DOPE   C25 7008   0.708   5.973   3.567 -0.2123  0.0480  0.2480
   55DOPE   H5R 7009   0.621   5.965   3.498 -1.8981  2.3783  1.8865
   55DOPE   H5S 7010   0.715   6.082   3.587 -0.8798  0.2761 -0.6681
   55DOPE   C26 7011   0.669   5.885   3.687 -0.5990  0.2831  0.6471
   55DOPE   H6R 7012   0.608   5.940   3.762 -0.3674  2.1571 -0.4598
   55DOPE   H6S 7013   0.766   5.858   3.732  1.3242 -0.6010 -3.5768
   55DOPE   C27 7014   0.594   5.760   3.636  0.8657 -0.0032  1.1554
   55DOPE   H7R 7015   0.640   5.714   3.545 -1.0246  2.5066 -1.2692
   55DOPE   H7S 7016   0.491   5.784   3.603  1.5420  0.8780 -0.4444
   55DOPE   C28 7017   0.576   5.645   3.743  0.0414 -0.6902 -0.1870
   55DOPE   H8R 7018   0.670   5.586   3.748  1.5826  1.1412 -3.9318
   55DOPE   H8S 7019   0.505   5.577   3.692 -0.9719 -0.4858  0.9045
   55DOPE   C29 7020   0.523   5.682   3.884  0.2626  0.3762  0.1348
   55DOPE   H9R 7021   0.413   5.683   3.876  0.3385  0.5725 -1.0323
   55DOPE  C210 7022   0.596   5.683   3.997 -0.3376 -0.2717 -0.3044
   55DOPE  H10R 7023   0.549   5.721   4.089  0.7433  0.1862  0.0780
   55DOPE  C211 7024   0.740   5.659   4.012 -0.5723  0.0917  0.2311
   55DOPE  H11R 7025   0.804   5.736   4.061  0.6006  0.4931 -1.8335
   55DOPE  H11S 7026   0.797   5.641   3.919 -1.8768 -2.9783 -0.0628
   55DOPE  C212 7027   0.767   5.532   4.099 -0.0339  0.1615 -0.6336
   55DOPE  H12R 7028   0.725   5.540   4.202  3.4178 -1.7669  1.1170
   55DOPE  H12S 7029   0.875   5.510   4.117 -0.4832 -0.5354  1.5844
   55DOPE  C213 7030   0.712   5.410   4.023  0.4271  0.3376 -0.7337
   55DOPE  H13R 7031   0.785   5.382   3.943  1.5751  1.6001 -0.1699
   55DOPE  H13S 7032   0.611   5.427   3.979 -0.7451  0.7694  1.9038
   55DOPE  C214 7033   0.692   5.286   4.124 -0.9223 -0.5414 -0.6796
   55DOPE  H14R 7034   0.608   5.320   4.187  0.8736  0.2408  1.4434
   55DOPE  H14S 7035   0.773   5.285   4.201 -1.4228 -0.4580 -0.1489
   55DOPE  C215 7036   0.658   5.166   4.046  0.8410  0.7339  0.2971
   55DOPE  H15R 7037   0.741   5.135   3.980  1.0821  1.4505  0.2575
   55DOPE  H15S 7038   0.577   5.195   3.975  1.8255 -0.4796 -1.3840
   55DOPE  C216 7039   0.616   5.038   4.131  0.4306 -0.3930 -0.0044
   55DOPE  H16R 7040   0.528   5.068   4.192  1.5744  1.2328  0.9418
   55DOPE  H16S 7041   0.693   5.027   4.211 -0.7952  2.5453  1.7219
   55DOPE  C217 7042   0.602   4.912   4.046 -0.5124  0.5515 -0.1909
   55DOPE  H17R 7043   0.685   4.914   3.972  0.1146  0.6798  0.5083
   55DOPE  H17S 7044   0.509   4.908   3.985 -1.7483  2.2869  1.4661
   55DOPE  C218 7045   0.620   4.780   4.119 -0.6506 -0.0965  0.1441
   55DOPE  H18R 7046   0.719   4.772   4.169 -0.5854 -2.9508 -0.2934
   55DOPE  H18S 7047   0.608   4.692   4.053 -0.6705 -0.7657  1.0165
   55DOPE  H18T 7048   0.543   4.771   4.199  0.9432  0.8487  1.8703
   55DOPE   C33 7049   0.876   5.383   3.619 -0.0143 -0.3727  0.3131
   55DOPE   H3X 7050   0.836   5.306   3.550  0.5716  1.1904 -1.8859
   55DOPE   H3Y 7051   0.788   5.405   3.684 -1.3076  0.1117 -1.5151
   55DOPE   C34 7052   0.995   5.322   3.695 -0.6271  0.1016 -0.2864
   55DOPE   H4X 7053   0.964   5.230   3.750  2.4558 -0.1963  1.1767
   55DOPE   H4Y 7054   1.067   5.297   3.615 -1.2847 -0.5916 -0.6800
   55DOPE   C35 7055   1.047   5.420   3.804  0.5393  0.2046 -0.4329
   55DOPE   H5X 7056   0.954   5.441   3.861  0.3997  1.7761 -1.1801
   55DOPE   H5Y 7057   1.095   5.508   3.756  0.8927 -1.3661 -3.1949
   55DOPE   C36 7058   1.145   5.361   3.902 -0.8776  0.4188 -0.0103
   55DOPE   H6X 7059   1.094   5.288   3.969 -1.1211 -0.5327 -1.2002
   55DOPE   H6Y 7060   1.172   5.450   3.962  0.6236  1.0534 -1.5495
   55DOPE   C37 7061   1.274   5.300   3.834 -0.9876  0.9034  0.2434
   55DOPE   H7X 7062   1.251   5.210   3.774  0.4624  1.5628 -1.4021
   55DOPE   H7Y 7063   1.314   5.369   3.757 -0.7249  0.2311 -0.2169
   55DOPE   C38 7064   1.372   5.258   3.938 -0.3273  0.6600  0.0892
   55DOPE   H8X 7065   1.311   5.193   4.005  0.5613  0.8789  1.1392
   55DOPE   H8Y 7066   1.387   5.345   4.006 -0.2940  0.7011  0.0293
   55DOPE   C39 7067   1.497   5.193   3.877  0.1327 -0.3042 -0.0330
   55DOPE   H9X 7068   1.492   5.091   3.836 -0.8634 -0.3284  0.1395
   55DOPE  C310 7069   1.613   5.255   3.880  0.4235 -0.2305 -0.2461
   55DOPE  H10X 7070   1.704   5.206   3.843 -0.1106 -1.3865 -0.0597
   55DOPE  C311 7071   1.646   5.395   3.920 -0.7582  0.6807 -0.3941
   55DOPE  H11X 7072   1.720   5.440   3.851 -1.2291  2.5839  0.2778
   55DOPE  H11Y 7073   1.563   5.466   3.900 -0.0666  0.9298 -2.6303
   55DOPE  C312 7074   1.695   5.428   4.066 -0.7860  0.0715  0.0973
   55DOPE  H12X 7075   1.629   5.396   4.149  1.1447 -2.6716  0.7034
   55DOPE  H12Y 7076   1.711   5.538   4.071 -0.6441  0.1396 -1.4292
   55DOPE  C313 7077   1.836   5.371   4.086  0.2418 -0.2007  0.0479
   55DOPE  H13X 7078   1.842   5.272   4.035 -2.1127 -1.0492  1.2556
   55DOPE  H13Y 7079   1.915   5.441   4.052 -1.9009  1.7066 -1.2415
   55DOPE  C314 7080   1.859   5.340   4.233 -0.5573  0.4216  1.1219
   55DOPE  H14X 7081   1.770   5.285   4.270  0.3674 -1.7520  0.3174
   55DOPE  H14Y 7082   1.873   5.438   4.283 -0.7276  0.6951  0.6345
   55DOPE  C315 7083   1.969   5.229   4.246 -0.2894 -0.2178 -0.1854
   55DOPE  H15X 7084   2.046   5.253   4.169  0.0516 -2.5826 -0.6583
   55DOPE  H15Y 7085   1.917   5.144   4.197 -0.0797  0.7692 -2.2442
   55DOPE  C316 7086   2.032   5.207   4.378  0.3681 -0.6593  0.2507
   55DOPE  H16X 7087   2.111   5.129   4.368  2.1237  1.0823 -0.2264
   55DOPE  H16Y 7088   1.962   5.160   4.450  1.0117 -1.4286  0.3965
   55DOPE  C317 7089   2.077   5.331   4.446  0.0202 -0.1556  0.2282
   55DOPE  H17X 7090   2.132   5.392   4.371  1.3666 -1.3283  0.2211
   55DOPE  H17Y 7091   1.987   5.382   4.485  1.1147  1.9834  0.1171
   55DOPE  C318 7092   2.172   5.309   4.567  0.5406  1.7583  0.3919
   55DOPE  H18X 7093   2.130   5.231   4.634  0.9485  1.5928  0.4608
   55DOPE  H18Y 7094   2.270   5.268   4.533 -0.4880 -2.3465  1.8019
   55DOPE  H18Z 7095   2.194   5.405   4.617  0.2062  0.8328  2.4139
   56DOPE     N 7096   0.534   7.106   2.454  0.1827 -0.4887  0.3331
   56DOPE   HN1 7097   0.634   7.096   2.428  0.5505  1.8160  0.6757
   56DOPE   HN2 7098   0.476   7.063   2.379 -0.4534  0.5425  0.2083
   56DOPE   HN3 7099   0.509   7.207   2.442  1.2747 -0.1328  0.9570
   56DOPE   C12 7100   0.499   7.049   2.590  0.5781 -0.5948  0.3520
   56DOPE  H12A 7101   0.527   6.942   2.579 -0.3164 -0.7738 -0.3049
   56DOPE  H12B 7102   0.391   7.063   2.612  1.2862  3.0438  2.3757
   56DOPE   C11 7103   0.584   7.118   2.701  0.2895  0.0664 -0.3386
   56DOPE  H11A 7104   0.692   7.115   2.674  0.6256  0.7653  0.8845
   56DOPE  H11B 7105   0.565   7.066   2.797 -0.7687 -0.8269 -1.0035
   56DOPE     P 7106   0.633   7.328   2.846 -0.2999  0.0173 -0.4153
   56DOPE   O13 7107   0.539   7.328   2.958 -0.2921 -0.3119 -0.2393
   56DOPE   O14 7108   0.692   7.459   2.803  0.7211 -0.0180  0.3462
   56DOPE   O11 7109   0.753   7.230   2.881 -0.1244  0.5811 -0.2239
   56DOPE   O12 7110   0.560   7.257   2.712  0.1617 -0.0394 -0.6655
   56DOPE    C1 7111   0.880   7.249   2.817 -0.2572  0.3029  0.5134
   56DOPE    HA 7112   0.883   7.325   2.735  0.8199 -0.7631 -0.4655
   56DOPE    HB 7113   0.911   7.149   2.780  1.8269  1.0271  0.1950
   56DOPE    C2 7114   0.991   7.298   2.911 -0.7154  0.3397 -0.7928
   56DOPE    HS 7115   1.084   7.298   2.851 -1.0019  1.0337 -1.2502
   56DOPE   O21 7116   1.001   7.203   3.019  0.1450  0.2882  0.0594
   56DOPE   C21 7117   1.111   7.209   3.090 -0.1069 -0.6620  0.1519
   56DOPE   O22 7118   1.218   7.257   3.050 -0.1040 -0.0072 -0.4895
   56DOPE   C22 7119   1.110   7.106   3.212  0.2397 -0.7719  0.1742
   56DOPE   H2R 7120   1.053   7.014   3.186 -0.9695  0.0234 -0.0392
   56DOPE   H2S 7121   1.057   7.157   3.295  1.0204 -1.1474  0.9234
   56DOPE    C3 7122   0.964   7.442   2.963 -0.1413  0.1302  0.2658
   56DOPE    HX 7123   0.858   7.452   2.993 -0.7608  4.6200 -2.4674
   56DOPE    HY 7124   0.948   7.515   2.881 -0.3036 -0.8170 -0.5718
   56DOPE   O31 7125   1.046   7.502   3.068 -0.0589 -0.1129 -0.5218
   56DOPE   C31 7126   1.158   7.557   3.020 -0.0690 -1.2087 -0.6474
   56DOPE   O32 7127   1.193   7.551   2.905 -0.4785 -0.4657  0.2824
   56DOPE   C32 7128   1.222   7.642   3.127 -0.4229  0.4473 -0.6152
   56DOPE   H2X 7129   1.301   7.711   3.091  2.2150 -1.0163  1.8797
   56DOPE   H2Y 7130   1.157   7.697   3.198  1.1553  0.7681  0.6549
   56DOPE   C23 7131   1.253   7.085   3.266  0.4260 -0.1055  0.5394
   56DOPE   H3R 7132   1.294   7.183   3.298 -0.2390 -0.5595  2.9414
   56DOPE   H3S 7133   1.329   7.041   3.197  0.9224 -2.4691  2.4453
   56DOPE   C24 7134   1.235   6.988   3.382  0.7041 -1.1014 -0.9302
   56DOPE   H4R 7135   1.194   6.895   3.338 -1.6317 -1.5916  1.9577
   56DOPE   H4S 7136   1.160   7.024   3.456  1.1046  0.0102 -1.0464
   56DOPE   C25 7137   1.363   6.962   3.472 -0.2106 -0.3937 -0.7333
   56DOPE   H5R 7138   1.400   7.059   3.511 -0.3994 -0.0681 -1.3377
   56DOPE   H5S 7139   1.440   6.909   3.412  0.8115  0.5462 -0.2915
   56DOPE   C26 7140   1.329   6.877   3.596 -0.6903  0.9279  0.2934
   56DOPE   H6R 7141   1.234   6.915   3.638 -0.4335  0.0663  1.7084
   56DOPE   H6S 7142   1.413   6.898   3.666  1.7940 -0.8096 -1.9402
   56DOPE   C27 7143   1.322   6.729   3.565  0.2665  0.0048 -0.5387
   56DOPE   H7R 7144   1.422   6.683   3.561 -0.8711 -2.5544 -1.1955
   56DOPE   H7S 7145   1.269   6.720   3.467 -0.4060 -0.5000 -0.1301
   56DOPE   C28 7146   1.243   6.641   3.666  0.1738  0.0411  0.5029
   56DOPE   H8R 7147   1.136   6.669   3.666  0.3532  0.7523  0.6721
   56DOPE   H8S 7148   1.274   6.664   3.770 -4.5158 -0.4662  2.2368
   56DOPE   C29 7149   1.270   6.495   3.635 -0.2598  0.7024  0.1920
   56DOPE   H9R 7150   1.367   6.455   3.669 -0.3878  1.1833  1.1564
   56DOPE  C210 7151   1.185   6.414   3.572  0.2630 -0.2732  0.4208
   56DOPE  H10R 7152   1.213   6.307   3.569 -0.5735 -0.5092  0.6725
   56DOPE  C211 7153   1.041   6.439   3.528  0.0781 -0.3215  1.0050
   56DOPE  H11R 7154   1.034   6.412   3.420 -0.9201 -0.8421  1.1928
   56DOPE  H11S 7155   1.008   6.544   3.536 -0.0607 -0.5064  4.0060
   56DOPE  C212 7156   0.940   6.349   3.602 -0.1355 -0.0812  0.4486
   56DOPE  H12R 7157   0.941   6.246   3.560 -2.1502 -0.2373  0.7043
   56DOPE  H12S 7158   0.834   6.376   3.583 -0.3473  0.3164  2.0191
   56DOPE  C213 7159   0.960   6.336   3.754  0.0072 -0.3122  0.5279
   56DOPE  H13R 7160   0.944   6.438   3.794 -0.5829 -0.7757  1.5021
   56DOPE  H13S 7161   1.057   6.288   3.781 -0.2264 -1.3438 -0.4099
   56DOPE  C214 7162   0.866   6.229   3.823 -0.7289  0.1999  0.4919
   56DOPE  H14R 7163   0.879   6.134   3.767 -0.6196  0.4617  0.0706
   56DOPE  H14S 7164   0.758   6.257   3.823 -0.0903  2.9594  1.0679
   56DOPE  C215 7165   0.898   6.219   3.975 -0.3693  0.3107  0.4663
   56DOPE  H15R 7166   0.905   6.321   4.019  2.9455 -0.4546  2.0863
   56DOPE  H15S 7167   1.004   6.185   3.979 -0.6289 -0.4557  1.2195
   56DOPE  C216 7168   0.797   6.129   4.053 -0.0400  0.6783  0.1401
   56DOPE  H16R 7169   0.791   6.038   3.990  1.5199  0.0137  0.9075
   56DOPE  H16S 7170   0.702   6.186   4.057 -0.3886  0.1720 -0.6655
   56DOPE  C217 7171   0.841   6.113   4.196  0.0087  0.2780 -0.3800
   56DOPE  H17R 7172   0.819   6.208   4.249 -3.1275 -1.2360  1.3202
   56DOPE  H17S 7173   0.948   6.093   4.176 -0.3033 -1.7707 -0.2420
   56DOPE  C218 7174   0.772   5.991   4.267  0.1705  0.2138 -1.1295
   56DOPE  H18R 7175   0.663   6.007   4.280 -0.1369 -0.8163 -2.3234
   56DOPE  H18S 7176   0.828   5.966   4.360 -0.7013  0.2404 -0.5795
   56DOPE  H18T 7177   0.775   5.898   4.206 -2.1047 -2.3933  2.3037
   56DOPE   C33 7178   1.290   7.540   3.226  0.0724 -0.1138  0.3101
   56DOPE   H3X 7179   1.372   7.475   3.189  1.4484  0.7240  1.8053
   56DOPE   H3Y 7180   1.205   7.481   3.267  0.0784  0.0202  0.5139
   56DOPE   C34 7181   1.357   7.601   3.350 -0.5825 -0.4243 -0.8195
   56DOPE   H4X 7182   1.294   7.678   3.399 -1.6856 -1.1755 -1.0160
   56DOPE   H4Y 7183   1.393   7.531   3.428  0.5584  1.4732  0.4150
   56DOPE   C35 7184   1.489   7.680   3.306  0.4983  0.4703  0.1207
   56DOPE   H5X 7185   1.459   7.761   3.236 -0.1312  1.6936  1.7422
   56DOPE   H5Y 7186   1.551   7.613   3.243  0.5668  1.8418 -1.3215
   56DOPE   C36 7187   1.576   7.752   3.414  0.2652  0.2557  0.1133
   56DOPE   H6X 7188   1.508   7.815   3.475  1.8651  3.1246 -0.8477
   56DOPE   H6Y 7189   1.648   7.829   3.380  0.0921  0.9926  1.3448
   56DOPE   C37 7190   1.630   7.658   3.518 -0.2010 -0.6318  0.2157
   56DOPE   H7X 7191   1.557   7.580   3.547  1.6794 -2.1322  1.1042
   56DOPE   H7Y 7192   1.699   7.604   3.451  1.4910  1.5672  0.0564
   56DOPE   C38 7193   1.712   7.707   3.630  0.2595  0.8389  0.2394
   56DOPE   H8X 7194   1.792   7.777   3.598  0.8516 -0.4030 -1.1120
   56DOPE   H8Y 7195   1.757   7.607   3.646  0.1067  1.1110  2.7277
   56DOPE   C39 7196   1.624   7.753   3.739  0.1349  0.9746 -0.1241
   56DOPE   H9X 7197   1.521   7.782   3.712 -0.0415 -0.4639 -1.1134
   56DOPE  C310 7198   1.661   7.769   3.870  1.4402 -0.2232 -0.1653
   56DOPE  H10X 7199   1.591   7.808   3.946  1.0252 -2.2766  0.5483
   56DOPE  C311 7200   1.799   7.724   3.923  0.6841 -0.2139  0.1595
   56DOPE  H11X 7201   1.888   7.747   3.862  0.0064 -1.2574 -1.2974
   56DOPE  H11Y 7202   1.800   7.780   4.018 -1.4636 -1.7254  1.1757
   56DOPE  C312 7203   1.809   7.566   3.950  0.7996 -0.3586  0.3004
   56DOPE  H12X 7204   1.843   7.507   3.862  0.4830 -1.5893  0.9733
   56DOPE  H12Y 7205   1.703   7.534   3.961 -0.3354  2.6170 -0.9337
   56DOPE  C313 7206   1.890   7.522   4.070 -0.4680 -0.4775  0.5674
   56DOPE  H13X 7207   1.963   7.606   4.082 -1.1487  0.1023  0.7361
   56DOPE  H13Y 7208   1.819   7.522   4.155 -0.7099  2.3143  0.4856
   56DOPE  C314 7209   1.982   7.398   4.057  0.3412  0.2503 -0.7471
   56DOPE  H14X 7210   2.030   7.402   3.957  1.8724  0.9914 -0.0039
   56DOPE  H14Y 7211   1.915   7.309   4.055 -2.4049  2.2051 -2.4863
   56DOPE  C315 7212   2.079   7.387   4.167  0.5548  0.4899  0.2131
   56DOPE  H15X 7213   2.118   7.487   4.197  1.8180 -0.0319  0.3864
   56DOPE  H15Y 7214   2.160   7.320   4.129  0.7897 -0.1679  1.8096
   56DOPE  C316 7215   2.010   7.318   4.289  0.0768  0.0868  0.1169
   56DOPE  H16X 7216   1.972   7.219   4.255  1.2404 -0.4168  0.2345
   56DOPE  H16Y 7217   1.918   7.379   4.303  1.0644  1.7541 -0.3909
   56DOPE  C317 7218   2.096   7.321   4.411  0.2281  0.1870 -0.6321
   56DOPE  H17X 7219   2.181   7.252   4.393  0.3916  0.5484 -1.2708
   56DOPE  H17Y 7220   2.133   7.425   4.420  0.9353 -0.1166  0.0870
   56DOPE  C318 7221   2.026   7.290   4.545  0.1476  0.8653  0.1104
   56DOPE  H18X 7222   1.932   7.349   4.555 -0.9946 -1.0804  1.5566
   56DOPE  H18Y 7223   2.000   7.182   4.556 -0.0362  1.0336  1.4855
   56DOPE  H18Z 7224   2.094   7.305   4.632 -0.4708 -0.8368  0.9406
   57DOPE     N 7225   6.706   1.576   2.749 -0.4562  0.2931 -0.2273
   57DOPE   HN1 7226   6.632   1.508   2.776  0.1367  0.2226  1.3629
   57DOPE   HN2 7227   6.721   1.597   2.649  0.1473  2.8027  0.3350
   57DOPE   HN3 7228   6.794   1.533   2.786 -0.1857  1.3041  0.3474
   57DOPE   C12 7229   6.683   1.693   2.840  0.2364  0.1287 -0.1861
   57DOPE  H12A 7230   6.738   1.683   2.936 -0.2191 -0.4364  0.0236
   57DOPE  H12B 7231   6.573   1.689   2.858  0.4253 -2.4160  0.9340
   57DOPE   C11 7232   6.719   1.824   2.777  0.2214  0.1978  0.2825
   57DOPE  H11A 7233   6.826   1.821   2.746 -0.0262 -1.3125 -0.4953
   57DOPE  H11B 7234   6.708   1.902   2.856  0.2493 -0.9142  1.4064
   57DOPE     P 7235   6.486   1.889   2.670 -0.1579 -0.2152 -0.0405
   57DOPE   O13 7236   6.404   1.772   2.617  0.8491  0.5047 -0.0459
   57DOPE   O14 7237   6.471   2.020   2.598  0.4857  0.2414 -0.1601
   57DOPE   O11 7238   6.453   1.915   2.823  0.3957  0.0777 -0.4713
   57DOPE   O12 7239   6.645   1.851   2.657  0.1653 -0.5105 -0.2784
   57DOPE    C1 7240   6.344   1.996   2.876  0.2151 -0.6473  0.5372
   57DOPE    HA 7241   6.288   2.044   2.792 -0.2453 -0.4575  0.9465
   57DOPE    HB 7242   6.389   2.076   2.938  1.2946 -1.0010  0.2270
   57DOPE    C2 7243   6.256   1.901   2.966  0.2442 -0.4424 -0.7056
   57DOPE    HS 7244   6.223   1.818   2.900 -0.8274  0.3521 -1.1932
   57DOPE   O21 7245   6.143   1.970   3.024  0.6855 -0.2393 -0.5143
   57DOPE   C21 7246   6.049   1.886   3.073  0.3142 -0.0805  0.5485
   57DOPE   O22 7247   6.050   1.765   3.073  0.1352  0.1863 -0.4715
   57DOPE   C22 7248   5.943   1.976   3.146  0.0685  0.1152  0.8071
   57DOPE   H2R 7249   5.852   1.981   3.083 -0.8200  1.5360  2.1195
   57DOPE   H2S 7250   5.988   2.078   3.150  0.0335  0.3876 -2.7385
   57DOPE    C3 7251   6.341   1.833   3.080  0.7751  0.4895 -0.1461
   57DOPE    HX 7252   6.419   1.770   3.032 -0.4003 -0.8801 -0.3033
   57DOPE    HY 7253   6.273   1.762   3.131 -0.1229  1.1470 -0.4106
   57DOPE   O31 7254   6.395   1.931   3.171 -0.2741 -0.5721 -0.2615
   57DOPE   C31 7255   6.420   1.884   3.293 -0.4036 -0.2859 -0.9893
   57DOPE   O32 7256   6.418   1.766   3.331 -0.4088 -0.7504 -0.8399
   57DOPE   C32 7257   6.448   1.996   3.397 -0.0142 -0.1084 -0.5022
   57DOPE   H2X 7258   6.512   2.078   3.357  0.1688  0.6582  1.2556
   57DOPE   H2Y 7259   6.350   2.039   3.426  0.1147 -1.0373  1.4559
   57DOPE   C23 7260   5.913   1.921   3.289  0.1718 -0.5785 -0.6938
   57DOPE   H3R 7261   5.860   1.824   3.291 -0.7841 -0.0795 -1.3369
   57DOPE   H3S 7262   5.842   1.992   3.337  2.3057 -0.2219  2.2541
   57DOPE   C24 7263   6.039   1.911   3.378  0.3812  0.2998  0.3980
   57DOPE   H4R 7264   6.097   2.005   3.369  1.0947 -0.1047  0.7154
   57DOPE   H4S 7265   6.109   1.835   3.336  2.7135  2.5371  0.0092
   57DOPE   C25 7266   6.006   1.880   3.527 -0.3029  0.2674 -0.0394
   57DOPE   H5R 7267   5.952   1.783   3.533  0.9791 -0.5355 -1.0765
   57DOPE   H5S 7268   5.927   1.946   3.568 -0.4213  0.2364 -0.2137
   57DOPE   C26 7269   6.115   1.895   3.634 -0.3031 -0.6779 -0.1622
   57DOPE   H6R 7270   6.171   1.991   3.628 -2.3221  0.5804 -0.2197
   57DOPE   H6S 7271   6.202   1.826   3.636  0.3541  0.1458  1.5867
   57DOPE   C27 7272   6.046   1.888   3.773  0.0703 -0.1263 -0.0218
   57DOPE   H7R 7273   6.000   1.789   3.786 -1.6567  1.0262  4.3620
   57DOPE   H7S 7274   5.968   1.967   3.773  0.0801 -0.1168 -0.1157
   57DOPE   C28 7275   6.142   1.902   3.894  0.3967 -0.0498  0.0990
   57DOPE   H8R 7276   6.205   1.993   3.886  0.4088 -0.1521 -1.2690
   57DOPE   H8S 7277   6.219   1.821   3.896 -0.9514 -1.3736  0.3027
   57DOPE   C29 7278   6.054   1.907   4.019 -0.3806  0.2716  0.0249
   57DOPE   H9R 7279   5.965   1.970   4.011 -1.3677 -1.2515 -1.6131
   57DOPE  C210 7280   6.062   1.820   4.123 -0.0626 -0.3217  0.5998
   57DOPE  H10R 7281   5.988   1.822   4.204 -2.0691 -0.2078 -1.1539
   57DOPE  C211 7282   6.172   1.716   4.139 -0.2919  0.1660  0.2107
   57DOPE  H11R 7283   6.265   1.770   4.166 -0.2838  1.1389 -1.5910
   57DOPE  H11S 7284   6.185   1.653   4.049  1.4184 -1.1169  1.3100
   57DOPE  C212 7285   6.138   1.612   4.246  0.6218  0.9241  0.1073
   57DOPE  H12R 7286   6.072   1.540   4.193  1.0026  0.4713  0.2461
   57DOPE  H12S 7287   6.067   1.643   4.326 -0.3232 -2.2512  0.6340
   57DOPE  C213 7288   6.263   1.562   4.312 -0.5299  0.3074 -0.0102
   57DOPE  H13R 7289   6.313   1.643   4.370  2.7932 -1.2830 -0.3798
   57DOPE  H13S 7290   6.342   1.545   4.235 -0.3195 -0.1212  0.2976
   57DOPE  C214 7291   6.235   1.446   4.411  1.0650 -0.4550  1.5743
   57DOPE  H14R 7292   6.326   1.392   4.444  2.2690 -0.5933 -1.6123
   57DOPE  H14S 7293   6.175   1.363   4.368 -0.4202  0.6147  1.5082
   57DOPE  C215 7294   6.159   1.486   4.535 -0.5547 -0.2571 -0.5436
   57DOPE  H15R 7295   6.057   1.528   4.519 -1.3880 -1.5946  0.9326
   57DOPE  H15S 7296   6.218   1.563   4.589 -0.4418 -1.1174  0.5813
   57DOPE  C216 7297   6.142   1.368   4.636 -0.4317 -0.4208  0.4194
   57DOPE  H16R 7298   6.238   1.311   4.640 -1.0026 -1.4045  0.2970
   57DOPE  H16S 7299   6.058   1.301   4.606 -0.4100 -0.1079 -0.3602
   57DOPE  C217 7300   6.120   1.407   4.782  0.7254 -0.0154  0.1920
   57DOPE  H17R 7301   6.043   1.487   4.774 -1.2102 -1.8185  0.1090
   57DOPE  H17S 7302   6.210   1.464   4.814 -0.8605  1.6609  1.9152
   57DOPE  C218 7303   6.073   1.305   4.883  0.3652 -0.4316 -0.6896
   57DOPE  H18R 7304   5.979   1.256   4.849 -0.5425  1.2156 -0.6047
   57DOPE  H18S 7305   6.061   1.357   4.980 -2.2027  0.7261 -1.5569
   57DOPE  H18T 7306   6.148   1.225   4.905  0.7183  0.1327  0.1842
   57DOPE   C33 7307   6.521   1.942   3.519  0.1750 -0.2041  0.0712
   57DOPE   H3X 7308   6.628   1.920   3.496 -0.0543 -2.6767  0.9983
   57DOPE   H3Y 7309   6.467   1.848   3.546 -1.3265  0.8823  0.9825
   57DOPE   C34 7310   6.517   2.037   3.644 -0.5572  0.1501  0.5363
   57DOPE   H4X 7311   6.585   2.123   3.628 -2.9809  1.9467 -0.7761
   57DOPE   H4Y 7312   6.420   2.090   3.650 -0.7260  0.2318 -1.8983
   57DOPE   C35 7313   6.557   1.955   3.768 -0.0685  0.2298  0.5154
   57DOPE   H5X 7314   6.665   1.935   3.786  0.3216  0.2122 -1.5696
   57DOPE   H5Y 7315   6.507   1.856   3.764 -1.7255  1.0788 -2.1694
   57DOPE   C36 7316   6.513   2.029   3.895 -0.6554 -0.6407  0.0321
   57DOPE   H6X 7317   6.415   2.079   3.884 -0.9593 -1.1362  0.4408
   57DOPE   H6Y 7318   6.585   2.113   3.906 -0.2462 -0.9667 -0.1402
   57DOPE   C37 7319   6.506   1.947   4.029  0.5871 -0.2037 -0.1498
   57DOPE   H7X 7320   6.430   1.867   4.016  0.1923 -0.1039  1.4290
   57DOPE   H7Y 7321   6.602   1.891   4.037  0.8452  0.3983  1.2978
   57DOPE   C38 7322   6.488   2.031   4.145 -0.5711  0.0603 -0.2748
   57DOPE   H8X 7323   6.553   2.120   4.130 -1.4128  0.5310 -1.1841
   57DOPE   H8Y 7324   6.517   1.976   4.237 -3.5140 -1.4313 -0.1367
   57DOPE   C39 7325   6.350   2.079   4.172 -0.1053 -0.3058  0.4803
   57DOPE   H9X 7326   6.302   2.133   4.090  0.6746  0.3891  0.4693
   57DOPE  C310 7327   6.284   2.068   4.290  0.3460  0.5086  0.9529
   57DOPE  H10X 7328   6.183   2.111   4.292  0.5417  0.9488  1.6375
   57DOPE  C311 7329   6.328   2.000   4.414 -0.4160 -0.3354  0.2703
   57DOPE  H11X 7330   6.241   1.963   4.473  0.5940  1.7604  3.3362
   57DOPE  H11Y 7331   6.398   1.920   4.385  0.9078  1.0963 -0.6407
   57DOPE  C312 7332   6.402   2.100   4.507  0.5653  0.0082  0.9720
   57DOPE  H12X 7333   6.325   2.162   4.557 -0.3727 -0.1496 -0.2366
   57DOPE  H12Y 7334   6.466   2.164   4.442 -0.8849 -0.7303 -1.2669
   57DOPE  C313 7335   6.495   2.027   4.605  0.3306 -0.5286  0.0099
   57DOPE  H13X 7336   6.439   1.958   4.672  0.0560 -2.7812 -2.3492
   57DOPE  H13Y 7337   6.561   1.954   4.554  0.6843 -0.1316 -0.0989
   57DOPE  C314 7338   6.591   2.131   4.685  0.0959  0.1516  0.8310
   57DOPE  H14X 7339   6.536   2.226   4.694 -0.0293  0.3539 -1.5145
   57DOPE  H14Y 7340   6.672   2.146   4.610 -1.7513  0.9164 -1.0906
   57DOPE  C315 7341   6.651   2.071   4.819  0.0551  0.0759 -0.1386
   57DOPE  H15X 7342   6.690   1.968   4.802 -0.6037 -0.2016 -0.0261
   57DOPE  H15Y 7343   6.572   2.055   4.895 -0.2703  2.1631  0.0291
   57DOPE  C316 7344   6.754   2.160   4.885 -0.7156  0.4313  0.3682
   57DOPE  H16X 7345   6.703   2.229   4.955  0.3287  0.0405  1.5708
   57DOPE  H16Y 7346   6.794   2.231   4.809  0.3092  1.7872  2.1127
   57DOPE  C317 7347   6.865   2.081   4.960 -0.8221  0.0482 -0.1308
   57DOPE  H17X 7348   6.902   1.990   4.908 -1.4760 -0.5860  0.4965
   57DOPE  H17Y 7349   6.951   2.151   4.971  0.1715 -0.9711 -1.1494
   57DOPE  C318 7350   6.820   2.040   5.104 -0.0931 -0.2613  0.5145
   57DOPE  H18X 7351   6.735   1.969   5.093 -0.4967  0.3895 -0.8370
   57DOPE  H18Y 7352   6.899   1.993   5.167 -1.1054 -0.4599  1.6583
   57DOPE  H18Z 7353   6.784   2.129   5.159 -2.0920  0.1260 -1.2580
   58DOPE     N 7354   4.849   6.132   2.624  0.6087 -0.0446 -0.3039
   58DOPE   HN1 7355   4.755   6.093   2.647  0.3441  0.8128  0.0831
   58DOPE   HN2 7356   4.842   6.198   2.544  1.5706 -0.1717 -0.5079
   58DOPE   HN3 7357   4.904   6.048   2.595 -0.5886 -1.2487  0.7703
   58DOPE   C12 7358   4.903   6.205   2.743  0.3871  0.0846 -1.2352
   58DOPE  H12A 7359   4.815   6.253   2.790  1.3265  0.5402  0.1189
   58DOPE  H12B 7360   4.984   6.278   2.720  0.1583  0.3190 -1.3024
   58DOPE   C11 7361   4.955   6.105   2.854  1.0507  0.2945 -0.1253
   58DOPE  H11A 7362   4.875   6.028   2.862  0.8067  0.3363 -1.8356
   58DOPE  H11B 7363   4.960   6.156   2.952 -0.2011 -0.8802  0.5795
   58DOPE     P 7364   5.094   5.907   2.737 -0.0329  0.2473  0.2121
   58DOPE   O13 7365   5.239   5.887   2.712  0.5054  0.2850  0.2931
   58DOPE   O14 7366   4.995   5.898   2.622 -0.4804  0.6721 -0.6625
   58DOPE   O11 7367   5.039   5.814   2.850 -0.1223  0.4638  0.6115
   58DOPE   O12 7368   5.078   6.047   2.818 -0.4090 -0.4313 -0.7279
   58DOPE    C1 7369   5.116   5.700   2.894  1.0620  0.4188  0.4162
   58DOPE    HA 7370   5.177   5.658   2.811 -2.0302  0.0762 -1.8511
   58DOPE    HB 7371   5.048   5.616   2.919  1.7173 -1.1100 -2.4246
   58DOPE    C2 7372   5.195   5.733   3.021 -0.0401  0.1002  0.5416
   58DOPE    HS 7373   5.277   5.801   2.991 -0.7779  1.0178  0.5460
   58DOPE   O21 7374   5.229   5.619   3.097 -0.7108 -0.1121  0.6520
   58DOPE   C21 7375   5.328   5.551   3.042 -0.5670 -0.5317 -0.4915
   58DOPE   O22 7376   5.399   5.582   2.950  0.3445  0.0892  0.1738
   58DOPE   C22 7377   5.342   5.417   3.115  0.0111 -0.0792  0.4280
   58DOPE   H2R 7378   5.345   5.335   3.040 -1.2039  0.5809 -0.3588
   58DOPE   H2S 7379   5.255   5.392   3.179 -0.4132  0.9676  0.2712
   58DOPE    C3 7380   5.112   5.824   3.117  0.4435  0.2964 -0.3317
   58DOPE    HX 7381   5.015   5.771   3.130  0.1558  1.1608  1.3468
   58DOPE    HY 7382   5.094   5.921   3.065  2.3174  0.7122 -0.2718
   58DOPE   O31 7383   5.179   5.844   3.241  0.4937 -0.4369 -0.4260
   58DOPE   C31 7384   5.105   5.876   3.349 -0.1230 -0.1961  0.6337
   58DOPE   O32 7385   4.984   5.897   3.349  0.4333 -0.0722 -0.0461
   58DOPE   C32 7386   5.194   5.872   3.465  0.8539 -0.2471  0.6509
   58DOPE   H2X 7387   5.242   5.772   3.453  0.2430 -0.2570 -2.9876
   58DOPE   H2Y 7388   5.280   5.939   3.440  0.8302 -0.7705 -0.9300
   58DOPE   C23 7389   5.475   5.406   3.203 -0.6388  0.0548  0.4179
   58DOPE   H3R 7390   5.457   5.461   3.298 -1.3692 -2.2110  1.6500
   58DOPE   H3S 7391   5.557   5.458   3.148 -0.4866 -0.5615  0.0512
   58DOPE   C24 7392   5.506   5.265   3.244  0.5685 -0.1446  0.2150
   58DOPE   H4R 7393   5.615   5.273   3.264  0.7162 -1.0519 -0.1806
   58DOPE   H4S 7394   5.481   5.195   3.161  0.7498 -0.1448  0.1610
   58DOPE   C25 7395   5.435   5.230   3.370  0.7218 -0.3842 -0.1265
   58DOPE   H5R 7396   5.327   5.208   3.355 -0.0647  2.5857  0.5721
   58DOPE   H5S 7397   5.445   5.323   3.430 -0.1774 -0.4181  0.0808
   58DOPE   C26 7398   5.506   5.120   3.454  0.3202  0.6995 -0.8096
   58DOPE   H6R 7399   5.617   5.127   3.456  0.5500 -1.9863 -0.9207
   58DOPE   H6S 7400   5.486   5.019   3.413 -0.8197  0.9461 -0.8946
   58DOPE   C27 7401   5.463   5.130   3.603 -0.5637  1.0390  0.5708
   58DOPE   H7R 7402   5.353   5.118   3.605 -0.3391 -2.1383 -0.8335
   58DOPE   H7S 7403   5.498   5.229   3.641  0.7259  0.1800  1.6825
   58DOPE   C28 7404   5.524   5.016   3.692  0.0720  0.3128  0.0466
   58DOPE   H8R 7405   5.632   5.033   3.672 -0.1071 -1.5635 -3.0041
   58DOPE   H8S 7406   5.500   4.915   3.651 -1.6928 -0.0988  1.9139
   58DOPE   C29 7407   5.497   5.026   3.841  0.0832  0.3208  0.6531
   58DOPE   H9R 7408   5.405   4.976   3.875  0.8408 -0.4117  1.7118
   58DOPE  C210 7409   5.570   5.086   3.938  0.0762  0.3042  0.0910
   58DOPE  H10R 7410   5.538   5.073   4.042 -1.2361 -1.4872 -0.4965
   58DOPE  C211 7411   5.695   5.153   3.921 -0.2386  0.1889  0.1497
   58DOPE  H11R 7412   5.684   5.225   3.837  0.0080 -0.6071 -0.5764
   58DOPE  H11S 7413   5.786   5.092   3.904  0.1471  0.1568  2.0770
   58DOPE  C212 7414   5.725   5.247   4.043  0.8962  0.1739  0.0879
   58DOPE  H12R 7415   5.726   5.191   4.139  0.0134  1.6488  0.9826
   58DOPE  H12S 7416   5.641   5.319   4.045 -1.6197 -2.5190 -0.3981
   58DOPE  C213 7417   5.851   5.316   4.022  0.0308  0.4666  1.0643
   58DOPE  H13R 7418   5.832   5.386   3.938 -1.1268  0.7856  1.5669
   58DOPE  H13S 7419   5.924   5.242   3.984  1.0015  0.1758  3.3323
   58DOPE  C214 7420   5.906   5.376   4.148 -0.3742 -0.5286  0.2489
   58DOPE  H14R 7421   6.008   5.415   4.128 -1.8323  1.8541 -3.7212
   58DOPE  H14S 7422   5.908   5.306   4.234  1.9473  1.3794  1.8687
   58DOPE  C215 7423   5.834   5.498   4.199  0.2298 -0.3703 -0.3357
   58DOPE  H15R 7424   5.729   5.469   4.221  0.4006  0.2761  1.4979
   58DOPE  H15S 7425   5.822   5.568   4.114 -1.0377 -0.4337 -0.2261
   58DOPE  C216 7426   5.905   5.551   4.324 -0.0732 -0.4469  0.2624
   58DOPE  H16R 7427   6.005   5.590   4.296 -0.4226  2.3994  2.4857
   58DOPE  H16S 7428   5.933   5.465   4.388 -0.9359 -2.6126 -2.0976
   58DOPE  C217 7429   5.831   5.658   4.407 -0.4790  0.8375  0.3382
   58DOPE  H17R 7430   5.723   5.637   4.425 -1.1232  2.0502 -1.7694
   58DOPE  H17S 7431   5.835   5.753   4.350  2.1655  1.2592  1.0923
   58DOPE  C218 7432   5.902   5.686   4.535  0.5109 -1.0398  0.3930
   58DOPE  H18R 7433   6.010   5.698   4.513  0.2869  2.1727  0.5711
   58DOPE  H18S 7434   5.868   5.612   4.610 -1.4409  0.8505  1.5048
   58DOPE  H18T 7435   5.879   5.788   4.573  2.2161  0.3130 -1.8913
   58DOPE   C33 7436   5.114   5.901   3.598 -0.8250  0.7688  0.3442
   58DOPE   H3X 7437   5.032   5.826   3.601 -1.6246  1.5801 -0.6282
   58DOPE   H3Y 7438   5.082   6.007   3.591  0.1423  1.1092  0.8166
   58DOPE   C34 7439   5.186   5.881   3.740 -0.0249 -0.2858 -0.3559
   58DOPE   H4X 7440   5.229   5.779   3.748  0.7097  0.1099  1.1760
   58DOPE   H4Y 7441   5.270   5.953   3.748 -0.3101 -0.0301  0.4511
   58DOPE   C35 7442   5.092   5.897   3.857 -0.0900 -0.1252 -0.2857
   58DOPE   H5X 7443   5.024   5.810   3.863  0.5922 -0.6125  0.6703
   58DOPE   H5Y 7444   5.024   5.985   3.847  0.0028 -0.2410 -2.3660
   58DOPE   C36 7445   5.171   5.913   3.984  0.0400  0.1019 -0.0032
   58DOPE   H6X 7446   5.249   5.992   3.978  0.1289  0.1828  1.8411
   58DOPE   H6Y 7447   5.216   5.812   3.987 -1.1226 -0.4529 -0.4513
   58DOPE   C37 7448   5.092   5.952   4.116 -0.0157  0.2424  0.3574
   58DOPE   H7X 7449   5.024   6.039   4.104  0.1177  0.5365  1.6287
   58DOPE   H7Y 7450   5.031   5.865   4.150 -1.9237  2.1252  1.9861
   58DOPE   C38 7451   5.183   5.975   4.232 -0.7442  0.5635  0.4139
   58DOPE   H8X 7452   5.268   6.042   4.207 -2.7239  1.9230 -3.5124
   58DOPE   H8Y 7453   5.227   5.874   4.246 -1.4254  0.2382  0.2415
   58DOPE   C39 7454   5.111   6.018   4.354 -0.4492  0.1433 -0.3936
   58DOPE   H9X 7455   5.083   6.122   4.374 -1.7016 -0.3731  0.6955
   58DOPE  C310 7456   5.071   5.938   4.458  0.5787  0.1770  0.0273
   58DOPE  H10X 7457   5.015   5.989   4.537 -0.3368  1.1310 -1.2156
   58DOPE  C311 7458   5.100   5.792   4.466  0.5769 -0.4800 -0.6669
   58DOPE  H11X 7459   5.016   5.727   4.435 -0.5771 -0.3065  1.7905
   58DOPE  H11Y 7460   5.181   5.755   4.400 -0.4017 -1.0184 -1.5821
   58DOPE  C312 7461   5.145   5.748   4.611  0.9987 -0.0734  0.0127
   58DOPE  H12X 7462   5.167   5.640   4.604 -0.5170 -0.4294  0.3699
   58DOPE  H12Y 7463   5.075   5.769   4.694  1.6398  2.2170  0.0470
   58DOPE  C313 7464   5.277   5.822   4.646 -0.4133  0.7444 -0.5058
   58DOPE  H13X 7465   5.339   5.778   4.565  0.5854 -0.1078  0.6948
   58DOPE  H13Y 7466   5.274   5.933   4.641  0.5803  0.8128  0.2604
   58DOPE  C314 7467   5.343   5.787   4.783  0.0508  0.5028 -0.4798
   58DOPE  H14X 7468   5.365   5.679   4.772 -1.5440  0.1304 -0.1675
   58DOPE  H14Y 7469   5.274   5.802   4.869  1.2126  1.0286  0.3942
   58DOPE  C315 7470   5.475   5.864   4.810  0.6587  0.6774  0.2654
   58DOPE  H15X 7471   5.442   5.960   4.855 -1.7531 -0.4430  1.0287
   58DOPE  H15Y 7472   5.525   5.883   4.713 -0.9055  0.5191 -0.6045
   58DOPE  C316 7473   5.570   5.786   4.906 -0.0190  0.8783  0.8669
   58DOPE  H16X 7474   5.598   5.694   4.850 -0.3282  1.8095 -0.8711
   58DOPE  H16Y 7475   5.523   5.750   5.000  0.5077 -1.3695  0.3490
   58DOPE  C317 7476   5.698   5.851   4.947 -0.8830 -0.6452 -0.5511
   58DOPE  H17X 7477   5.671   5.924   5.026  0.7370  0.6099 -1.0935
   58DOPE  H17Y 7478   5.756   5.776   5.006  1.2733  1.5575  0.3351
   58DOPE  C318 7479   5.783   5.923   4.848  0.3804 -0.2907  0.1173
   58DOPE  H18X 7480   5.837   5.851   4.782 -1.5976  0.3627 -2.3491
   58DOPE  H18Y 7481   5.734   6.004   4.790 -1.3011 -0.8646  0.6677
   58DOPE  H18Z 7482   5.861   5.975   4.907  0.2243  1.1660 -0.9177
   59DOPE     N 7483   0.817   1.606   2.468  0.0348  0.1253 -0.3223
   59DOPE   HN1 7484   0.754   1.546   2.412 -0.9319  1.2163 -0.4426
   59DOPE   HN2 7485   0.891   1.650   2.410  1.3733  2.4788  2.8067
   59DOPE   HN3 7486   0.866   1.547   2.539 -3.1876 -1.4380  0.7912
   59DOPE   C12 7487   0.738   1.722   2.525  0.3171 -1.0798  0.3713
   59DOPE  H12A 7488   0.809   1.799   2.562 -1.2065  0.6724 -0.2474
   59DOPE  H12B 7489   0.672   1.677   2.603  0.3560  0.6636  1.4539
   59DOPE   C11 7490   0.652   1.785   2.415  0.4172  0.0021  0.3614
   59DOPE  H11A 7491   0.718   1.833   2.339  0.8615 -1.4319 -0.1900
   59DOPE  H11B 7492   0.592   1.865   2.464  1.0124 -0.7281  2.3407
   59DOPE     P 7493   0.426   1.677   2.339  0.1992  0.0229 -0.2182
   59DOPE   O13 7494   0.382   1.563   2.251 -0.6706 -0.1878  0.1458
   59DOPE   O14 7495   0.373   1.810   2.309 -0.3679  0.1452  0.0203
   59DOPE   O11 7496   0.396   1.652   2.488 -0.1066  0.4193  0.3993
   59DOPE   O12 7497   0.577   1.683   2.341 -0.0772  1.2529  0.2718
   59DOPE    C1 7498   0.444   1.534   2.550 -1.0195 -0.1548 -0.1607
   59DOPE    HA 7499   0.551   1.512   2.526 -0.9669 -1.1274  0.8658
   59DOPE    HB 7500   0.379   1.453   2.509 -0.9873  0.2863 -1.1059
   59DOPE    C2 7501   0.419   1.527   2.704  0.0582 -0.7766  0.0821
   59DOPE    HS 7502   0.309   1.544   2.707 -0.7100 -4.2996 -2.2587
   59DOPE   O21 7503   0.499   1.624   2.774 -0.2142  0.1047  0.2336
   59DOPE   C21 7504   0.432   1.692   2.864  0.1307 -0.5083  0.5112
   59DOPE   O22 7505   0.311   1.696   2.866  0.1926 -0.1873 -0.1135
   59DOPE   C22 7506   0.533   1.761   2.961  0.2506  0.3674  0.9937
   59DOPE   H2R 7507   0.591   1.838   2.908  1.3378 -1.7740 -1.1234
   59DOPE   H2S 7508   0.607   1.682   2.988  1.4375  0.3654 -1.8868
   59DOPE    C3 7509   0.450   1.386   2.762  0.0655 -0.6907 -0.0201
   59DOPE    HX 7510   0.555   1.380   2.799 -0.5796 -1.0292  1.8633
   59DOPE    HY 7511   0.445   1.316   2.676  2.6639  1.2472 -1.9019
   59DOPE   O31 7512   0.348   1.371   2.858 -0.3517 -0.4656 -0.0220
   59DOPE   C31 7513   0.381   1.395   2.986  0.9334 -0.5535  0.1228
   59DOPE   O32 7514   0.487   1.432   3.025 -0.0938  0.2613 -0.4047
   59DOPE   C32 7515   0.259   1.367   3.070  0.0566  0.4684  0.3372
   59DOPE   H2X 7516   0.220   1.463   3.111  1.2302  0.5277  1.3729
   59DOPE   H2Y 7517   0.180   1.323   3.005  0.8728  1.8752 -1.6787
   59DOPE   C23 7518   0.456   1.820   3.086 -0.0983  0.4059  0.1764
   59DOPE   H3R 7519   0.368   1.757   3.113 -1.7086  2.9554  1.1877
   59DOPE   H3S 7520   0.419   1.922   3.064 -0.4956  0.3766  0.6848
   59DOPE   C24 7521   0.537   1.824   3.220  0.3409 -0.3676 -0.5924
   59DOPE   H4R 7522   0.486   1.899   3.284  0.0617 -1.4580  0.4993
   59DOPE   H4S 7523   0.636   1.869   3.196  1.2506 -1.6477  0.5706
   59DOPE   C25 7524   0.542   1.689   3.289  0.0643 -0.6535  0.0196
   59DOPE   H5R 7525   0.585   1.621   3.212  0.0796  1.1049 -1.5728
   59DOPE   H5S 7526   0.438   1.649   3.294  1.1023 -3.8288 -1.0500
   59DOPE   C26 7527   0.623   1.687   3.421 -0.1737  0.2911 -1.2489
   59DOPE   H6R 7528   0.558   1.745   3.490  2.9795  1.2818  1.1420
   59DOPE   H6S 7529   0.724   1.734   3.409  0.7598 -1.0067  1.0026
   59DOPE   C27 7530   0.640   1.541   3.475  0.1153 -0.0797  0.1694
   59DOPE   H7R 7531   0.699   1.480   3.404  0.2515 -0.3110  0.4786
   59DOPE   H7S 7532   0.538   1.497   3.477 -0.1509  0.5356  1.6914
   59DOPE   C28 7533   0.692   1.522   3.618  0.4479 -0.3887  0.3400
   59DOPE   H8R 7534   0.796   1.561   3.616  0.5160 -0.5853  0.0119
   59DOPE   H8S 7535   0.679   1.413   3.635 -2.1835 -0.0929  0.7066
   59DOPE   C29 7536   0.619   1.599   3.728  0.1162 -0.6734 -0.3261
   59DOPE   H9R 7537   0.542   1.672   3.701 -0.5437 -2.0891 -2.4870
   59DOPE  C210 7538   0.618   1.581   3.860 -0.2887 -0.2541  0.3463
   59DOPE  H10R 7539   0.554   1.653   3.912 -0.2369  0.5796 -0.7243
   59DOPE  C211 7540   0.691   1.476   3.936  0.1957 -0.8348  0.2105
   59DOPE  H11R 7541   0.734   1.400   3.867  0.8489 -0.2596 -0.0226
   59DOPE  H11S 7542   0.618   1.442   4.013 -0.0066  4.4317  2.7532
   59DOPE  C212 7543   0.798   1.557   4.011  0.3832  0.2479 -0.0337
   59DOPE  H12R 7544   0.754   1.641   4.069 -0.6025 -0.8524  0.8618
   59DOPE  H12S 7545   0.868   1.594   3.933  1.2713  1.1299  1.1527
   59DOPE  C213 7546   0.876   1.473   4.118 -0.2542  0.7399  0.1460
   59DOPE  H13R 7547   0.971   1.525   4.143 -0.0299  1.0535 -1.2772
   59DOPE  H13S 7548   0.890   1.369   4.081 -1.0811 -0.0279  1.8425
   59DOPE  C214 7549   0.796   1.458   4.245 -0.1378 -0.7410 -0.1852
   59DOPE  H14R 7550   0.843   1.373   4.300  0.6557 -0.4719 -0.4429
   59DOPE  H14S 7551   0.691   1.430   4.223  0.0174 -1.8973  0.4391
   59DOPE  C215 7552   0.804   1.585   4.341 -0.4169  0.7311  1.0171
   59DOPE  H15R 7553   0.782   1.679   4.287  2.2986  1.3830  0.8951
   59DOPE  H15S 7554   0.910   1.617   4.345  0.5250 -1.2412 -3.0520
   59DOPE  C216 7555   0.727   1.577   4.467  1.1095 -0.0188  0.4865
   59DOPE  H16R 7556   0.622   1.609   4.446  1.6941  2.0413  0.4966
   59DOPE  H16S 7557   0.753   1.653   4.543 -0.8076  1.2321 -0.0160
   59DOPE  C217 7558   0.728   1.447   4.546 -0.3045  0.4830 -0.9104
   59DOPE  H17R 7559   0.721   1.355   4.485  3.5712 -0.6364  0.0565
   59DOPE  H17S 7560   0.648   1.460   4.621 -1.7210  0.4143 -2.3587
   59DOPE  C218 7561   0.863   1.430   4.622 -0.5837 -0.0730  0.1484
   59DOPE  H18R 7562   0.869   1.497   4.711  0.6860 -0.2395  0.2010
   59DOPE  H18S 7563   0.954   1.467   4.570 -0.3316  0.4125  0.9160
   59DOPE  H18T 7564   0.881   1.326   4.656  0.4261 -0.1982 -0.7452
   59DOPE   C33 7565   0.290   1.279   3.192 -0.0287  0.2403  0.2972
   59DOPE   H3X 7566   0.202   1.292   3.259  0.1291  0.4267  0.4691
   59DOPE   H3Y 7567   0.387   1.310   3.237  0.1410  1.7110 -0.9928
   59DOPE   C34 7568   0.291   1.136   3.139  0.0424  0.2401 -0.4416
   59DOPE   H4X 7569   0.195   1.106   3.092  2.6476 -2.5541 -4.7385
   59DOPE   H4Y 7570   0.368   1.131   3.058 -1.8622  3.4957 -2.6859
   59DOPE   C35 7571   0.319   1.017   3.236  0.1080  0.5049 -0.0980
   59DOPE   H5X 7572   0.419   1.034   3.282 -0.0249  2.0370 -0.3140
   59DOPE   H5Y 7573   0.308   0.917   3.189 -1.4288 -0.0364  1.3074
   59DOPE   C36 7574   0.211   1.031   3.349 -0.5296  0.4062  0.4760
   59DOPE   H6X 7575   0.116   1.037   3.291 -1.3870 -1.4912  1.6127
   59DOPE   H6Y 7576   0.223   1.128   3.402  3.4601 -0.6197  1.7736
   59DOPE   C37 7577   0.206   0.918   3.447 -0.1055 -0.1231 -0.5639
   59DOPE   H7X 7578   0.193   0.824   3.389  0.4939 -0.9357  0.5783
   59DOPE   H7Y 7579   0.307   0.915   3.494  0.3762 -1.3209 -1.6030
   59DOPE   C38 7580   0.087   0.919   3.542  0.2887  0.1746  0.4066
   59DOPE   H8X 7581   0.087   0.828   3.606 -0.3212  0.7712  1.2880
   59DOPE   H8Y 7582   0.006   0.923   3.466  0.4549  1.7274  0.2704
   59DOPE   C39 7583   0.054   1.036   3.627 -0.6215 -0.3699 -0.2658
   59DOPE   H9X 7584   0.007   1.120   3.574 -0.1825  0.3252  0.4188
   59DOPE  C310 7585   0.100   1.060   3.748 -0.0838 -0.3866 -0.2744
   59DOPE  H10X 7586   0.082   1.150   3.808  0.0595 -0.7863  0.3817
   59DOPE  C311 7587   0.181   0.959   3.835  0.0972 -0.3426  0.0732
   59DOPE  H11X 7588   0.223   0.877   3.772 -0.5515 -0.0920 -0.7004
   59DOPE  H11Y 7589   0.276   1.006   3.866  0.7638 -1.4908 -0.1378
   59DOPE  C312 7590   0.098   0.904   3.948  0.0649  0.3104 -0.0669
   59DOPE  H12X 7591   0.039   0.819   3.910  0.3314 -0.2817  0.8072
   59DOPE  H12Y 7592   0.025   0.977   3.988  0.7287  0.4359  0.9702
   59DOPE  C313 7593   0.176   0.850   4.064  0.6727 -0.2681 -0.4021
   59DOPE  H13X 7594   0.133   0.751   4.089 -0.4474 -0.5182 -2.9603
   59DOPE  H13Y 7595   0.280   0.819   4.040  0.5376 -1.6050  0.6047
   59DOPE  C314 7596   0.172   0.943   4.188 -0.0958 -0.4570  0.1663
   59DOPE  H14X 7597   0.205   0.900   4.285 -2.9283 -0.6910  1.1100
   59DOPE  H14Y 7598   0.065   0.963   4.209 -0.4652 -0.3529 -1.6556
   59DOPE  C315 7599   0.246   1.077   4.157 -0.6267  0.3767 -0.4597
   59DOPE  H15X 7600   0.196   1.129   4.073  1.7445  0.4937 -1.8904
   59DOPE  H15Y 7601   0.344   1.045   4.113 -1.6679  0.4340 -3.0200
   59DOPE  C316 7602   0.272   1.169   4.280 -0.5853 -0.0354 -0.1914
   59DOPE  H16X 7603   0.328   1.114   4.359 -2.8961 -0.4136  1.2747
   59DOPE  H16Y 7604   0.175   1.202   4.323  0.7454  1.0824  2.1696
   59DOPE  C317 7605   0.346   1.292   4.221  0.1921 -0.4433 -0.3649
   59DOPE  H17X 7606   0.433   1.251   4.165  0.7303 -0.1190  0.2236
   59DOPE  H17Y 7607   0.276   1.346   4.155 -1.1492  0.8189  1.9599
   59DOPE  C318 7608   0.401   1.368   4.336  0.0209 -0.3974  0.7632
   59DOPE  H18X 7609   0.468   1.312   4.405 -0.2974 -0.2798  1.1674
   59DOPE  H18Y 7610   0.459   1.456   4.299  0.3179 -0.8979  0.0080
   59DOPE  H18Z 7611   0.317   1.410   4.396 -1.4832 -0.9638 -0.8729
   60DOPE     N 7612   6.457   6.385   2.839  0.0814 -0.0671 -0.3711
   60DOPE   HN1 7613   6.496   6.481   2.834 -1.2777  0.4457 -2.0279
   60DOPE   HN2 7614   6.370   6.396   2.783 -0.5033  0.0769  0.5303
   60DOPE   HN3 7615   6.434   6.358   2.937 -0.4044  2.5640  0.3075
   60DOPE   C12 7616   6.546   6.300   2.754 -0.5489 -0.8081  0.0452
   60DOPE  H12A 7617   6.566   6.348   2.655  1.4399 -0.0980  0.7219
   60DOPE  H12B 7618   6.493   6.206   2.729 -0.5023 -0.9565  0.4973
   60DOPE   C11 7619   6.685   6.279   2.813  0.4127  0.1341 -0.0583
   60DOPE  H11A 7620   6.664   6.219   2.903 -2.6564 -0.9078 -1.3460
   60DOPE  H11B 7621   6.739   6.369   2.850  0.8710 -1.0234  2.2187
   60DOPE     P 7622   6.803   6.055   2.711 -0.0969  0.0573 -0.4693
   60DOPE   O13 7623   6.854   6.043   2.569 -0.1313 -0.0183 -0.1127
   60DOPE   O14 7624   6.694   5.966   2.761  0.3991  0.6605 -0.3502
   60DOPE   O11 7625   6.924   6.052   2.810  0.2293 -0.3242 -1.0199
   60DOPE   O12 7626   6.765   6.207   2.718 -0.1896  0.8209 -0.0147
   60DOPE    C1 7627   7.037   5.970   2.798 -0.1681  0.3528 -0.6277
   60DOPE    HA 7628   7.067   5.950   2.692  2.3243 -0.1254  0.0957
   60DOPE    HB 7629   7.003   5.871   2.835 -0.4166  0.7550  0.2426
   60DOPE    C2 7630   7.161   6.013   2.884  0.0043 -0.5142 -0.1124
   60DOPE    HS 7631   7.194   5.924   2.940 -0.0790 -1.0301 -0.8753
   60DOPE   O21 7632   7.139   6.127   2.974 -0.7492  0.1039  0.4046
   60DOPE   C21 7633   7.084   6.096   3.087  0.3109 -0.2579 -0.0105
   60DOPE   O22 7634   7.075   5.986   3.133  0.6084 -0.9917  0.6044
   60DOPE   C22 7635   7.025   6.222   3.151 -0.2538 -0.3255  0.4574
   60DOPE   H2R 7636   7.100   6.302   3.135  1.6026 -2.3045 -1.4127
   60DOPE   H2S 7637   7.020   6.209   3.261  1.4061  0.0946  0.6057
   60DOPE    C3 7638   7.281   6.047   2.789 -0.5615  0.0695 -0.2698
   60DOPE    HX 7639   7.245   6.108   2.703  2.7001  2.1643 -0.3257
   60DOPE    HY 7640   7.332   5.955   2.754  0.5938 -0.5203  2.6573
   60DOPE   O31 7641   7.380   6.121   2.868  0.1075  0.0722  0.0914
   60DOPE   C31 7642   7.393   6.247   2.836 -0.6488  0.1810  0.0433
   60DOPE   O32 7643   7.330   6.314   2.755  0.1798  0.0310  0.4106
   60DOPE   C32 7644   7.510   6.312   2.916  0.3125  0.9407 -0.2508
   60DOPE   H2X 7645   7.566   6.234   2.972 -1.4736 -1.9034 -2.2129
   60DOPE   H2Y 7646   7.584   6.358   2.848 -0.5770 -0.2593 -2.1013
   60DOPE   C23 7647   6.883   6.233   3.089  0.8094  0.1050 -0.0591
   60DOPE   H3R 7648   6.882   6.198   2.984  1.9751 -0.7310  0.1914
   60DOPE   H3S 7649   6.847   6.339   3.085 -3.0812 -1.0927 -0.9018
   60DOPE   C24 7650   6.780   6.138   3.161 -0.1558  0.8466 -0.3084
   60DOPE   H4R 7651   6.820   6.037   3.140 -1.2943 -0.7485  4.0479
   60DOPE   H4S 7652   6.689   6.144   3.097  0.0224 -0.3777 -0.6869
   60DOPE   C25 7653   6.751   6.157   3.309 -0.9283  0.5012  0.1748
   60DOPE   H5R 7654   6.648   6.199   3.319 -1.7380 -0.2341 -3.5372
   60DOPE   H5S 7655   6.835   6.215   3.353  1.6957 -1.0155 -2.5031
   60DOPE   C26 7656   6.722   6.020   3.388  0.0673  0.4389  0.3601
   60DOPE   H6R 7657   6.694   5.940   3.317  1.2503  0.1793  0.1671
   60DOPE   H6S 7658   6.643   6.038   3.464 -0.7184  2.1248 -0.7817
   60DOPE   C27 7659   6.835   5.975   3.473 -0.1715  1.0872 -0.0101
   60DOPE   H7R 7660   6.881   6.044   3.547  2.8823 -1.3703  0.6480
   60DOPE   H7S 7661   6.921   5.943   3.409 -1.6878 -2.2808 -0.5966
   60DOPE   C28 7662   6.822   5.839   3.552 -0.1462 -0.3618 -0.2552
   60DOPE   H8R 7663   6.743   5.850   3.629  0.5639  0.9962  0.3240
   60DOPE   H8S 7664   6.917   5.809   3.603 -0.5202 -1.7490 -0.3506
   60DOPE   C29 7665   6.788   5.719   3.459  0.4587  0.0733  0.6613
   60DOPE   H9R 7666   6.857   5.698   3.376 -1.6841 -0.2612 -1.1454
   60DOPE  C210 7667   6.665   5.655   3.450 -0.8223 -0.7197  0.7255
   60DOPE  H10R 7668   6.650   5.567   3.385 -0.0507 -0.6488  0.4355
   60DOPE  C211 7669   6.542   5.693   3.522  0.0585 -0.1185  0.4515
   60DOPE  H11R 7670   6.467   5.721   3.446  0.1106  0.2965  0.5513
   60DOPE  H11S 7671   6.547   5.787   3.580  0.7551  0.0018  0.2040
   60DOPE  C212 7672   6.473   5.584   3.611  0.4201 -0.1782 -0.2196
   60DOPE  H12R 7673   6.374   5.622   3.645 -1.0931 -1.2142 -3.1981
   60DOPE  H12S 7674   6.536   5.567   3.701  0.7008  0.0940 -0.3602
   60DOPE  C213 7675   6.453   5.456   3.540  0.4994  0.1675 -0.6452
   60DOPE  H13R 7676   6.552   5.405   3.545  0.3337 -0.1216 -0.2820
   60DOPE  H13S 7677   6.451   5.466   3.429  2.7333  0.0947 -0.7361
   60DOPE  C214 7678   6.328   5.377   3.587  0.6450 -0.2810 -0.2520
   60DOPE  H14R 7679   6.320   5.283   3.529  1.6895 -0.7685  0.3690
   60DOPE  H14S 7680   6.245   5.435   3.539 -0.3574 -0.6204  1.0100
   60DOPE  C215 7681   6.289   5.357   3.733  0.0377  0.1010 -0.4295
   60DOPE  H15R 7682   6.184   5.321   3.731  0.0622 -0.0486  0.4932
   60DOPE  H15S 7683   6.292   5.449   3.795  0.9728 -1.3719  1.8080
   60DOPE  C216 7684   6.375   5.248   3.802  0.0624 -0.4182  0.4943
   60DOPE  H16R 7685   6.482   5.275   3.815  0.5707 -2.1062  0.0333
   60DOPE  H16S 7686   6.375   5.158   3.736  2.7617  0.6941 -1.1974
   60DOPE  C217 7687   6.316   5.201   3.938 -0.4802 -0.1513 -0.4982
   60DOPE  H17R 7688   6.377   5.118   3.980  1.7507  0.1699 -2.8794
   60DOPE  H17S 7689   6.215   5.167   3.907 -0.4116  0.5249 -1.4835
   60DOPE  C218 7690   6.309   5.310   4.047 -0.1201  0.3511 -0.1259
   60DOPE  H18R 7691   6.252   5.274   4.136  1.1148  2.1223  1.4757
   60DOPE  H18S 7692   6.252   5.393   4.000 -1.9616 -0.7984 -0.0198
   60DOPE  H18T 7693   6.407   5.348   4.084 -1.6826  1.1901  3.6114
   60DOPE   C33 7694   7.482   6.426   3.016  0.4068  0.8661 -0.6265
   60DOPE   H3X 7695   7.413   6.495   2.965 -0.5395 -1.5215 -2.7857
   60DOPE   H3Y 7696   7.578   6.478   3.039  0.2207  0.3633  1.5878
   60DOPE   C34 7697   7.425   6.372   3.152  0.5908 -1.0851  0.5303
   60DOPE   H4X 7698   7.349   6.295   3.127 -0.0329 -0.8375  1.6005
   60DOPE   H4Y 7699   7.504   6.332   3.219  1.6545  0.0241 -0.0185
   60DOPE   C35 7700   7.345   6.478   3.239  0.3282  0.4459  0.2658
   60DOPE   H5X 7701   7.264   6.529   3.182  1.2923  1.2339 -0.4464
   60DOPE   H5Y 7702   7.410   6.560   3.276  1.3894 -0.4899  0.5145
   60DOPE   C36 7703   7.279   6.412   3.363  0.1413  0.3288 -0.4913
   60DOPE   H6X 7704   7.343   6.388   3.451  0.8494  0.5805 -0.9257
   60DOPE   H6Y 7705   7.232   6.318   3.328  1.1082  0.3793 -2.0530
   60DOPE   C37 7706   7.163   6.495   3.425 -0.1511  0.1296  0.1803
   60DOPE   H7X 7707   7.199   6.583   3.484 -0.2594  0.5932 -0.4344
   60DOPE   H7Y 7708   7.112   6.547   3.341  0.7613  0.8137  0.0220
   60DOPE   C38 7709   7.076   6.417   3.520 -0.6725  0.0163 -0.3914
   60DOPE   H8X 7710   7.139   6.396   3.609  0.6667  2.3844 -0.6733
   60DOPE   H8Y 7711   7.054   6.315   3.483  1.3989 -0.7210  0.2764
   60DOPE   C39 7712   6.947   6.486   3.549  0.1050 -0.0161  0.5357
   60DOPE   H9X 7713   6.889   6.504   3.457 -1.0836 -2.1484  0.8018
   60DOPE  C310 7714   6.904   6.510   3.672  0.2022 -0.1032 -0.5543
   60DOPE  H10X 7715   6.811   6.565   3.693 -1.0885 -2.5745  0.6202
   60DOPE  C311 7716   6.979   6.474   3.802 -0.4967 -0.3069  0.4229
   60DOPE  H11X 7717   7.089   6.468   3.794 -0.4883 -0.9570  0.9874
   60DOPE  H11Y 7718   6.968   6.551   3.881  0.3670 -1.7094  1.9481
   60DOPE  C312 7719   6.917   6.343   3.862  0.2618  0.1099  0.8971
   60DOPE  H12X 7720   6.945   6.260   3.794  1.6668  1.0305  0.2929
   60DOPE  H12Y 7721   6.807   6.352   3.865  0.2184  0.2323 -0.3741
   60DOPE  C313 7722   6.969   6.315   4.007 -0.4820 -0.7895 -0.0088
   60DOPE  H13X 7723   7.074   6.279   4.009 -0.2534 -0.1310  1.5304
   60DOPE  H13Y 7724   6.979   6.415   4.055 -1.1512 -0.0575 -1.3248
   60DOPE  C314 7725   6.884   6.216   4.085  0.6871 -0.5300 -0.4743
   60DOPE  H14X 7726   6.912   6.115   4.049  0.0146 -1.7478  2.1554
   60DOPE  H14Y 7727   6.777   6.228   4.058  0.5486 -0.3801  0.1328
   60DOPE  C315 7728   6.919   6.227   4.234  0.3575  0.4836 -0.5286
   60DOPE  H15X 7729   6.888   6.327   4.271 -0.2186  0.6411 -1.4112
   60DOPE  H15Y 7730   7.028   6.206   4.241  0.3566  0.4924 -0.4910
   60DOPE  C316 7731   6.838   6.119   4.318  0.3338 -0.5751 -0.2425
   60DOPE  H16X 7732   6.870   6.125   4.424 -1.0429  3.8581  0.1117
   60DOPE  H16Y 7733   6.865   6.025   4.265  1.2785 -0.3089 -0.2378
   60DOPE  C317 7734   6.684   6.123   4.312 -0.5469 -0.5114  0.0330
   60DOPE  H17X 7735   6.658   6.083   4.212 -0.0749 -0.9409  0.0773
   60DOPE  H17Y 7736   6.641   6.045   4.378 -0.4939  0.2986  1.0536
   60DOPE  C318 7737   6.616   6.258   4.336 -0.3043 -0.1608  0.5059
   60DOPE  H18X 7738   6.506   6.262   4.318 -0.3641  0.5324  0.9449
   60DOPE  H18Y 7739   6.637   6.290   4.441 -0.9343 -0.8298  0.8494
   60DOPE  H18Z 7740   6.664   6.337   4.275  0.4472 -1.0842 -0.1245
   6123SM     N 7741   2.972   5.377   7.058 -0.0531  0.2883 -0.3490
   6123SM   C15 7742   2.960   5.226   7.091  0.1724  0.3495  0.6283
   6123SM  H15A 7743   2.880   5.214   7.163 -3.3426 -0.8664 -3.0622
   6123SM  H15B 7744   3.048   5.183   7.136 -0.1121  0.7509  1.6023
   6123SM  H15C 7745   2.933   5.174   7.000  1.1803 -0.8350  0.9912
   6123SM   C14 7746   2.844   5.448   7.024  0.3499  0.5272  0.4333
   6123SM  H14A 7747   2.787   5.476   7.112  0.9466 -2.7833  2.0481
   6123SM  H14B 7748   2.775   5.391   6.964 -0.4012 -1.0411  2.6381
   6123SM  H14C 7749   2.872   5.533   6.964 -0.2143  1.5971  1.6436
   6123SM   C13 7750   3.033   5.436   7.186 -0.0331  0.5221 -0.1495
   6123SM  H13A 7751   3.133   5.397   7.197  0.3881  1.5022 -0.3438
   6123SM  H13B 7752   2.979   5.398   7.271  1.7765 -3.9400 -0.7442
   6123SM  H13C 7753   3.031   5.544   7.178 -1.6102  0.4535 -1.1749
   6123SM   C12 7754   3.068   5.401   6.951  0.0749 -0.3210 -0.5343
   6123SM  H12A 7755   3.169   5.374   6.976  0.0537 -0.9186 -1.0475
   6123SM  H12B 7756   3.086   5.503   6.921  0.6708 -0.8324 -2.0526
   6123SM   C11 7757   3.038   5.319   6.823 -0.5131 -1.0247  0.6859
   6123SM  H11A 7758   3.008   5.214   6.841  2.1751 -1.7675  1.1975
   6123SM  H11B 7759   3.132   5.331   6.765 -2.5652  0.2684 -2.7294
   6123SM     P 7760   2.941   5.524   6.677  0.2673 -0.2187 -0.1766
   6123SM   O13 7761   2.814   5.543   6.609 -0.3003 -0.0661  0.9031
   6123SM   O14 7762   2.979   5.619   6.780  0.0830  0.2655 -0.3320
   6123SM   O11 7763   3.043   5.522   6.566  0.4536 -0.3699 -0.3239
   6123SM   O12 7764   2.939   5.374   6.741  0.4537 -0.0565  0.1836
   6123SM   C1S 7765   3.056   5.410   6.490 -0.4460 -0.3334  0.7400
   6123SM   H1S 7766   2.968   5.391   6.425 -0.6746 -1.2474  1.3063
   6123SM   H1T 7767   3.059   5.312   6.541 -3.5350 -0.7619  0.2694
   6123SM    NF 7768   3.190   5.300   6.299  0.1797 -0.0305  0.3683
   6123SM   HNF 7769   3.263   5.235   6.317  0.8942  0.5291 -0.4018
   6123SM   C2S 7770   3.181   5.414   6.388 -0.1515 -0.2922 -0.2896
   6123SM   H2S 7771   3.159   5.500   6.322 -1.2969 -0.6004 -0.3361
   6123SM   C3S 7772   3.315   5.446   6.462 -0.0236  0.4601 -0.1473
   6123SM   H3S 7773   3.326   5.360   6.532  1.1570 -0.3423 -1.2758
   6123SM    O3 7774   3.318   5.557   6.551 -0.5921 -0.2438  0.5909
   6123SM   HO3 7775   3.231   5.597   6.554 -0.7119 -0.5607  1.5971
   6123SM   C4S 7776   3.427   5.448   6.372 -0.2557 -0.6221 -0.0233
   6123SM   H4S 7777   3.439   5.543   6.317 -1.5331  0.1356  0.9491
   6123SM   C5S 7778   3.517   5.351   6.358  0.5307 -0.4731  0.0650
   6123SM   H5S 7779   3.513   5.262   6.422  3.4447 -0.1819  0.8001
   6123SM   C6S 7780   3.641   5.358   6.278 -0.0167  0.0915 -0.4137
   6123SM   H6S 7781   3.678   5.255   6.262  1.4090  0.5038  0.0303
   6123SM   H6T 7782   3.723   5.414   6.328  1.6957 -0.9829 -1.9154
   6123SM   C7S 7783   3.619   5.424   6.135 -0.2136 -0.3277 -0.5239
   6123SM   H7S 7784   3.713   5.398   6.083  0.9204  0.8794  0.8629
   6123SM   H7T 7785   3.618   5.535   6.140 -2.2688 -0.3657  1.1980
   6123SM   C8S 7786   3.498   5.369   6.058 -0.0090 -0.1626  0.0965
   6123SM   H8S 7787   3.401   5.366   6.112  0.1722 -1.5883  0.3935
   6123SM   H8T 7788   3.514   5.260   6.038 -2.2072 -0.3250 -1.0984
   6123SM   C9S 7789   3.467   5.433   5.931 -0.1820  0.5497 -0.2546
   6123SM   H9S 7790   3.560   5.464   5.879  0.3185 -0.0992  0.2398
   6123SM   H9T 7791   3.414   5.529   5.946 -1.1196 -0.0441  0.3748
   6123SM  C10S 7792   3.373   5.359   5.841 -0.3239  0.6088 -0.6182
   6123SM  H10S 7793   3.293   5.299   5.888 -2.0274  2.1275 -1.4702
   6123SM  H10T 7794   3.432   5.287   5.780 -0.0475  0.9429 -0.7482
   6123SM  C11S 7795   3.296   5.447   5.735 -0.1995 -0.3826 -0.7001
   6123SM  H11S 7796   3.374   5.493   5.670 -1.4942  0.1461 -1.9104
   6123SM  H11T 7797   3.236   5.528   5.781  0.3413  0.4892 -1.4929
   6123SM  C12S 7798   3.209   5.354   5.651 -0.5402 -0.8725  0.6926
   6123SM  H12S 7799   3.260   5.256   5.638  1.4013  0.0959  0.6581
   6123SM  H12T 7800   3.189   5.393   5.549  0.8290 -1.9500 -0.0117
   6123SM  C13S 7801   3.080   5.311   5.718 -0.1468 -0.7966  0.7470
   6123SM  H13S 7802   3.095   5.251   5.810 -0.2028 -1.5388  0.2878
   6123SM  H13T 7803   3.030   5.249   5.640  1.8100  0.5056 -1.6972
   6123SM  C14S 7804   2.985   5.432   5.738  0.3673  0.0160 -0.0220
   6123SM  H14S 7805   3.038   5.530   5.737 -2.8491  1.8748 -0.3961
   6123SM  H14T 7806   2.938   5.423   5.838 -1.8603 -1.3924 -1.1260
   6123SM  C15S 7807   2.886   5.438   5.623  0.1069  0.4994  0.1159
   6123SM  H15S 7808   2.856   5.334   5.598  1.4020  0.2946 -0.7144
   6123SM  H15T 7809   2.936   5.481   5.534  0.6887 -2.7885 -1.2885
   6123SM  C16S 7810   2.760   5.513   5.662  0.2717  0.0790 -0.3085
   6123SM  H16S 7811   2.691   5.533   5.577 -0.5830  0.7899  0.5230
   6123SM  H16T 7812   2.787   5.617   5.688 -1.7124  0.6160 -0.2354
   6123SM  C17S 7813   2.680   5.447   5.775 -0.5759 -0.3363  0.1666
   6123SM  H17S 7814   2.597   5.518   5.795 -1.0281 -0.4280 -1.2513
   6123SM  H17T 7815   2.743   5.447   5.867  0.8234 -0.4543 -0.7601
   6123SM  C18S 7816   2.619   5.313   5.753 -0.3249  0.1153 -0.2106
   6123SM  H18S 7817   2.699   5.243   5.719 -0.8952  0.6121 -2.7097
   6123SM  H18T 7818   2.542   5.325   5.675 -0.0873 -1.6970 -0.7865
   6123SM  H18U 7819   2.583   5.273   5.850  1.5993 -2.4483 -0.4459
   6123SM   C1F 7820   3.097   5.269   6.209  1.1041  0.3545 -0.2595
   6123SM    OF 7821   3.006   5.349   6.178 -0.0272  0.0536 -0.2332
   6123SM   C2F 7822   3.094   5.127   6.149 -0.6946  0.6039 -0.1462
   6123SM   H2F 7823   3.080   5.050   6.228 -3.5775  0.8733 -0.2859
   6123SM   H2G 7824   3.194   5.116   6.102 -1.0858 -1.1859 -0.6368
   6123SM   C3F 7825   2.968   5.111   6.064  0.1094  0.2361 -0.1988
   6123SM   H3F 7826   2.973   5.185   5.981  0.4448  1.2107  0.6786
   6123SM   H3G 7827   2.885   5.131   6.135  0.8827 -0.2457  0.8661
   6123SM   C4F 7828   2.971   4.973   5.993  0.5051 -0.1181  0.2454
   6123SM   H4F 7829   2.929   4.902   6.068 -1.0014 -1.8365 -2.0900
   6123SM   H4G 7830   3.072   4.939   5.959  0.5137 -0.1798  0.3300
   6123SM   C5F 7831   2.872   4.959   5.871 -0.1925 -0.4848 -0.2124
   6123SM   H5F 7832   2.884   5.041   5.796 -0.9139 -2.2681 -2.3980
   6123SM   H5G 7833   2.770   4.987   5.904  0.0743  1.7017 -1.0332
   6123SM   C6F 7834   2.876   4.821   5.802  0.0800 -0.4560 -0.0932
   6123SM   H6F 7835   2.847   4.728   5.856  2.1474 -0.4289  1.1739
   6123SM   H6G 7836   2.982   4.813   5.769  0.1027  0.9967 -0.4385
   6123SM   C7F 7837   2.800   4.827   5.671  0.0883  0.2608  0.6528
   6123SM   H7F 7838   2.830   4.911   5.605 -2.9391  0.5600 -0.4826
   6123SM   H7G 7839   2.701   4.860   5.707 -1.3472 -1.5569 -1.4032
   6123SM   C8F 7840   2.781   4.695   5.593  0.3308  0.5223  0.0647
   6123SM   H8F 7841   2.720   4.630   5.660  1.6438 -0.6414  0.1720
   6123SM   H8G 7842   2.876   4.639   5.584 -0.1610 -0.4940  0.9018
   6123SM   C9F 7843   2.705   4.710   5.459  0.6810 -0.3007  0.0779
   6123SM   H9F 7844   2.769   4.767   5.388 -0.4038  0.5074 -0.2749
   6123SM   H9G 7845   2.615   4.770   5.482  1.2840  0.9913 -0.8423
   6123SM  C10F 7846   2.670   4.586   5.384  0.0589 -0.1456  0.7225
   6123SM  H10F 7847   2.590   4.602   5.309 -2.1105 -3.8856  1.9679
   6123SM  H10G 7848   2.634   4.513   5.459  2.5831 -3.0308 -0.6311
   6123SM  C11F 7849   2.794   4.529   5.301 -0.2444 -0.5850  0.4317
   6123SM  H11F 7850   2.882   4.511   5.367  1.5458 -1.9044 -2.1105
   6123SM  H11G 7851   2.830   4.599   5.223 -2.9661  1.3628  0.7906
   6123SM  C12F 7852   2.758   4.395   5.239 -0.0857 -0.0517 -0.3325
   6123SM  H12F 7853   2.683   4.403   5.158 -1.2262  2.2547  0.8415
   6123SM  H12G 7854   2.714   4.331   5.318  0.9894  0.4053  0.6793
   6123SM  C13F 7855   2.878   4.322   5.184 -0.3760  0.1180  0.4644
   6123SM  H13F 7856   2.939   4.294   5.272 -0.8145  0.1844  0.7898
   6123SM  H13G 7857   2.940   4.395   5.126 -0.1138  0.0526  0.6599
   6123SM  C14F 7858   2.834   4.198   5.106  0.0289  0.7905  0.4690
   6123SM  H14F 7859   2.801   4.231   5.005  0.2031 -1.8118 -0.5112
   6123SM  H14G 7860   2.741   4.169   5.158  0.0695  1.7241  1.0796
   6123SM  C15F 7861   2.934   4.085   5.088 -0.1842 -1.2891  0.3855
   6123SM  H15F 7862   2.941   4.037   5.189  1.5233  0.0129  0.9416
   6123SM  H15G 7863   3.031   4.130   5.060  0.3415 -2.3241  0.4771
   6123SM  C16F 7864   2.897   3.978   4.988  0.8293 -0.0705  0.8658
   6123SM  H16F 7865   2.876   4.032   4.893  0.2445  1.0434  1.6134
   6123SM  H16G 7866   2.804   3.929   5.024  0.9224  1.2156  3.0179
   6123SM  C17F 7867   3.011   3.877   4.978  0.3546  0.4096 -0.1779
   6123SM  H17F 7868   3.032   3.833   5.078 -0.3914  0.8340  0.1729
   6123SM  H17G 7869   3.103   3.929   4.943  1.5778 -2.3111 -1.3389
   6123SM  C18F 7870   2.968   3.753   4.891  0.3767  0.0543  0.5742
   6123SM  H18F 7871   2.972   3.762   4.780  0.0106 -1.2117  0.4417
   6123SM  H18G 7872   2.866   3.730   4.927 -0.1251  1.1063 -0.1393
   6123SM  C19F 7873   3.072   3.638   4.917 -0.3163 -0.4446 -0.0255
   6123SM  H19F 7874   3.058   3.625   5.026 -0.3851 -1.1847 -0.1165
   6123SM  H19G 7875   3.173   3.678   4.895  0.2219 -1.0243  1.2665
   6123SM  C20F 7876   3.053   3.506   4.844 -0.5280  0.1199  0.0731
   6123SM  H20F 7877   3.134   3.439   4.883 -1.1464 -0.8049 -0.2056
   6123SM  H20G 7878   3.069   3.522   4.736  1.7146 -4.2822 -0.4956
   6123SM  C21F 7879   2.924   3.438   4.872  0.3950  0.2086  0.5833
   6123SM  H21F 7880   2.915   3.357   4.797 -0.2518  0.3190  0.5407
   6123SM  H21G 7881   2.831   3.496   4.857 -0.4203 -1.0486  0.6565
   6123SM  C22F 7882   2.912   3.376   5.009 -0.2864 -0.2022  0.2981
   6123SM  H22F 7883   2.812   3.374   5.056  0.6697  0.3185  2.4870
   6123SM  H22G 7884   2.973   3.446   5.070 -0.2043  1.9431 -2.0740
   6123SM  C23F 7885   2.958   3.233   5.016 -0.0680 -0.1689 -0.2153
   6123SM  H23F 7886   3.064   3.229   4.983  0.5008  0.2869  1.4351
   6123SM  H23G 7887   2.898   3.168   4.949  1.0012 -1.2545 -0.1798
   6123SM  H23H 7888   2.960   3.183   5.116  0.4109  0.3304  0.0366
   6223SM     N 7889   1.310   2.429   7.479  0.0283 -0.8831 -0.1663
   6223SM   C15 7890   1.188   2.412   7.559 -0.0147 -0.3654 -1.0073
   6223SM  H15A 7891   1.125   2.330   7.528 -3.0775  1.2880  0.4596
   6223SM  H15B 7892   1.123   2.498   7.545 -0.5187 -0.4995  0.3997
   6223SM  H15C 7893   1.211   2.401   7.663  1.1765 -1.8647 -1.3928
   6223SM   C14 7894   1.383   2.296   7.486 -0.3394 -0.2787 -0.5219
   6223SM  H14A 7895   1.317   2.215   7.461 -1.5340  0.4973  0.0486
   6223SM  H14B 7896   1.403   2.279   7.590 -0.6598  0.3348 -0.3538
   6223SM  H14C 7897   1.478   2.299   7.434  0.0069  0.7523  0.1362
   6223SM   C13 7898   1.275   2.439   7.332 -0.9795 -0.1838  0.1369
   6223SM  H13A 7899   1.208   2.362   7.294 -0.8002  0.4734 -1.5815
   6223SM  H13B 7900   1.369   2.426   7.281 -0.4865 -0.6754  1.1448
   6223SM  H13C 7901   1.239   2.539   7.316 -3.0490 -1.0789 -1.2939
   6223SM   C12 7902   1.404   2.546   7.516 -0.1791  0.0472 -0.4968
   6223SM  H12A 7903   1.427   2.543   7.621  2.8464 -2.2991 -1.0690
   6223SM  H12B 7904   1.354   2.640   7.498  2.2345  1.2467 -1.3598
   6223SM   C11 7905   1.527   2.577   7.435 -0.5229 -0.4399  0.5414
   6223SM  H11A 7906   1.589   2.485   7.428  0.6519  0.3358  0.5438
   6223SM  H11B 7907   1.588   2.651   7.491  0.5861 -0.6154 -0.4005
   6223SM     P 7908   1.563   2.594   7.181  0.0373  0.6034 -0.0535
   6223SM   O13 7909   1.632   2.462   7.198  0.4688 -0.1254  0.2114
   6223SM   O14 7910   1.472   2.624   7.063 -0.0301  0.4935  0.2679
   6223SM   O11 7911   1.684   2.699   7.180  0.4521  0.1403 -0.3833
   6223SM   O12 7912   1.482   2.634   7.309 -0.2586  0.3214  0.2626
   6223SM   C1S 7913   1.752   2.739   7.059  0.4588  0.8461 -0.9367
   6223SM   H1S 7914   1.761   2.660   6.981  1.3879 -0.2966  0.2863
   6223SM   H1T 7915   1.855   2.770   7.084  0.2314 -0.1763  1.5745
   6223SM    NF 7916   1.728   2.860   6.846  0.3572  0.1133  0.0038
   6223SM   HNF 7917   1.791   2.934   6.826 -1.1013  1.1294 -1.0664
   6223SM   C2S 7918   1.693   2.861   6.989  0.3578  0.2075 -0.4464
   6223SM   H2S 7919   1.586   2.833   6.994 -0.0452  1.8313  1.2774
   6223SM   C3S 7920   1.714   2.985   7.078  0.3335 -0.3853  0.2518
   6223SM   H3S 7921   1.822   3.011   7.089  0.2058 -0.4574  1.8984
   6223SM    O3 7922   1.681   2.959   7.213 -0.0817  0.4226 -0.0243
   6223SM   HO3 7923   1.666   2.864   7.213 -0.8104  0.5158 -0.7701
   6223SM   C4S 7924   1.651   3.105   7.017  0.1224 -0.1835 -0.6444
   6223SM   H4S 7925   1.716   3.151   6.941  0.3553 -1.0816 -0.9966
   6223SM   C5S 7926   1.533   3.165   7.041  0.1601  0.2405 -0.0108
   6223SM   H5S 7927   1.469   3.115   7.116  1.2413  0.2084  0.9144
   6223SM   C6S 7928   1.489   3.298   6.980  0.0604 -0.0856 -0.3203
   6223SM   H6S 7929   1.500   3.379   7.056 -2.5856  1.9766 -1.9698
   6223SM   H6T 7930   1.381   3.296   6.956  0.0244 -2.0941 -0.2022
   6223SM   C7S 7931   1.563   3.357   6.850  1.0630 -0.2706 -0.4118
   6223SM   H7S 7932   1.671   3.357   6.877  0.9943 -0.3562 -0.1355
   6223SM   H7T 7933   1.535   3.464   6.836  3.1226  0.2266 -1.1238
   6223SM   C8S 7934   1.539   3.262   6.727 -0.9109  0.3713  0.1749
   6223SM   H8S 7935   1.431   3.270   6.702 -0.7776  0.1912 -0.4647
   6223SM   H8T 7936   1.562   3.158   6.759  1.3166  0.3090 -1.4056
   6223SM   C9S 7937   1.632   3.286   6.602 -0.0674 -0.7863  0.0660
   6223SM   H9S 7938   1.736   3.299   6.639 -0.1974  0.5352 -0.0133
   6223SM   H9T 7939   1.601   3.385   6.562  2.7540  0.5339  0.9271
   6223SM  C10S 7940   1.619   3.179   6.503  0.6096  0.4815 -0.3694
   6223SM  H10S 7941   1.518   3.135   6.489  1.0081  0.2875 -3.3029
   6223SM  H10T 7942   1.691   3.099   6.533  3.6440  1.9498 -3.0502
   6223SM  C11S 7943   1.671   3.216   6.367  0.5898 -0.1686  0.0161
   6223SM  H11S 7944   1.780   3.232   6.377  0.5328  0.5690 -0.4412
   6223SM  H11T 7945   1.619   3.310   6.339 -2.5284 -2.5176 -2.9171
   6223SM  C12S 7946   1.659   3.109   6.252 -0.1849  0.5126 -0.2168
   6223SM  H12S 7947   1.554   3.097   6.217  0.5511 -1.0149 -2.1133
   6223SM  H12T 7948   1.690   3.011   6.294 -1.3946 -0.5138 -1.5578
   6223SM  C13S 7949   1.755   3.141   6.137 -0.3812 -0.3084 -0.4359
   6223SM  H13S 7950   1.747   3.060   6.061 -0.0370 -0.0738 -0.7304
   6223SM  H13T 7951   1.861   3.164   6.160  0.5264 -0.8127 -3.6028
   6223SM  C14S 7952   1.704   3.261   6.046 -0.0611  0.2866 -0.2988
   6223SM  H14S 7953   1.712   3.360   6.096  2.1625  0.0763 -0.1522
   6223SM  H14T 7954   1.598   3.245   6.017 -0.9268  1.4871  1.9190
   6223SM  C15S 7955   1.789   3.268   5.925  0.1417  0.0385  0.6941
   6223SM  H15S 7956   1.768   3.184   5.855  0.5059 -1.2224  2.0326
   6223SM  H15T 7957   1.896   3.250   5.950  0.0606 -2.6045 -0.4943
   6223SM  C16S 7958   1.779   3.410   5.865  0.0911  0.8499 -0.3228
   6223SM  H16S 7959   1.806   3.494   5.932  0.4418  0.9385 -0.5704
   6223SM  H16T 7960   1.673   3.433   5.841 -0.5529 -0.0104  1.5579
   6223SM  C17S 7961   1.871   3.426   5.746  0.2725 -0.1714 -0.0828
   6223SM  H17S 7962   1.825   3.383   5.654  1.0272 -0.7707 -0.1947
   6223SM  H17T 7963   1.970   3.380   5.768  0.1129 -0.7360 -0.4992
   6223SM  C18S 7964   1.883   3.573   5.724  0.3381 -0.2349  0.5661
   6223SM  H18S 7965   1.787   3.624   5.703  0.8698 -0.2034 -2.0957
   6223SM  H18T 7966   1.948   3.582   5.634 -2.3864 -0.5205 -1.5436
   6223SM  H18U 7967   1.947   3.623   5.801 -0.0638 -0.7797  1.2681
   6223SM   C1F 7968   1.693   2.772   6.753 -0.2319  0.1150 -0.1127
   6223SM    OF 7969   1.607   2.684   6.775  0.2320 -0.6694 -0.6620
   6223SM   C2F 7970   1.763   2.789   6.616  0.5813  0.3690  0.1285
   6223SM   H2F 7971   1.866   2.746   6.620 -0.1886 -1.6288 -0.2173
   6223SM   H2G 7972   1.781   2.897   6.600  2.6711  0.3416  1.8505
   6223SM   C3F 7973   1.687   2.730   6.493  0.4249 -0.1454 -0.7461
   6223SM   H3F 7974   1.593   2.789   6.482  0.1440 -0.0819  1.6187
   6223SM   H3G 7975   1.672   2.620   6.504  2.3334 -0.4802 -1.1986
   6223SM   C4F 7976   1.766   2.751   6.360 -0.4192 -0.4360  0.8308
   6223SM   H4F 7977   1.837   2.834   6.378 -1.6675  1.4849 -2.3634
   6223SM   H4G 7978   1.685   2.788   6.294 -1.6755 -0.1425  2.4524
   6223SM   C5F 7979   1.847   2.627   6.319 -0.6549 -0.5939  0.3794
   6223SM   H5F 7980   1.791   2.533   6.297 -0.9545 -0.8930  2.2614
   6223SM   H5G 7981   1.903   2.589   6.407  2.1734  3.1974  0.4784
   6223SM   C6F 7982   1.944   2.657   6.208 -0.0568 -0.2296  0.5620
   6223SM   H6F 7983   1.984   2.559   6.176 -0.8280 -1.4001  2.9680
   6223SM   H6G 7984   2.023   2.726   6.245  0.2271 -1.2496  1.9221
   6223SM   C7F 7985   1.868   2.726   6.091 -0.2406  0.4961  0.3034
   6223SM   H7F 7986   1.811   2.814   6.127 -1.0360 -0.0446  0.3755
   6223SM   H7G 7987   1.799   2.652   6.046 -0.4441 -0.8510  2.6342
   6223SM   C8F 7988   1.972   2.781   5.985  0.4679  0.0793  0.0707
   6223SM   H8F 7989   2.005   2.685   5.941  0.6454 -1.5413  3.3769
   6223SM   H8G 7990   2.055   2.826   6.045  0.0446 -1.9410  2.3267
   6223SM   C9F 7991   1.922   2.867   5.870  1.1592 -0.3347  0.1146
   6223SM   H9F 7992   1.877   2.962   5.907  1.0657  0.5944 -2.2592
   6223SM   H9G 7993   1.853   2.815   5.800  2.3725 -0.5226 -0.9715
   6223SM  C10F 7994   2.033   2.908   5.778 -0.1596 -0.2627 -0.3549
   6223SM  H10F 7995   2.091   2.827   5.730  2.0898  1.0340 -0.0018
   6223SM  H10G 7996   2.119   2.963   5.824 -0.4504  0.4098 -0.5994
   6223SM  C11F 7997   1.991   3.010   5.666  0.5034  0.4343  0.4858
   6223SM  H11F 7998   1.958   3.108   5.707 -0.1584  1.2173 -1.7934
   6223SM  H11G 7999   1.900   2.966   5.620  0.4446  1.4609 -0.4164
   6223SM  C12F 8000   2.092   3.034   5.553 -0.0509  0.4052 -0.2080
   6223SM  H12F 8001   2.099   2.940   5.494  1.9374 -0.2256  0.9302
   6223SM  H12G 8002   2.196   3.043   5.592 -0.3724  3.9219  0.1701
   6223SM  C13F 8003   2.055   3.160   5.464 -0.2566  0.1986 -0.0389
   6223SM  H13F 8004   2.055   3.260   5.512 -1.9942  0.8219 -1.2461
   6223SM  H13G 8005   1.955   3.142   5.421 -0.7244  0.9576  0.7030
   6223SM  C14F 8006   2.168   3.172   5.357  0.1659  0.0042  0.1069
   6223SM  H14F 8007   2.143   3.091   5.285 -0.3213  1.6751 -1.6817
   6223SM  H14G 8008   2.259   3.146   5.415 -1.4482 -2.0091  1.9013
   6223SM  C15F 8009   2.180   3.310   5.291  0.5771 -0.1221 -0.0844
   6223SM  H15F 8010   2.249   3.320   5.204  1.0696 -0.0651  0.3094
   6223SM  H15G 8011   2.221   3.380   5.367 -0.5326 -1.1552  1.4956
   6223SM  C16F 8012   2.044   3.368   5.239 -0.2559  0.5098  0.4400
   6223SM  H16F 8013   2.056   3.478   5.241  0.7282  0.4086  0.8931
   6223SM  H16G 8014   1.958   3.339   5.302 -1.8273  2.6382 -0.6158
   6223SM  C17F 8015   2.012   3.320   5.098 -0.3822  0.2511  0.5196
   6223SM  H17F 8016   1.957   3.224   5.109  0.1093 -0.0727  0.1686
   6223SM  H17G 8017   2.105   3.288   5.048  0.2871  0.9986  1.2441
   6223SM  C18F 8018   1.933   3.412   5.008  0.1474 -0.1652  1.1085
   6223SM  H18F 8019   1.825   3.416   5.033 -0.0590 -1.9534  0.6706
   6223SM  H18G 8020   1.925   3.368   4.906  0.2549  0.5374  0.7911
   6223SM  C19F 8021   1.998   3.549   4.988 -0.3340  0.0224 -0.3840
   6223SM  H19F 8022   2.108   3.541   4.997 -0.2921  0.2108 -0.6852
   6223SM  H19G 8023   1.979   3.608   5.080  0.8332 -1.3747  0.7755
   6223SM  C20F 8024   1.963   3.625   4.854  0.1565  0.3791 -0.1275
   6223SM  H20F 8025   1.976   3.549   4.774 -0.0717  0.1561  0.0410
   6223SM  H20G 8026   2.038   3.702   4.828 -0.8543  0.8018 -1.9383
   6223SM  C21F 8027   1.816   3.674   4.841  0.2844  0.6032 -0.1483
   6223SM  H21F 8028   1.753   3.590   4.806 -0.7157  0.4808  1.8222
   6223SM  H21G 8029   1.831   3.751   4.762  0.0271  0.1928 -0.5989
   6223SM  C22F 8030   1.766   3.754   4.958  0.6465 -0.2671 -0.1288
   6223SM  H22F 8031   1.849   3.825   4.982  0.4803  1.0736 -3.1320
   6223SM  H22G 8032   1.755   3.687   5.046 -1.3825 -1.3122 -1.1153
   6223SM  C23F 8033   1.631   3.826   4.952 -0.6196 -0.2771 -0.2670
   6223SM  H23F 8034   1.615   3.880   5.048 -1.4950  0.0177 -0.5691
   6223SM  H23G 8035   1.542   3.760   4.941  1.4296 -3.0091 -1.4143
   6223SM  H23H 8036   1.641   3.904   4.873  0.5761  1.8142  1.8374
   6323SM     N 8037   5.373   6.819   7.139 -0.0379  0.3123  0.1487
   6323SM   C15 8038   5.430   6.941   7.214 -0.2618 -0.3213  0.1515
   6323SM  H15A 8039   5.405   7.029   7.156  1.1088  0.3278  0.5084
   6323SM  H15B 8040   5.537   6.937   7.214 -0.2365  0.1818  0.8814
   6323SM  H15C 8041   5.406   6.948   7.319 -2.0380  0.8655 -0.2774
   6323SM   C14 8042   5.398   6.698   7.222 -0.5602 -0.5291  0.4285
   6323SM  H14A 8043   5.504   6.684   7.215 -0.6171 -0.8335  0.1425
   6323SM  H14B 8044   5.342   6.613   7.186  0.4749 -0.8619 -0.4467
   6323SM  H14C 8045   5.370   6.710   7.326  1.8270  2.5586  0.8531
   6323SM   C13 8046   5.231   6.848   7.127  0.3000 -0.1434  0.4320
   6323SM  H13A 8047   5.177   6.770   7.075  1.9057 -0.1274 -1.3543
   6323SM  H13B 8048   5.212   6.940   7.075  0.7894  0.4713  1.3241
   6323SM  H13C 8049   5.187   6.858   7.225  0.3999 -1.3725  0.6198
   6323SM   C12 8050   5.454   6.808   7.003 -0.3475 -0.4268 -0.1765
   6323SM  H12A 8051   5.413   6.884   6.937 -1.2843  0.1761  1.0382
   6323SM  H12B 8052   5.422   6.716   6.957 -0.8198 -0.6317  0.5440
   6323SM   C11 8053   5.604   6.816   7.004 -0.5366  0.0157  0.1986
   6323SM  H11A 8054   5.649   6.904   7.056  2.6048 -1.9123  0.9940
   6323SM  H11B 8055   5.636   6.840   6.900 -1.7715  0.8479 -0.0067
   6323SM     P 8056   5.681   6.569   6.966 -0.0168  0.0205  0.0714
   6323SM   O13 8057   5.768   6.470   7.033  0.2613  0.4610  0.2210
   6323SM   O14 8058   5.543   6.529   6.919 -0.5468  0.3296  1.0632
   6323SM   O11 8059   5.767   6.623   6.838 -0.5236  0.2349 -0.4897
   6323SM   O12 8060   5.655   6.692   7.060 -0.1349 -1.1213 -0.2100
   6323SM   C1S 8061   5.808   6.533   6.734 -0.0140 -0.3647  0.0982
   6323SM   H1S 8062   5.766   6.430   6.742 -2.2152  0.5187  0.5944
   6323SM   H1T 8063   5.918   6.520   6.742  0.2257  1.2062 -0.2636
   6323SM    NF 8064   5.904   6.537   6.515 -0.2029 -0.1782  0.7477
   6323SM   HNF 8065   5.988   6.589   6.529 -0.2665  0.1461 -0.0184
   6323SM   C2S 8066   5.788   6.583   6.590  0.1636  0.6976  0.0648
   6323SM   H2S 8067   5.698   6.536   6.547  1.8571 -1.7403 -1.0386
   6323SM   C3S 8068   5.765   6.733   6.592  0.4133  0.5804  0.3056
   6323SM   H3S 8069   5.844   6.779   6.655  1.9886  0.0930 -1.2383
   6323SM    O3 8070   5.640   6.783   6.647 -0.3345 -0.0972 -0.3051
   6323SM   HO3 8071   5.616   6.720   6.714  0.7893  0.0110  0.2219
   6323SM   C4S 8072   5.791   6.797   6.463  0.0138 -0.0553  0.4814
   6323SM   H4S 8073   5.899   6.817   6.458  0.2728 -1.6023 -1.8475
   6323SM   C5S 8074   5.709   6.840   6.363  0.0242 -0.1436 -0.0927
   6323SM   H5S 8075   5.604   6.807   6.362  0.4172 -1.4198 -0.0918
   6323SM   C6S 8076   5.743   6.898   6.226  0.6299  0.0997 -0.3921
   6323SM   H6S 8077   5.711   7.004   6.234  1.9996  0.8225 -3.2371
   6323SM   H6T 8078   5.678   6.847   6.152  1.0133 -2.5284  0.9663
   6323SM   C7S 8079   5.893   6.891   6.177 -0.0015 -0.1896 -0.2825
   6323SM   H7S 8080   5.960   6.932   6.256 -1.3808 -1.0387  1.3816
   6323SM   H7T 8081   5.873   6.953   6.087 -0.6235  0.1335  0.0766
   6323SM   C8S 8082   5.930   6.752   6.137 -0.3529 -0.0293  0.7465
   6323SM   H8S 8083   5.853   6.713   6.068  0.2121 -0.3734  0.2958
   6323SM   H8T 8084   5.923   6.683   6.223 -1.8578 -0.2589  0.4636
   6323SM   C9S 8085   6.071   6.722   6.078  0.2724  0.1382 -0.1223
   6323SM   H9S 8086   6.081   6.802   6.002 -1.5282  0.7566  0.2400
   6323SM   H9T 8087   6.064   6.630   6.017 -3.0828  1.3184 -1.7443
   6323SM  C10S 8088   6.183   6.732   6.180 -0.0720  0.4843  0.4908
   6323SM  H10S 8089   6.137   6.682   6.268 -0.9832 -0.9322 -0.7373
   6323SM  H10T 8090   6.212   6.837   6.202 -3.0787  1.8206 -1.3415
   6323SM  C11S 8091   6.300   6.638   6.149 -0.1753  0.5426 -0.3742
   6323SM  H11S 8092   6.306   6.636   6.038 -0.3414 -0.1680 -0.3734
   6323SM  H11T 8093   6.280   6.535   6.184  1.0248  0.6326  0.6163
   6323SM  C12S 8094   6.427   6.693   6.210 -0.1272  0.5729 -0.2887
   6323SM  H12S 8095   6.417   6.718   6.317 -0.5223 -1.7920  0.2679
   6323SM  H12T 8096   6.441   6.793   6.162  0.9874  0.1509 -0.8771
   6323SM  C13S 8097   6.554   6.611   6.185 -0.0061 -0.0108 -0.1884
   6323SM  H13S 8098   6.556   6.601   6.074  0.2145 -2.6090 -0.0200
   6323SM  H13T 8099   6.553   6.507   6.224 -1.1871 -0.1924 -0.6419
   6323SM  C14S 8100   6.682   6.689   6.230 -0.9177  0.5940  0.3751
   6323SM  H14S 8101   6.771   6.625   6.213 -0.9963  0.1370  1.5910
   6323SM  H14T 8102   6.684   6.704   6.340 -0.6038  1.5891  0.2486
   6323SM  C15S 8103   6.703   6.821   6.151  0.3284 -0.2684  0.1507
   6323SM  H15S 8104   6.634   6.894   6.198  1.7135  0.1439  1.6374
   6323SM  H15T 8105   6.663   6.815   6.047 -2.7257  1.3503  1.1227
   6323SM  C16S 8106   6.842   6.865   6.157 -0.0083  0.6666 -0.2483
   6323SM  H16S 8107   6.906   6.781   6.123 -0.7083 -0.0222  0.0892
   6323SM  H16T 8108   6.872   6.878   6.263  0.5772 -2.3702  0.0612
   6323SM  C17S 8109   6.884   6.997   6.086  0.6408  0.0830  0.2260
   6323SM  H17S 8110   6.844   7.000   5.982  0.2229 -2.6489  0.2414
   6323SM  H17T 8111   6.995   7.004   6.085  0.7446 -1.1623  0.7469
   6323SM  C18S 8112   6.835   7.126   6.165 -0.8348 -0.1056 -0.2227
   6323SM  H18S 8113   6.878   7.216   6.116 -0.3554  0.3555  0.9828
   6323SM  H18T 8114   6.864   7.119   6.272 -2.1078 -0.1429  0.1352
   6323SM  H18U 8115   6.725   7.126   6.150 -0.7106 -3.5493 -1.8912
   6323SM   C1F 8116   5.907   6.411   6.461 -0.6331 -0.1033  0.3497
   6323SM    OF 8117   5.823   6.324   6.483  0.2332  0.0712 -0.4764
   6323SM   C2F 8118   6.029   6.381   6.370  0.5170  0.2856 -0.3133
   6323SM   H2F 8119   6.122   6.381   6.431  0.4613 -1.8864 -0.1616
   6323SM   H2G 8120   6.027   6.460   6.291 -0.5637  1.2012  0.5829
   6323SM   C3F 8121   6.015   6.238   6.309  0.0070 -0.2485 -0.0330
   6323SM   H3F 8122   5.907   6.230   6.285  0.6199 -4.3373 -2.3124
   6323SM   H3G 8123   6.050   6.165   6.386  0.7797  1.4674  1.3200
   6323SM   C4F 8124   6.095   6.214   6.184 -0.4110 -0.0596 -0.2871
   6323SM   H4F 8125   6.075   6.107   6.162 -0.6646  0.1072 -0.8784
   6323SM   H4G 8126   6.204   6.232   6.201 -0.2315  0.2965 -1.7086
   6323SM   C5F 8127   6.048   6.315   6.076 -0.2436  0.5702 -0.2809
   6323SM   H5F 8128   6.073   6.413   6.121  1.7457 -0.4480  1.0577
   6323SM   H5G 8129   5.942   6.295   6.050  0.4239 -2.2012 -1.2174
   6323SM   C6F 8130   6.123   6.294   5.938  0.0138 -0.2558 -0.3644
   6323SM   H6F 8131   6.146   6.186   5.929  1.6551  0.2209 -2.7165
   6323SM   H6G 8132   6.205   6.363   5.965 -0.0511 -0.9448  1.8449
   6323SM   C7F 8133   6.039   6.341   5.825 -0.3833 -0.0159 -0.3501
   6323SM   H7F 8134   6.051   6.451   5.811 -0.8664  0.1180  0.2359
   6323SM   H7G 8135   5.930   6.355   5.842 -0.8836 -1.7778 -1.7605
   6323SM   C8F 8136   6.074   6.267   5.694 -0.0963 -0.7628 -0.2396
   6323SM   H8F 8137   6.179   6.235   5.704  0.0375 -0.2856 -0.0692
   6323SM   H8G 8138   6.061   6.341   5.612  0.1322  1.4118  1.5527
   6323SM   C9F 8139   5.988   6.140   5.658  0.1886  0.5254 -0.1585
   6323SM   H9F 8140   5.880   6.164   5.647  0.2980  0.8640 -0.5046
   6323SM   H9G 8141   6.004   6.065   5.738  0.5021  0.1410 -0.5756
   6323SM  C10F 8142   6.032   6.080   5.528 -0.6877  0.6699 -0.0187
   6323SM  H10F 8143   5.957   6.000   5.512 -1.2512  1.0798  0.5404
   6323SM  H10G 8144   6.132   6.030   5.534  0.2606  2.3829 -0.8155
   6323SM  C11F 8145   6.021   6.173   5.399 -0.4665  0.2302 -0.0437
   6323SM  H11F 8146   5.942   6.251   5.406 -1.7021 -1.1331  2.0497
   6323SM  H11G 8147   5.991   6.104   5.318 -1.9930 -0.2422  0.8947
   6323SM  C12F 8148   6.155   6.237   5.365  0.1846  0.0781 -0.5996
   6323SM  H12F 8149   6.230   6.156   5.379 -1.1726 -1.2423 -0.6218
   6323SM  H12G 8150   6.168   6.323   5.433 -1.3205 -0.2652  0.1807
   6323SM  C13F 8151   6.149   6.293   5.226 -0.1038 -0.2143  0.0266
   6323SM  H13F 8152   6.234   6.364   5.218 -3.0491  3.5098 -1.4759
   6323SM  H13G 8153   6.058   6.352   5.201  1.0096  1.3944 -0.4044
   6323SM  C14F 8154   6.153   6.183   5.114 -0.2774  0.0807  0.5934
   6323SM  H14F 8155   6.069   6.113   5.126 -0.3782 -0.0531 -0.7509
   6323SM  H14G 8156   6.248   6.127   5.122 -1.7995 -3.2390 -2.2112
   6323SM  C15F 8157   6.158   6.239   4.975 -0.1399 -0.2656  0.0297
   6323SM  H15F 8158   6.087   6.323   4.957  1.9075  1.7521  0.7953
   6323SM  H15G 8159   6.145   6.153   4.906 -1.4336  0.9259 -1.2839
   6323SM  C16F 8160   6.294   6.303   4.949 -0.3963  0.4433 -0.4465
   6323SM  H16F 8161   6.367   6.234   4.997  0.2360  0.0296 -1.9320
   6323SM  H16G 8162   6.304   6.402   4.999  5.4870  0.1697 -0.4693
   6323SM  C17F 8163   6.338   6.293   4.800 -0.2614  0.1374  0.5475
   6323SM  H17F 8164   6.316   6.191   4.763  3.7089 -1.2665  1.5677
   6323SM  H17G 8165   6.448   6.305   4.792 -0.2959  0.6520  0.8096
   6323SM  C18F 8166   6.282   6.403   4.709  0.5490  0.6819 -0.7122
   6323SM  H18F 8167   6.315   6.501   4.751 -0.2485  0.4588  0.4980
   6323SM  H18G 8168   6.172   6.404   4.718  0.4694 -1.0415 -1.2391
   6323SM  C19F 8169   6.311   6.385   4.568  0.8045 -0.8961  0.2003
   6323SM  H19F 8170   6.277   6.290   4.521  5.3509 -2.6846  0.0225
   6323SM  H19G 8171   6.422   6.394   4.567  0.6836  0.9349 -0.6857
   6323SM  C20F 8172   6.262   6.507   4.487  0.9603 -0.9491 -0.0348
   6323SM  H20F 8173   6.296   6.605   4.527 -1.7769  1.1290 -2.4274
   6323SM  H20G 8174   6.151   6.511   4.487  0.9802 -0.4296 -0.1589
   6323SM  C21F 8175   6.309   6.497   4.337  0.0757 -0.1256  0.1161
   6323SM  H21F 8176   6.419   6.478   4.331  0.3115  1.1228  0.0999
   6323SM  H21G 8177   6.298   6.600   4.296 -3.1537  0.4488  2.0972
   6323SM  C22F 8178   6.227   6.409   4.241 -0.0548  0.0080  0.0825
   6323SM  H22F 8179   6.120   6.441   4.236  0.1848  0.7350 -0.5536
   6323SM  H22G 8180   6.233   6.306   4.282  2.1799 -0.1175 -0.4546
   6323SM  C23F 8181   6.281   6.411   4.100  0.6206  0.3041  0.3073
   6323SM  H23F 8182   6.382   6.366   4.098  0.3790 -0.1975 -0.6834
   6323SM  H23G 8183   6.285   6.511   4.051 -1.7226 -0.4063 -1.4817
   6323SM  H23H 8184   6.230   6.338   4.034  2.6337  0.8555 -1.9496
   6423SM     N 8185   2.476   3.877   7.735 -0.0303  0.4339  0.2720
   6423SM   C15 8186   2.409   4.013   7.754  0.0014  0.0435  0.1339
   6423SM  H15A 8187   2.310   4.010   7.710 -1.0343  0.0924  2.3503
   6423SM  H15B 8188   2.466   4.089   7.704  2.4826 -1.4306  0.5618
   6423SM  H15C 8189   2.395   4.035   7.859 -0.3933  2.4185 -0.3714
   6423SM   C14 8190   2.590   3.872   7.835  0.1872  0.0729  0.0235
   6423SM  H14A 8191   2.661   3.792   7.820 -0.0541 -0.4853  1.6601
   6423SM  H14B 8192   2.544   3.849   7.930 -1.0728 -1.9060 -0.9781
   6423SM  H14C 8193   2.646   3.964   7.831 -1.9190  1.3888 -2.1355
   6423SM   C13 8194   2.365   3.781   7.770 -0.4830 -0.3030 -1.0828
   6423SM  H13A 8195   2.267   3.803   7.731 -1.3000 -1.1828  0.3948
   6423SM  H13B 8196   2.354   3.778   7.877  0.6800  1.5480 -0.8755
   6423SM  H13C 8197   2.392   3.681   7.739 -0.7661 -0.8317  0.3102
   6423SM   C12 8198   2.524   3.856   7.588  0.4912  0.1330  0.0702
   6423SM  H12A 8199   2.562   3.955   7.567  0.1291  0.2080 -0.2357
   6423SM  H12B 8200   2.431   3.837   7.537 -0.1193  1.6998  0.5290
   6423SM   C11 8201   2.634   3.750   7.551 -0.3672 -1.1227 -0.5089
   6423SM  H11A 8202   2.713   3.747   7.628  0.2892  1.1274 -1.0376
   6423SM  H11B 8203   2.679   3.777   7.454 -0.9616  0.3204 -0.4007
   6423SM     P 8204   2.501   3.570   7.441  0.1402 -0.2810  0.1058
   6423SM   O13 8205   2.484   3.426   7.450 -0.1409  0.5609  0.0272
   6423SM   O14 8206   2.369   3.641   7.433 -0.0426 -0.2426  0.1583
   6423SM   O11 8207   2.593   3.598   7.310 -0.0318 -0.1217 -0.3269
   6423SM   O12 8208   2.589   3.615   7.555 -0.5616 -0.0262 -0.0778
   6423SM   C1S 8209   2.729   3.541   7.314 -0.2105 -0.1759 -0.6402
   6423SM   H1S 8210   2.720   3.430   7.311 -0.3476 -0.1384 -2.0361
   6423SM   H1T 8211   2.792   3.572   7.401 -0.1797  0.1093 -0.7647
   6423SM    NF 8212   2.945   3.494   7.210  0.2354  0.1374 -0.2948
   6423SM   HNF 8213   3.027   3.545   7.234 -0.0475  0.4088  0.1041
   6423SM   C2S 8214   2.827   3.578   7.197 -0.1599  0.5479 -0.0607
   6423SM   H2S 8215   2.768   3.555   7.106 -1.9414 -2.2889  1.6465
   6423SM   C3S 8216   2.856   3.734   7.186  0.0632  0.7397  0.0197
   6423SM   H3S 8217   2.911   3.758   7.280 -0.5781 -1.4057  1.0079
   6423SM    O3 8218   2.737   3.814   7.171 -0.4325  0.0069 -0.1563
   6423SM   HO3 8219   2.677   3.740   7.185  3.3781 -3.3065  0.4486
   6423SM   C4S 8220   2.937   3.760   7.069  0.0552 -0.1837 -0.5720
   6423SM   H4S 8221   2.903   3.703   6.981  1.5833 -1.2911 -0.4963
   6423SM   C5S 8222   3.053   3.823   7.067  0.2124  0.0669  0.4573
   6423SM   H5S 8223   3.085   3.872   7.161 -1.0352 -2.4414  2.3075
   6423SM   C6S 8224   3.134   3.834   6.942 -0.0812 -0.5854 -0.1765
   6423SM   H6S 8225   3.185   3.933   6.933  0.9542 -1.1216 -0.4083
   6423SM   H6T 8226   3.068   3.824   6.853  0.8239 -2.9633 -0.6505
   6423SM   C7S 8227   3.228   3.710   6.929 -0.2594  0.1106 -0.3239
   6423SM   H7S 8228   3.173   3.615   6.912  0.7547 -0.0338 -3.2823
   6423SM   H7T 8229   3.278   3.691   7.026  0.9474 -2.6725 -1.3657
   6423SM   C8S 8230   3.332   3.718   6.816  0.3720  0.1023 -0.1893
   6423SM   H8S 8231   3.432   3.682   6.851  1.2347  3.8282  1.7353
   6423SM   H8T 8232   3.358   3.823   6.791 -0.5494  0.2121 -0.6881
   6423SM   C9S 8233   3.286   3.649   6.683 -0.1563 -0.1874 -0.7529
   6423SM   H9S 8234   3.202   3.708   6.642 -1.4458  0.0333  1.9922
   6423SM   H9T 8235   3.243   3.552   6.717 -2.1995  1.2591  1.0911
   6423SM  C10S 8236   3.399   3.635   6.579 -0.3016 -0.3203 -0.2001
   6423SM  H10S 8237   3.458   3.543   6.599 -1.3723 -0.6943  1.3719
   6423SM  H10T 8238   3.460   3.727   6.592  0.6006 -1.1132  1.5330
   6423SM  C11S 8239   3.349   3.603   6.432 -0.9363 -0.8172 -0.5500
   6423SM  H11S 8240   3.273   3.678   6.402  1.9568  2.8121  0.4640
   6423SM  H11T 8241   3.300   3.503   6.435 -2.2239 -0.2183 -1.0717
   6423SM  C12S 8242   3.460   3.607   6.328  0.0956 -0.0691  0.2095
   6423SM  H12S 8243   3.550   3.559   6.371 -1.2702 -1.5788  1.5471
   6423SM  H12T 8244   3.480   3.713   6.304  0.8220 -0.4402 -0.8746
   6423SM  C13S 8245   3.424   3.532   6.194 -0.0953 -0.0791  0.3545
   6423SM  H13S 8246   3.353   3.449   6.214 -0.6121  0.7090  1.9095
   6423SM  H13T 8247   3.519   3.496   6.149  0.9185  1.0386  1.5036
   6423SM  C14S 8248   3.349   3.636   6.095 -0.4472 -0.1607  0.1110
   6423SM  H14S 8249   3.409   3.725   6.066 -1.5924  0.2518 -1.0777
   6423SM  H14T 8250   3.259   3.671   6.150 -0.4389  1.3920 -0.8079
   6423SM  C15S 8251   3.293   3.560   5.977 -0.1416  0.6552  0.1172
   6423SM  H15S 8252   3.222   3.480   6.009  1.6228  0.2309  3.4748
   6423SM  H15T 8253   3.376   3.516   5.918 -0.0349 -1.1958  1.5337
   6423SM  C16S 8254   3.223   3.649   5.874 -0.2948 -0.3448  0.2327
   6423SM  H16S 8255   3.192   3.588   5.787  2.1345 -1.9541  0.3895
   6423SM  H16T 8256   3.299   3.722   5.839 -0.6598  0.2688  0.7078
   6423SM  C17S 8257   3.113   3.748   5.920 -0.3165 -0.4525 -0.3042
   6423SM  H17S 8258   3.162   3.815   5.994 -0.9053 -1.2242  0.8066
   6423SM  H17T 8259   3.036   3.694   5.980  0.0689 -0.5139  0.1423
   6423SM  C18S 8260   3.042   3.828   5.810 -0.0260 -0.0044 -0.5271
   6423SM  H18S 8261   2.983   3.904   5.866  2.1421  1.5529 -0.2075
   6423SM  H18T 8262   2.970   3.778   5.742  0.0270  0.6317 -1.0550
   6423SM  H18U 8263   3.116   3.882   5.748  1.6554 -3.2809 -1.5786
   6423SM   C1F 8264   2.946   3.358   7.194 -0.6331  0.3922 -0.2310
   6423SM    OF 8265   2.847   3.290   7.174 -0.1836  0.3170  0.5836
   6423SM   C2F 8266   3.082   3.295   7.191  0.3588  0.0060 -0.4119
   6423SM   H2F 8267   3.088   3.234   7.284 -1.7912 -0.5366 -0.5932
   6423SM   H2G 8268   3.162   3.370   7.213  1.3501 -1.0105 -0.4745
   6423SM   C3F 8269   3.111   3.221   7.056 -0.7716  0.4152 -0.7374
   6423SM   H3F 8270   3.036   3.142   7.033 -0.6624 -0.0456  0.4137
   6423SM   H3G 8271   3.209   3.168   7.066 -1.6076 -0.7577  2.3152
   6423SM   C4F 8272   3.119   3.326   6.944  0.0215 -0.1139 -0.4844
   6423SM   H4F 8273   3.197   3.402   6.967  1.3165 -1.7764  0.9662
   6423SM   H4G 8274   3.018   3.372   6.940  0.3392  0.7099  0.4745
   6423SM   C5F 8275   3.150   3.273   6.802 -0.6529  0.2356 -0.8296
   6423SM   H5F 8276   3.122   3.352   6.729 -0.4203 -1.8991 -3.3785
   6423SM   H5G 8277   3.077   3.189   6.793 -0.0162 -0.6735  1.7101
   6423SM   C6F 8278   3.293   3.225   6.788 -0.4047  0.0869 -0.0133
   6423SM   H6F 8279   3.308   3.143   6.862  1.2147 -0.1668 -0.5694
   6423SM   H6G 8280   3.358   3.306   6.827 -1.2397 -0.4515  2.6935
   6423SM   C7F 8281   3.328   3.169   6.651 -0.5883 -0.0548 -0.7302
   6423SM   H7F 8282   3.314   3.252   6.579  2.2800  0.6239 -0.6107
   6423SM   H7G 8283   3.254   3.091   6.623 -0.2934 -0.1195 -1.3324
   6423SM   C8F 8284   3.470   3.110   6.646 -0.4289  0.2591  0.0179
   6423SM   H8F 8285   3.487   3.031   6.722  2.3053  1.0692  0.3704
   6423SM   H8G 8286   3.538   3.196   6.667  0.2082 -0.1295 -0.4297
   6423SM   C9F 8287   3.498   3.061   6.503 -0.5284  0.7506  0.8096
   6423SM   H9F 8288   3.438   2.973   6.475  0.3743  0.2478  0.4148
   6423SM   H9G 8289   3.603   3.024   6.495 -1.6586 -2.2275 -2.2817
   6423SM  C10F 8290   3.489   3.173   6.391  0.2883  0.8029 -0.1041
   6423SM  H10F 8291   3.557   3.255   6.425 -0.2440  0.7463  1.1636
   6423SM  H10G 8292   3.385   3.209   6.376 -0.1127 -0.4078 -0.2547
   6423SM  C11F 8293   3.550   3.110   6.262 -0.2810 -0.3176  0.2920
   6423SM  H11F 8294   3.480   3.034   6.223 -0.2482 -0.5618  0.7054
   6423SM  H11G 8295   3.646   3.061   6.289 -0.6385 -1.4444 -0.4109
   6423SM  C12F 8296   3.581   3.209   6.150  0.0297  0.7894 -0.9081
   6423SM  H12F 8297   3.667   3.276   6.172 -0.0702  0.4950  0.5029
   6423SM  H12G 8298   3.494   3.278   6.149 -0.7305 -0.0908  0.7823
   6423SM  C13F 8299   3.599   3.137   6.017  0.2717 -0.5281 -0.6063
   6423SM  H13F 8300   3.524   3.058   5.995 -1.9374  0.9109  1.3555
   6423SM  H13G 8301   3.690   3.074   6.027  1.5307  1.3405  0.1298
   6423SM  C14F 8302   3.625   3.237   5.910  0.2624 -0.3063  0.0694
   6423SM  H14F 8303   3.710   3.301   5.943 -1.4291  1.8798  0.4647
   6423SM  H14G 8304   3.534   3.296   5.882  1.6175  1.4362 -0.9224
   6423SM  C15F 8305   3.677   3.174   5.786  0.1161 -0.5765  0.3801
   6423SM  H15F 8306   3.613   3.091   5.749  1.6122 -0.9898 -1.4091
   6423SM  H15G 8307   3.781   3.137   5.794  0.6760  0.8615  0.0703
   6423SM  C16F 8308   3.682   3.277   5.671  0.1446  1.0803  0.1562
   6423SM  H16F 8309   3.739   3.366   5.706 -0.2973  1.2064  0.5622
   6423SM  H16G 8310   3.579   3.316   5.659  0.3128  1.1873 -1.0461
   6423SM  C17F 8311   3.746   3.221   5.540  0.2186 -0.1747  0.0154
   6423SM  H17F 8312   3.688   3.132   5.507  1.2635 -1.2438  0.9783
   6423SM  H17G 8313   3.852   3.194   5.560  0.0881  0.2778  1.4049
   6423SM  C18F 8314   3.731   3.332   5.427  0.4034 -0.0722 -0.3153
   6423SM  H18F 8315   3.775   3.426   5.466  0.5377  0.7867 -2.3936
   6423SM  H18G 8316   3.622   3.346   5.416  0.1131 -2.2104 -0.5052
   6423SM  C19F 8317   3.796   3.291   5.293  0.5652 -1.0640  0.1008
   6423SM  H19F 8318   3.757   3.190   5.266  2.4096 -1.9601  0.6516
   6423SM  H19G 8319   3.905   3.275   5.305  0.5399 -0.3933  1.3525
   6423SM  C20F 8320   3.775   3.391   5.178 -0.2901  0.1511 -0.4426
   6423SM  H20F 8321   3.672   3.385   5.136  0.7162 -0.7967 -2.9841
   6423SM  H20G 8322   3.851   3.358   5.105 -0.3437 -1.9719  0.4012
   6423SM  C21F 8323   3.796   3.542   5.217 -0.2581  0.3185 -0.2625
   6423SM  H21F 8324   3.880   3.543   5.289  0.6547 -0.2120 -1.2842
   6423SM  H21G 8325   3.711   3.595   5.265 -0.1819  1.8989 -1.7605
   6423SM  C22F 8326   3.827   3.637   5.091 -0.4397  0.2030 -0.3060
   6423SM  H22F 8327   3.744   3.634   5.017  0.5469  0.5921 -1.4546
   6423SM  H22G 8328   3.917   3.601   5.037 -0.8608 -0.6829 -0.4423
   6423SM  C23F 8329   3.867   3.786   5.117 -0.7645 -0.3572 -0.1632
   6423SM  H23F 8330   3.790   3.839   5.178 -1.3288 -0.6907 -0.5687
   6423SM  H23G 8331   3.887   3.832   5.018 -0.0521 -1.0281 -0.3432
   6423SM  H23H 8332   3.963   3.800   5.170 -0.9142  3.0999 -0.6234
   6523SM     N 8333   3.786   4.639   7.238  0.2982 -0.1899 -0.0631
   6523SM   C15 8334   3.896   4.629   7.334 -0.3130 -0.2654 -0.3084
   6523SM  H15A 8335   3.859   4.614   7.435  0.9134  0.5793  0.2857
   6523SM  H15B 8336   3.960   4.715   7.333  1.7369 -1.7106 -0.2032
   6523SM  H15C 8337   3.958   4.546   7.303 -0.9526 -0.6948 -0.4879
   6523SM   C14 8338   3.727   4.505   7.213 -0.1634  0.3304  0.6575
   6523SM  H14A 8339   3.805   4.436   7.182  0.5490  1.3227  0.1708
   6523SM  H14B 8340   3.639   4.499   7.151 -0.9215  0.7751  1.6733
   6523SM  H14C 8341   3.699   4.477   7.313 -0.8210 -1.4311  0.0321
   6523SM   C13 8342   3.682   4.718   7.306  0.2984 -0.2692  0.3564
   6523SM  H13A 8343   3.590   4.721   7.250  0.2343  2.4822  0.4664
   6523SM  H13B 8344   3.710   4.820   7.330  0.6875  0.6116 -3.3323
   6523SM  H13C 8345   3.659   4.672   7.402  1.7469 -0.6216  0.5523
   6523SM   C12 8346   3.826   4.700   7.111 -0.1821  0.3741 -0.0528
   6523SM  H12A 8347   3.753   4.692   7.032 -0.0365 -0.7123 -0.1000
   6523SM  H12B 8348   3.905   4.635   7.077  0.6548  0.9510  0.7277
   6523SM   C11 8349   3.877   4.843   7.118  0.2784 -0.2513 -0.2708
   6523SM  H11A 8350   3.967   4.837   7.183  0.4543 -1.6700 -0.6225
   6523SM  H11B 8351   3.796   4.907   7.160  0.2534 -1.1095  1.0279
   6523SM     P 8352   4.061   4.846   6.915  0.3035 -0.1935 -0.0655
   6523SM   O13 8353   4.138   4.966   6.900  0.0868 -0.1821  0.5767
   6523SM   O14 8354   4.131   4.736   6.986  0.0789  0.0541 -0.3069
   6523SM   O11 8355   4.017   4.804   6.771 -0.1941 -0.5767  0.4533
   6523SM   O12 8356   3.919   4.873   6.982 -0.3296  0.5853  0.0237
   6523SM   C1S 8357   4.002   4.903   6.673  0.2057 -0.0215  0.4557
   6523SM   H1S 8358   4.097   4.958   6.657  0.7369 -0.5970  1.5098
   6523SM   H1T 8359   3.925   4.978   6.699 -0.8343 -1.5885  2.1978
   6523SM    NF 8360   3.927   4.953   6.447 -0.1751 -0.2040 -0.3528
   6523SM   HNF 8361   3.830   4.976   6.433 -0.2175 -0.0620  0.1658
   6523SM   C2S 8362   3.936   4.842   6.543  0.3540  0.0073 -0.4705
   6523SM   H2S 8363   4.003   4.758   6.512 -0.0113  0.1249 -1.6263
   6523SM   C3S 8364   3.802   4.766   6.572  0.1443 -0.4993  0.8108
   6523SM   H3S 8365   3.723   4.842   6.587 -0.1791 -0.6971  0.1633
   6523SM    O3 8366   3.808   4.693   6.685 -0.1502  0.8056 -0.0121
   6523SM   HO3 8367   3.892   4.717   6.724 -0.3035  3.2622 -0.9625
   6523SM   C4S 8368   3.751   4.677   6.459 -0.3744  0.0708  0.1924
   6523SM   H4S 8369   3.678   4.732   6.398  1.4530  2.3429 -0.0877
   6523SM   C5S 8370   3.771   4.543   6.436 -0.3763 -0.8969 -0.4999
   6523SM   H5S 8371   3.847   4.493   6.499  0.2611 -0.1346 -0.6477
   6523SM   C6S 8372   3.720   4.466   6.324  0.9689 -0.6492 -0.1047
   6523SM   H6S 8373   3.660   4.377   6.355 -1.7441  0.5857 -1.4843
   6523SM   H6T 8374   3.816   4.436   6.278  1.3585  2.3071 -1.3978
   6523SM   C7S 8375   3.632   4.542   6.223  0.1343  0.2298  0.1251
   6523SM   H7S 8376   3.682   4.636   6.191  1.3003 -0.0452  1.0571
   6523SM   H7T 8377   3.539   4.576   6.272  0.3527 -0.3063  0.9329
   6523SM   C8S 8378   3.614   4.469   6.091 -0.4696 -0.1192  0.3579
   6523SM   H8S 8379   3.552   4.379   6.110  0.1892 -0.7231 -0.2797
   6523SM   H8T 8380   3.719   4.442   6.064  0.6965  4.0633 -0.0117
   6523SM   C9S 8381   3.549   4.561   5.988 -0.0336  0.6532  0.1692
   6523SM   H9S 8382   3.605   4.655   5.967 -0.0719  0.6444  0.0194
   6523SM   H9T 8383   3.454   4.598   6.033  0.8312  3.2631  0.0356
   6523SM  C10S 8384   3.505   4.495   5.858 -0.0881  0.2068 -0.0963
   6523SM  H10S 8385   3.452   4.569   5.794  0.2814 -0.6729 -1.4783
   6523SM  H10T 8386   3.432   4.412   5.871  1.4833 -1.6753 -2.3651
   6523SM  C11S 8387   3.626   4.453   5.767 -0.3724  0.0608 -0.9978
   6523SM  H11S 8388   3.682   4.384   5.834 -0.4787  0.3648 -0.5918
   6523SM  H11T 8389   3.681   4.542   5.730  1.3864 -0.0466  1.1510
   6523SM  C12S 8390   3.582   4.363   5.656  0.1868  0.0306  0.4829
   6523SM  H12S 8391   3.505   4.423   5.602  0.1369  1.3440  1.9268
   6523SM  H12T 8392   3.543   4.267   5.695 -2.2995 -0.4125 -2.7007
   6523SM  C13S 8393   3.703   4.337   5.567  0.8007 -0.0918 -0.2127
   6523SM  H13S 8394   3.786   4.310   5.636 -0.0494 -0.8279  0.5305
   6523SM  H13T 8395   3.734   4.427   5.508  1.5935  1.6239  2.6218
   6523SM  C14S 8396   3.683   4.223   5.466  0.2078 -0.3412 -0.3924
   6523SM  H14S 8397   3.596   4.244   5.400  1.0084 -2.2948 -2.1769
   6523SM  H14T 8398   3.661   4.133   5.527 -3.4362  1.5230  1.3842
   6523SM  C15S 8399   3.812   4.196   5.384  0.5202 -0.4160 -0.1412
   6523SM  H15S 8400   3.848   4.294   5.347  0.1553 -1.0832 -2.4212
   6523SM  H15T 8401   3.770   4.137   5.300 -1.7571  0.9153 -0.0422
   6523SM  C16S 8402   3.912   4.122   5.459 -0.2342 -0.0078 -0.5893
   6523SM  H16S 8403   3.869   4.021   5.472 -0.2362 -0.3363 -2.8033
   6523SM  H16T 8404   3.920   4.174   5.557 -1.0929 -1.8922  0.5331
   6523SM  C17S 8405   4.044   4.127   5.388 -0.2000 -0.2630 -0.4023
   6523SM  H17S 8406   4.052   4.220   5.327  1.3740  0.0335  0.2080
   6523SM  H17T 8407   4.048   4.044   5.314 -1.8704  0.5399 -1.4394
   6523SM  C18S 8408   4.169   4.121   5.481  0.1892  0.4892  0.6181
   6523SM  H18S 8409   4.141   4.058   5.568  0.4556  0.5950  0.7809
   6523SM  H18T 8410   4.188   4.219   5.529 -2.0622  0.2228  2.1938
   6523SM  H18U 8411   4.255   4.082   5.422  0.2388  1.0576  0.3084
   6523SM   C1F 8412   4.028   5.024   6.397  0.5446 -0.0602 -0.1207
   6523SM    OF 8413   4.141   4.987   6.426 -0.7902  0.0468 -0.0582
   6523SM   C2F 8414   4.008   5.155   6.319  0.1060 -0.2275 -0.2583
   6523SM   H2F 8415   3.998   5.229   6.401 -1.2358 -0.1824 -0.4360
   6523SM   H2G 8416   3.921   5.140   6.252 -0.2978 -2.2445  0.6204
   6523SM   C3F 8417   4.127   5.186   6.230 -0.5031 -0.1387  0.0010
   6523SM   H3F 8418   4.224   5.215   6.276  1.2371  0.3714 -3.6737
   6523SM   H3G 8419   4.094   5.279   6.181 -1.3197 -0.2311  0.3583
   6523SM   C4F 8420   4.171   5.088   6.117 -0.3820  1.2886 -0.3824
   6523SM   H4F 8421   4.224   5.009   6.173 -1.3720  1.3669  0.7039
   6523SM   H4G 8422   4.243   5.138   6.049  1.2409  0.8648  0.9539
   6523SM   C5F 8423   4.064   5.031   6.024 -0.5607 -0.8019 -0.7367
   6523SM   H5F 8424   3.980   4.981   6.078 -0.2400 -0.3868  0.1592
   6523SM   H5G 8425   4.111   4.945   5.972  0.1414 -1.4267  0.8912
   6523SM   C6F 8426   4.009   5.134   5.926 -0.0796 -0.0283 -0.2648
   6523SM   H6F 8427   4.096   5.169   5.866  1.5860 -1.6626  1.0835
   6523SM   H6G 8428   3.983   5.217   5.995  3.5137  0.8776  0.1708
   6523SM   C7F 8429   3.885   5.083   5.844  0.0683 -1.5874  0.3446
   6523SM   H7F 8430   3.802   5.066   5.916  1.5886 -1.6465  2.1464
   6523SM   H7G 8431   3.922   4.990   5.796  1.8610 -0.2866 -0.9498
   6523SM   C8F 8432   3.829   5.188   5.740 -0.5230  0.4760 -0.0092
   6523SM   H8F 8433   3.832   5.282   5.799 -0.8999  0.1404  0.5560
   6523SM   H8G 8434   3.726   5.159   5.712 -0.0322 -2.4218  0.8355
   6523SM   C9F 8435   3.917   5.201   5.610 -0.3187  0.3167 -0.3227
   6523SM   H9F 8436   3.965   5.105   5.581  2.0751  0.9720  1.2106
   6523SM   H9G 8437   3.999   5.270   5.640 -0.4186  1.4917 -2.5402
   6523SM  C10F 8438   3.844   5.251   5.486  0.0251  0.6403 -0.5947
   6523SM  H10F 8439   3.928   5.276   5.417  1.6954 -0.9934  0.7354
   6523SM  H10G 8440   3.807   5.351   5.516  2.2433  1.4398 -0.3658
   6523SM  C11F 8441   3.739   5.155   5.429 -0.3660 -0.0637  0.4401
   6523SM  H11F 8442   3.634   5.183   5.450 -0.3562  2.5467 -2.3707
   6523SM  H11G 8443   3.769   5.061   5.480 -1.3171  0.1408  1.4050
   6523SM  C12F 8444   3.767   5.135   5.276 -0.1193  0.3266  0.4809
   6523SM  H12F 8445   3.863   5.080   5.266 -0.6945 -0.6459  0.2043
   6523SM  H12G 8446   3.784   5.234   5.229  0.9448  0.6482  1.5076
   6523SM  C13F 8447   3.653   5.057   5.204  0.2045 -0.9297 -0.5057
   6523SM  H13F 8448   3.687   5.043   5.099 -0.7795 -1.2474 -0.7912
   6523SM  H13G 8449   3.578   5.139   5.194  0.5777 -0.3167  1.2419
   6523SM  C14F 8450   3.597   4.931   5.281  0.1489  0.3777  0.5363
   6523SM  H14F 8451   3.593   4.953   5.390 -1.7287  1.4278  0.3050
   6523SM  H14G 8452   3.669   4.848   5.265 -1.0033 -0.9303  1.9362
   6523SM  C15F 8453   3.448   4.904   5.240 -0.7034 -0.2801 -0.2753
   6523SM  H15F 8454   3.379   4.957   5.309 -0.4702 -0.1276 -0.1588
   6523SM  H15G 8455   3.435   4.799   5.274  1.0171 -0.2365  0.6616
   6523SM  C16F 8456   3.409   4.925   5.097 -0.1630 -0.0800  0.2581
   6523SM  H16F 8457   3.482   4.878   5.027  1.0888  3.0570 -0.7490
   6523SM  H16G 8458   3.431   5.029   5.065 -2.1559 -0.7281 -3.8178
   6523SM  C17F 8459   3.270   4.897   5.053  0.0985  0.1145  0.1132
   6523SM  H17F 8460   3.264   4.786   5.042 -0.0828 -0.0637  1.7463
   6523SM  H17G 8461   3.248   4.938   4.952 -0.2821 -1.5375 -0.5130
   6523SM  C18F 8462   3.161   4.953   5.146  0.2711  0.1208 -0.2292
   6523SM  H18F 8463   3.163   5.063   5.161  2.2106  0.0732  0.0722
   6523SM  H18G 8464   3.176   4.913   5.248  1.1782 -1.2887 -0.8744
   6523SM  C19F 8465   3.026   4.912   5.091  0.5088 -0.2583  0.0525
   6523SM  H19F 8466   3.029   4.803   5.071 -0.7918 -0.2080 -0.5614
   6523SM  H19G 8467   3.004   4.960   4.993  1.4037 -2.9231 -1.5539
   6523SM  C20F 8468   2.907   4.955   5.181  0.0361  0.2599  0.4551
   6523SM  H20F 8469   2.922   4.908   5.280 -0.3256 -1.7467 -0.3941
   6523SM  H20G 8470   2.818   4.902   5.140  1.5766 -0.6627 -1.9502
   6523SM  C21F 8471   2.872   5.102   5.182  0.0344 -0.4001 -0.0212
   6523SM  H21F 8472   2.863   5.132   5.076  0.1619 -0.7725 -0.1387
   6523SM  H21G 8473   2.962   5.156   5.220  1.3817 -1.4958 -1.5055
   6523SM  C22F 8474   2.744   5.140   5.255 -0.4510  0.8780  0.6798
   6523SM  H22F 8475   2.752   5.092   5.355  2.0858  0.7000  0.4693
   6523SM  H22G 8476   2.658   5.105   5.195 -0.7663  0.7388  1.2035
   6523SM  C23F 8477   2.723   5.287   5.287 -0.3007 -0.0513  0.4995
   6523SM  H23F 8478   2.807   5.334   5.342 -0.2119  0.3253  0.0548
   6523SM  H23G 8479   2.632   5.300   5.349  0.2284 -0.4930  1.3849
   6523SM  H23H 8480   2.709   5.346   5.193  0.2245  0.3624  0.6740
   6623SM     N 8481   3.285   2.795   7.726  0.4494  0.8642 -0.6023
   6623SM   C15 8482   3.277   2.649   7.775  0.7358  0.4089  0.1988
   6623SM  H15A 8483   3.190   2.637   7.837 -0.9056  0.4260 -1.9682
   6623SM  H15B 8484   3.369   2.627   7.827  0.7821  0.0385 -0.0383
   6623SM  H15C 8485   3.254   2.580   7.695 -2.9127  1.7290 -0.1034
   6623SM   C14 8486   3.148   2.847   7.699  0.8200 -0.3866  0.4436
   6623SM  H14A 8487   3.147   2.941   7.646  3.0457 -0.6386 -0.1404
   6623SM  H14B 8488   3.093   2.860   7.791  1.0987  1.0550  0.4315
   6623SM  H14C 8489   3.093   2.778   7.638  1.1719  0.5359 -0.9578
   6623SM   C13 8490   3.337   2.875   7.834  0.4097 -0.3627 -0.1044
   6623SM  H13A 8491   3.323   2.980   7.812 -0.2664 -0.2541  0.7883
   6623SM  H13B 8492   3.444   2.861   7.849  0.5490  1.2900  0.7732
   6623SM  H13C 8493   3.276   2.869   7.923  0.2400 -1.3254 -0.2824
   6623SM   C12 8494   3.375   2.804   7.604 -0.6359 -0.1903 -0.1216
   6623SM  H12A 8495   3.470   2.756   7.618 -0.6313 -0.6934 -1.6890
   6623SM  H12B 8496   3.389   2.909   7.583 -0.9643  0.4409  2.5407
   6623SM   C11 8497   3.325   2.735   7.476 -0.1425  0.3290  0.8107
   6623SM  H11A 8498   3.303   2.631   7.508 -0.9787  0.4089  0.5233
   6623SM  H11B 8499   3.407   2.734   7.402 -1.0154  0.1480 -0.1822
   6623SM     P 8500   3.193   2.930   7.359 -0.2913  0.2345 -0.2471
   6623SM   O13 8501   3.138   2.911   7.222  0.3059  0.0776  0.6660
   6623SM   O14 8502   3.128   3.032   7.443  0.1330  0.4797  0.2583
   6623SM   O11 8503   3.340   2.983   7.327 -0.7465 -0.4601 -0.4402
   6623SM   O12 8504   3.197   2.786   7.431 -0.1097  0.4480 -0.7344
   6623SM   C1S 8505   3.420   2.925   7.223 -0.2387  0.1801 -0.2361
   6623SM   H1S 8506   3.375   2.833   7.180 -0.5171  0.4264 -0.4782
   6623SM   H1T 8507   3.513   2.880   7.264  0.8594  2.5446  0.0303
   6623SM    NF 8508   3.560   2.933   7.022 -0.1659 -0.7233 -0.6745
   6623SM   HNF 8509   3.659   2.944   7.021 -0.2458  0.8842  1.4691
   6623SM   C2S 8510   3.472   3.012   7.112 -0.1471  0.2410 -0.0214
   6623SM   H2S 8511   3.380   3.040   7.056 -0.5559 -0.0807  0.4778
   6623SM   C3S 8512   3.536   3.140   7.168  0.3600 -0.1713 -0.0583
   6623SM   H3S 8513   3.626   3.120   7.229  1.2707  0.1029 -1.2783
   6623SM    O3 8514   3.443   3.203   7.251  0.0474  0.0975 -0.3606
   6623SM   HO3 8515   3.385   3.130   7.273  1.8993 -1.6345 -0.9540
   6623SM   C4S 8516   3.573   3.221   7.047  0.2288 -0.4456  0.5330
   6623SM   H4S 8517   3.644   3.171   6.980 -0.6124  1.6292 -2.0551
   6623SM   C5S 8518   3.535   3.346   7.010  0.5463  0.9481 -0.1231
   6623SM   H5S 8519   3.474   3.401   7.083  1.1654 -1.5787  2.4820
   6623SM   C6S 8520   3.597   3.417   6.895 -0.1325 -0.0721 -0.7511
   6623SM   H6S 8521   3.517   3.486   6.861 -0.6118  0.7650  1.8341
   6623SM   H6T 8522   3.635   3.347   6.817  0.3806 -0.6325 -0.0065
   6623SM   C7S 8523   3.712   3.517   6.940  0.4975  0.1517  0.2890
   6623SM   H7S 8524   3.796   3.454   6.976  0.6409 -0.7600 -1.5422
   6623SM   H7T 8525   3.675   3.570   7.031  0.3765  1.1786 -0.3410
   6623SM   C8S 8526   3.763   3.612   6.835  0.1136 -0.1546  0.3437
   6623SM   H8S 8527   3.843   3.678   6.873  0.3065 -0.0361 -0.2611
   6623SM   H8T 8528   3.680   3.684   6.819  2.3150  2.2805 -0.7658
   6623SM   C9S 8529   3.806   3.542   6.701 -0.1674  0.3287 -0.2279
   6623SM   H9S 8530   3.733   3.466   6.668 -0.3014 -0.7608  2.2915
   6623SM   H9T 8531   3.901   3.486   6.717  0.6125  1.1404 -1.7667
   6623SM  C10S 8532   3.827   3.638   6.587 -0.3211  0.9750  0.3790
   6623SM  H10S 8533   3.908   3.711   6.610  1.0496 -0.5759  0.6685
   6623SM  H10T 8534   3.728   3.684   6.565 -2.2411 -2.4319  1.0411
   6623SM  C11S 8535   3.865   3.572   6.452  0.7760  0.2226 -0.4847
   6623SM  H11S 8536   3.792   3.489   6.439  1.3641 -0.0151 -2.6756
   6623SM  H11T 8537   3.966   3.526   6.449  0.9531  0.5067  0.6813
   6623SM  C12S 8538   3.859   3.658   6.326  0.3167  0.2628  0.7717
   6623SM  H12S 8539   3.927   3.746   6.322  0.4920  0.0865 -1.6148
   6623SM  H12T 8540   3.765   3.717   6.335  0.4990  0.5000  1.1308
   6623SM  C13S 8541   3.840   3.579   6.195  0.2714 -0.3314 -0.3287
   6623SM  H13S 8542   3.762   3.501   6.213 -0.3103  0.3504  0.2120
   6623SM  H13T 8543   3.938   3.530   6.179  0.9642  0.9171 -0.0427
   6623SM  C14S 8544   3.800   3.684   6.089  0.1117  0.6823  0.1367
   6623SM  H14S 8545   3.886   3.752   6.072 -1.4591  2.7447  0.1019
   6623SM  H14T 8546   3.708   3.741   6.112 -1.3125 -0.1125 -3.0729
   6623SM  C15S 8547   3.766   3.601   5.960  0.0295 -0.1187  0.1507
   6623SM  H15S 8548   3.670   3.550   5.982 -1.0208  1.7014  0.0016
   6623SM  H15T 8549   3.845   3.523   5.959 -1.2527 -1.4783  1.2159
   6623SM  C16S 8550   3.755   3.698   5.839  0.0170 -0.6300 -0.6445
   6623SM  H16S 8551   3.845   3.762   5.830 -2.3421  2.9632 -0.8136
   6623SM  H16T 8552   3.666   3.763   5.854  0.9923  0.8965 -1.1825
   6623SM  C17S 8553   3.739   3.632   5.697  0.4732  0.2848 -0.2469
   6623SM  H17S 8554   3.644   3.575   5.689  0.4957 -0.0382  1.3647
   6623SM  H17T 8555   3.825   3.567   5.674 -1.1780 -2.2778  0.3827
   6623SM  C18S 8556   3.732   3.743   5.588 -0.1182  0.2656 -0.4659
   6623SM  H18S 8557   3.759   3.712   5.484 -0.4775  2.4387 -1.2533
   6623SM  H18T 8558   3.803   3.824   5.614 -1.2894  1.6354 -1.3566
   6623SM  H18U 8559   3.634   3.795   5.581 -1.1673 -1.6637 -1.0147
   6623SM   C1F 8560   3.513   2.834   6.944 -0.0812  0.0043  0.0065
   6623SM    OF 8561   3.393   2.805   6.932  0.1585 -0.3220 -0.0821
   6623SM   C2F 8562   3.618   2.760   6.861  0.6301  0.4634  0.3189
   6623SM   H2F 8563   3.639   2.663   6.910 -0.9812 -0.8973 -1.4810
   6623SM   H2G 8564   3.713   2.817   6.864 -0.1864  1.9265 -0.2388
   6623SM   C3F 8565   3.574   2.732   6.713 -0.0271  0.6350 -1.2913
   6623SM   H3F 8566   3.525   2.821   6.670 -0.2056  0.1675 -2.0782
   6623SM   H3G 8567   3.492   2.657   6.719  0.5696  0.0635  1.7171
   6623SM   C4F 8568   3.689   2.703   6.617  0.8725 -0.0154  0.5004
   6623SM   H4F 8569   3.746   2.614   6.650  1.7102 -0.0802 -1.0315
   6623SM   H4G 8570   3.767   2.781   6.623 -1.4780  2.4358  1.4733
   6623SM   C5F 8571   3.638   2.700   6.473 -0.5692 -0.5569 -0.5089
   6623SM   H5F 8572   3.588   2.798   6.455 -1.1577 -1.1068 -2.0205
   6623SM   H5G 8573   3.558   2.624   6.467 -0.8221 -0.3914  0.5528
   6623SM   C6F 8574   3.753   2.694   6.374  0.1481  0.7642  0.1316
   6623SM   H6F 8575   3.811   2.600   6.379 -0.4511  0.3896  0.1575
   6623SM   H6G 8576   3.821   2.780   6.391  0.0903  1.5641 -3.0180
   6623SM   C7F 8577   3.702   2.713   6.229 -0.5507  0.6667 -0.2929
   6623SM   H7F 8578   3.661   2.816   6.225 -1.2080  0.4254  0.0669
   6623SM   H7G 8579   3.620   2.640   6.214  1.8621 -2.7686  1.8220
   6623SM   C8F 8580   3.810   2.683   6.124 -0.2880 -0.1568  0.1211
   6623SM   H8F 8581   3.849   2.581   6.143  1.2407  0.5773  1.0853
   6623SM   H8G 8582   3.893   2.757   6.130 -2.3900  2.2896  0.8460
   6623SM   C9F 8583   3.759   2.693   5.980 -0.2226 -0.7102  0.3899
   6623SM   H9F 8584   3.697   2.785   5.984 -1.2814 -1.4414  2.1414
   6623SM   H9G 8585   3.691   2.609   5.953 -1.0065 -0.4753  1.5542
   6623SM  C10F 8586   3.880   2.716   5.884 -0.1344 -0.3259 -0.2117
   6623SM  H10F 8587   3.945   2.626   5.876 -1.3952 -1.5763  2.2476
   6623SM  H10G 8588   3.959   2.788   5.915  0.2532  0.7463 -3.3604
   6623SM  C11F 8589   3.842   2.769   5.747 -0.1374 -0.1417  0.5213
   6623SM  H11F 8590   3.774   2.857   5.744 -0.3578 -0.3167  0.3162
   6623SM  H11G 8591   3.784   2.685   5.704  1.5040 -0.6506 -0.8011
   6623SM  C12F 8592   3.966   2.802   5.663 -0.3207 -0.5238 -0.1215
   6623SM  H12F 8593   4.032   2.713   5.654  0.8968  0.5718 -3.1680
   6623SM  H12G 8594   4.031   2.884   5.700 -2.7630  0.9115  1.2886
   6623SM  C13F 8595   3.927   2.819   5.512 -0.3834 -0.4617 -0.1667
   6623SM  H13F 8596   3.873   2.916   5.510 -1.4838 -1.0201  0.8341
   6623SM  H13G 8597   3.857   2.743   5.474  0.9576 -1.0411 -1.5777
   6623SM  C14F 8598   4.047   2.826   5.414  0.2191 -0.5413 -0.2603
   6623SM  H14F 8599   4.084   2.721   5.416 -1.2971 -1.0999 -0.1331
   6623SM  H14G 8600   4.134   2.881   5.455 -0.4257  0.2539  0.0661
   6623SM  C15F 8601   4.008   2.858   5.272  0.8223 -0.5643 -0.7438
   6623SM  H15F 8602   3.967   2.960   5.258  1.2124 -0.2646  0.2529
   6623SM  H15G 8603   3.932   2.786   5.234 -0.2953  0.7882 -1.1737
   6623SM  C16F 8604   4.137   2.840   5.190  0.2281 -0.6153  0.4404
   6623SM  H16F 8605   4.184   2.740   5.201  1.0073 -0.4495 -1.0358
   6623SM  H16G 8606   4.209   2.914   5.231 -0.7059  1.8726 -2.0664
   6623SM  C17F 8607   4.128   2.880   5.036  0.2782 -0.0597  1.3602
   6623SM  H17F 8608   4.069   2.973   5.022 -1.3494 -1.3971 -1.3810
   6623SM  H17G 8609   4.077   2.798   4.982  1.5189  0.4573 -0.6687
   6623SM  C18F 8610   4.265   2.904   4.977  0.0576 -1.1230  0.1513
   6623SM  H18F 8611   4.316   2.805   4.975  0.5467 -0.8639 -0.1606
   6623SM  H18G 8612   4.317   2.973   5.046  0.2774 -1.7286  0.6070
   6623SM  C19F 8613   4.263   2.978   4.845 -0.1925 -0.6254  0.2858
   6623SM  H19F 8614   4.353   2.972   4.779 -0.8167 -2.8988 -0.4702
   6623SM  H19G 8615   4.223   3.080   4.860 -1.2680 -1.1291  0.9372
   6623SM  C20F 8616   4.161   2.925   4.741 -0.2478 -0.1944 -0.1866
   6623SM  H20F 8617   4.058   2.954   4.772 -0.2690 -1.3649  0.9541
   6623SM  H20G 8618   4.177   2.815   4.734  0.9629  0.0848 -2.7560
   6623SM  C21F 8619   4.189   2.982   4.596  0.1661 -0.5552 -0.1752
   6623SM  H21F 8620   4.105   2.968   4.525  0.9652  1.6010 -1.6665
   6623SM  H21G 8621   4.279   2.930   4.557  0.1621 -1.2225  0.6812
   6623SM  C22F 8622   4.211   3.133   4.595  0.2714 -0.3665  0.2561
   6623SM  H22F 8623   4.302   3.168   4.649  0.3931 -0.7447  0.2971
   6623SM  H22G 8624   4.117   3.171   4.642 -0.0218  1.7037 -1.8109
   6623SM  C23F 8625   4.213   3.195   4.453  0.1643 -0.3010 -0.5399
   6623SM  H23F 8626   4.241   3.301   4.467  1.3523 -0.6317 -0.3001
   6623SM  H23G 8627   4.122   3.179   4.390 -0.2503 -1.6169  0.3501
   6623SM  H23H 8628   4.302   3.153   4.401  0.6694 -0.9464  0.7955
   6723SM     N 8629   2.966   6.225   6.991 -0.7091 -0.3770 -1.0886
   6723SM   C15 8630   2.951   6.079   7.004 -0.3989  0.3274  0.4331
   6723SM  H15A 8631   2.871   6.043   6.941  1.1225  0.9763 -1.9951
   6723SM  H15B 8632   2.927   6.052   7.107  1.1901 -3.4466 -0.0195
   6723SM  H15C 8633   3.040   6.025   6.976 -0.2255  0.8824 -0.0989
   6723SM   C14 8634   2.856   6.298   7.059  0.4448  0.1497 -0.5456
   6723SM  H14A 8635   2.871   6.295   7.166 -1.0810 -1.7739 -0.3219
   6723SM  H14B 8636   2.762   6.256   7.029  0.5686 -0.2394 -0.4022
   6723SM  H14C 8637   2.865   6.405   7.045 -2.0133  0.4830  0.0512
   6723SM   C13 8638   3.101   6.271   7.054  0.3612 -0.4087  0.3474
   6723SM  H13A 8639   3.128   6.371   7.023  0.6928 -0.2200  1.2214
   6723SM  H13B 8640   3.175   6.204   7.012 -0.0462 -1.0007  0.5627
   6723SM  H13C 8641   3.090   6.257   7.160  0.0874  1.2716  0.5684
   6723SM   C12 8642   2.967   6.254   6.846 -0.7390  0.0012 -0.2214
   6723SM  H12A 8643   2.870   6.219   6.812 -0.6476 -1.0038  0.4970
   6723SM  H12B 8644   3.045   6.197   6.797 -0.5123  0.4818 -0.4278
   6723SM   C11 8645   2.996   6.401   6.799  0.1075 -0.7430  0.3334
   6723SM  H11A 8646   2.917   6.467   6.839  0.3974  0.1431 -0.5293
   6723SM  H11B 8647   2.983   6.412   6.689  0.5636  0.2344  0.3704
   6723SM     P 8648   3.255   6.408   6.753 -0.2381 -0.5642  0.2503
   6723SM   O13 8649   3.371   6.475   6.814  0.4657 -0.1253 -0.5582
   6723SM   O14 8650   3.256   6.263   6.737 -0.1273  0.4113  0.2274
   6723SM   O11 8651   3.227   6.474   6.609 -0.4036 -0.3601 -0.5449
   6723SM   O12 8652   3.125   6.443   6.836  0.2470 -0.0054  0.1123
   6723SM   C1S 8653   3.223   6.617   6.605 -0.6095 -0.2063 -0.0335
   6723SM   H1S 8654   3.305   6.664   6.663 -0.5455  1.3363 -1.2821
   6723SM   H1T 8655   3.130   6.664   6.644  1.1640  1.3501  2.6180
   6723SM    NF 8656   3.297   6.795   6.454 -0.0816  0.1873  0.3609
   6723SM   HNF 8657   3.240   6.860   6.406 -1.3197 -1.6953 -0.8595
   6723SM   C2S 8658   3.242   6.659   6.458 -0.1785 -0.6920 -0.3066
   6723SM   H2S 8659   3.324   6.595   6.421  1.0191 -1.1678  2.8507
   6723SM   C3S 8660   3.119   6.636   6.370  0.5388 -0.0149 -0.1699
   6723SM   H3S 8661   3.038   6.706   6.401  0.2297  0.2490 -1.5282
   6723SM    O3 8662   3.066   6.505   6.373 -0.3874  0.4138  0.6222
   6723SM   HO3 8663   3.109   6.461   6.446  1.3460 -1.3858 -1.3449
   6723SM   C4S 8664   3.160   6.672   6.231  0.1485  0.6221 -0.0598
   6723SM   H4S 8665   3.222   6.592   6.189 -0.6369  0.1185 -0.2829
   6723SM   C5S 8666   3.125   6.784   6.169  0.5951 -0.2618  0.5424
   6723SM   H5S 8667   3.064   6.860   6.220  3.4637  1.9742  0.9234
   6723SM   C6S 8668   3.162   6.809   6.027 -0.1910 -0.4022 -0.0292
   6723SM   H6S 8669   3.189   6.715   5.974  2.6939  1.0975 -1.4710
   6723SM   H6T 8670   3.243   6.882   6.007 -0.0013 -0.2508  1.2314
   6723SM   C7S 8671   3.039   6.876   5.955  0.0305 -0.3653  0.5283
   6723SM   H7S 8672   3.042   6.986   5.972  1.1020 -0.4795  1.2350
   6723SM   H7T 8673   2.946   6.840   6.002 -1.5900  1.2727 -1.2674
   6723SM   C8S 8674   3.032   6.840   5.805 -0.4904 -0.6812  0.3562
   6723SM   H8S 8675   3.020   6.729   5.799  0.6117 -0.8625  1.1702
   6723SM   H8T 8676   3.131   6.863   5.761 -1.2440  1.9932 -0.0847
   6723SM   C9S 8677   2.913   6.919   5.734  0.1285 -0.3078  0.1191
   6723SM   H9S 8678   2.906   7.028   5.752 -1.5888 -0.0870 -1.6605
   6723SM   H9T 8679   2.822   6.868   5.770  0.8679 -3.1200 -1.6885
   6723SM  C10S 8680   2.910   6.890   5.579 -0.1042 -0.0766  0.4490
   6723SM  H10S 8681   2.923   6.783   5.552  2.8433  0.8695 -2.6588
   6723SM  H10T 8682   3.002   6.932   5.532 -0.1785  0.3701  0.6975
   6723SM  C11S 8683   2.776   6.932   5.530 -0.6717 -0.1589 -0.5403
   6723SM  H11S 8684   2.767   7.041   5.546 -0.4585 -0.1838 -0.2321
   6723SM  H11T 8685   2.689   6.893   5.586 -1.1539  0.5679 -0.7690
   6723SM  C12S 8686   2.742   6.901   5.388 -0.0274 -0.5500  0.3924
   6723SM  H12S 8687   2.794   6.974   5.323  0.5067 -2.4431 -1.4163
   6723SM  H12T 8688   2.634   6.925   5.373  0.0257 -0.5324  0.0289
   6723SM  C13S 8689   2.770   6.753   5.345 -0.0247  0.6134 -0.0116
   6723SM  H13S 8690   2.745   6.684   5.427  3.5194 -1.3981 -0.4023
   6723SM  H13T 8691   2.881   6.740   5.342 -0.2177 -1.7044  0.9618
   6723SM  C14S 8692   2.706   6.697   5.222  0.0183 -0.2740 -0.3612
   6723SM  H14S 8693   2.735   6.591   5.211  0.0191 -0.2605 -0.4900
   6723SM  H14T 8694   2.745   6.758   5.137 -0.2324  0.1076 -0.2071
   6723SM  C15S 8695   2.556   6.709   5.216 -0.3430 -0.0288  0.0181
   6723SM  H15S 8696   2.517   6.805   5.256  1.0866 -0.3827  2.4825
   6723SM  H15T 8697   2.508   6.633   5.282 -0.4789 -0.0689 -0.1269
   6723SM  C16S 8698   2.510   6.677   5.072  0.2285  0.0550  0.3782
   6723SM  H16S 8699   2.567   6.745   5.005  0.3833 -0.8426 -0.4185
   6723SM  H16T 8700   2.405   6.706   5.050  1.0029  1.8185 -1.2696
   6723SM  C17S 8701   2.525   6.532   5.025 -1.3913  0.6426 -0.3488
   6723SM  H17S 8702   2.632   6.504   5.018 -1.2315  1.3119 -0.6313
   6723SM  H17T 8703   2.484   6.533   4.922  0.1516  2.8377 -1.0253
   6723SM  C18S 8704   2.452   6.435   5.116 -0.5255  0.2296  0.4479
   6723SM  H18S 8705   2.506   6.407   5.209  0.5041  1.7785  0.3586
   6723SM  H18T 8706   2.421   6.340   5.068 -1.0372  0.2499  0.7355
   6723SM  H18U 8707   2.365   6.489   5.160 -2.4111 -0.6151 -1.9986
   6723SM   C1F 8708   3.421   6.839   6.497 -0.1079 -0.1712 -0.1411
   6723SM    OF 8709   3.496   6.750   6.540 -0.1495 -0.2421  0.2071
   6723SM   C2F 8710   3.449   6.988   6.500  0.5354  1.2002 -0.0460
   6723SM   H2F 8711   3.476   7.020   6.604 -0.1420 -0.6996  0.7538
   6723SM   H2G 8712   3.354   7.041   6.478 -0.4234 -0.6085 -0.4727
   6723SM   C3F 8713   3.554   7.026   6.404  0.4972  0.9673  0.0526
   6723SM   H3F 8714   3.648   6.972   6.431 -1.9117 -2.3176  2.7477
   6723SM   H3G 8715   3.582   7.134   6.403  1.2436  0.8370 -2.5497
   6723SM   C4F 8716   3.515   6.983   6.258 -0.1384 -0.8556  0.0955
   6723SM   H4F 8717   3.404   6.989   6.249 -0.0441  1.0430 -0.2413
   6723SM   H4G 8718   3.552   6.879   6.245  0.6265 -0.7490  1.2989
   6723SM   C5F 8719   3.592   7.059   6.151  0.0844  0.4916 -0.1018
   6723SM   H5F 8720   3.689   7.104   6.181 -0.0440 -0.1394  1.3474
   6723SM   H5G 8721   3.536   7.145   6.109  1.7451  2.2811  1.1601
   6723SM   C6F 8722   3.623   6.965   6.031  0.2906 -0.7128 -0.4196
   6723SM   H6F 8723   3.528   6.954   5.974 -0.0136  2.6637 -0.7732
   6723SM   H6G 8724   3.668   6.865   6.046  2.7939  0.1833 -1.3879
   6723SM   C7F 8725   3.719   7.039   5.939  0.8942  0.9902 -0.0964
   6723SM   H7F 8726   3.811   7.062   5.996  1.7362  1.0131 -1.4130
   6723SM   H7G 8727   3.681   7.142   5.919 -0.6351  0.5999  0.6108
   6723SM   C8F 8728   3.744   6.960   5.814  0.2206  0.2956  0.8941
   6723SM   H8F 8729   3.650   6.960   5.755  1.0723  2.2171 -0.5966
   6723SM   H8G 8730   3.757   6.853   5.839  1.3026 -0.0219 -0.8471
   6723SM   C9F 8731   3.864   7.011   5.740 -0.1990 -0.0408  0.5499
   6723SM   H9F 8732   3.874   6.959   5.642 -2.9810  0.5722 -0.1630
   6723SM   H9G 8733   3.952   6.982   5.801 -1.5634 -2.4557  1.4942
   6723SM  C10F 8734   3.858   7.170   5.731  0.2912 -0.5043 -0.1586
   6723SM  H10F 8735   3.876   7.210   5.833 -0.7430  1.4970 -0.7070
   6723SM  H10G 8736   3.751   7.198   5.720 -0.4107 -2.1936  1.6945
   6723SM  C11F 8737   3.953   7.225   5.625  0.4312  0.6971  0.1928
   6723SM  H11F 8738   3.925   7.168   5.534  0.6138  0.0396  0.5388
   6723SM  H11G 8739   4.054   7.202   5.664  0.6844  0.7334 -0.4323
   6723SM  C12F 8740   3.942   7.373   5.595  0.8881  0.4944 -0.1137
   6723SM  H12F 8741   3.987   7.433   5.677  1.8211 -1.0790  0.5872
   6723SM  H12G 8742   3.833   7.390   5.601  0.8648  0.4057 -0.2795
   6723SM  C13F 8743   4.003   7.408   5.458  0.1664 -0.0675 -0.1239
   6723SM  H13F 8744   3.954   7.337   5.388 -2.1345  0.1057  1.1967
   6723SM  H13G 8745   4.112   7.389   5.461  0.1643 -0.8132 -2.5255
   6723SM  C14F 8746   3.975   7.553   5.407  0.0889  0.3435  0.7282
   6723SM  H14F 8747   3.878   7.593   5.442  0.4466 -0.2944  2.5638
   6723SM  H14G 8748   3.960   7.540   5.298  0.8278 -0.7895  0.7410
   6723SM  C15F 8749   4.079   7.660   5.431 -0.0923  0.2662 -0.7519
   6723SM  H15F 8750   4.112   7.654   5.537  1.6846 -2.5694 -1.3505
   6723SM  H15G 8751   4.012   7.747   5.413 -2.3265 -1.6140 -2.0857
   6723SM  C16F 8752   4.205   7.653   5.345 -0.2445  0.0086  0.2282
   6723SM  H16F 8753   4.259   7.558   5.365  1.4149  0.8203 -0.2546
   6723SM  H16G 8754   4.275   7.728   5.386 -2.3800  0.4263  3.5315
   6723SM  C17F 8755   4.179   7.670   5.194  0.1165 -0.4121  0.0327
   6723SM  H17F 8756   4.130   7.770   5.185  1.9779  0.7392  1.8588
   6723SM  H17G 8757   4.107   7.593   5.159 -2.3864  1.6793  0.2146
   6723SM  C18F 8758   4.308   7.669   5.119  0.1859  0.0673  0.7276
   6723SM  H18F 8759   4.364   7.582   5.159  0.7346 -0.1346 -0.4443
   6723SM  H18G 8760   4.358   7.767   5.134  1.7276 -0.8754  2.0689
   6723SM  C19F 8761   4.271   7.656   4.970  0.0561  1.2280  0.6289
   6723SM  H19F 8762   4.180   7.718   4.953 -1.4803 -1.2744 -0.9433
   6723SM  H19G 8763   4.243   7.551   4.945  2.3228  1.0234 -1.3660
   6723SM  C20F 8764   4.385   7.692   4.873  0.4535  0.1321 -0.1189
   6723SM  H20F 8765   4.470   7.624   4.893  0.2041 -0.0187  0.4491
   6723SM  H20G 8766   4.423   7.796   4.885 -0.0422  0.5777 -2.0622
   6723SM  C21F 8767   4.330   7.681   4.734 -0.3454  0.1141  0.5908
   6723SM  H21F 8768   4.238   7.740   4.711  0.5001 -0.2426 -4.8269
   6723SM  H21G 8769   4.306   7.575   4.711 -0.1649  0.3910 -0.9358
   6723SM  C22F 8770   4.434   7.710   4.629 -0.0980 -0.4542  0.1152
   6723SM  H22F 8771   4.406   7.666   4.531 -3.2992  2.2309 -0.3768
   6723SM  H22G 8772   4.526   7.658   4.663 -1.5994 -3.6696 -0.4324
   6723SM  C23F 8773   4.464   7.859   4.598  0.7088  0.3204  0.1866
   6723SM  H23F 8774   4.567   7.864   4.556  1.4397  0.5225  1.9075
   6723SM  H23G 8775   4.444   7.928   4.683  1.0844  1.6826 -0.7963
   6723SM  H23H 8776   4.390   7.893   4.523  1.0479  0.7559  0.0407
   6823SM     N 8777   3.007   2.561   7.254 -0.0221 -0.9443  0.5277
   6823SM   C15 8778   2.920   2.639   7.349 -0.8338 -0.4994 -0.2862
   6823SM  H15A 8779   2.900   2.591   7.443  0.4998  2.0275  1.4083
   6823SM  H15B 8780   2.828   2.668   7.299  0.2607  0.6531 -1.7309
   6823SM  H15C 8781   2.971   2.731   7.371  0.9167 -0.6352 -3.2005
   6823SM   C14 8782   3.036   2.653   7.139 -0.3551 -0.1080 -0.2908
   6823SM  H14A 8783   2.945   2.695   7.099  0.8805  1.4032 -1.6712
   6823SM  H14B 8784   3.096   2.624   7.054 -0.7286  2.0326 -1.3702
   6823SM  H14C 8785   3.091   2.737   7.179  0.2860 -1.4008  1.6786
   6823SM   C13 8786   3.144   2.520   7.316  0.4256  0.7054 -0.5115
   6823SM  H13A 8787   3.201   2.458   7.249  1.6083 -0.4196  1.4672
   6823SM  H13B 8788   3.119   2.467   7.407  0.9078 -2.9522 -2.3141
   6823SM  H13C 8789   3.201   2.608   7.341 -1.6132  1.7612  0.6735
   6823SM   C12 8790   2.932   2.440   7.203 -0.1980  0.6438  0.1775
   6823SM  H12A 8791   2.977   2.403   7.112 -1.4410 -1.8579  0.4887
   6823SM  H12B 8792   2.833   2.472   7.176  0.0171  0.2715 -1.1034
   6823SM   C11 8793   2.914   2.319   7.295  0.2914  0.6947  0.8941
   6823SM  H11A 8794   3.014   2.271   7.307 -0.3525 -0.6545  1.0714
   6823SM  H11B 8795   2.854   2.237   7.250  0.3112  0.6742  0.9047
   6823SM     P 8796   2.706   2.393   7.434 -0.0900 -0.5035 -0.3290
   6823SM   O13 8797   2.626   2.269   7.459  0.0101 -0.0604  0.0102
   6823SM   O14 8798   2.699   2.502   7.532  0.0184 -0.2686 -0.1638
   6823SM   O11 8799   2.666   2.441   7.290  0.4214  0.0886 -0.2833
   6823SM   O12 8800   2.860   2.352   7.420 -0.2180 -0.4272 -0.1442
   6823SM   C1S 8801   2.529   2.487   7.274 -0.9364 -0.1646 -0.8920
   6823SM   H1S 8802   2.522   2.584   7.327  0.6348  0.3034 -1.4858
   6823SM   H1T 8803   2.462   2.408   7.315  0.8415 -2.2181 -1.7236
   6823SM    NF 8804   2.364   2.556   7.107 -0.1653  0.2397 -0.1282
   6823SM   HNF 8805   2.283   2.501   7.087 -0.2287  0.0069  0.7682
   6823SM   C2S 8806   2.495   2.495   7.123 -0.0726  0.0977 -0.5569
   6823SM   H2S 8807   2.569   2.574   7.100 -0.8805  0.6279 -1.3961
   6823SM   C3S 8808   2.523   2.362   7.044 -0.0507 -0.3130 -0.1291
   6823SM   H3S 8809   2.449   2.290   7.087 -0.7702 -0.2371 -1.1973
   6823SM    O3 8810   2.645   2.293   7.075  0.1329 -0.0702  0.2828
   6823SM   HO3 8811   2.663   2.338   7.158 -0.6677  1.7903 -0.5014
   6823SM   C4S 8812   2.490   2.378   6.897 -0.1331 -0.1334  0.3825
   6823SM   H4S 8813   2.397   2.328   6.865 -0.2823  0.5434 -0.2821
   6823SM   C5S 8814   2.567   2.431   6.799 -0.0234 -0.1797  0.3610
   6823SM   H5S 8815   2.657   2.489   6.828 -0.0881  0.3331 -0.4460
   6823SM   C6S 8816   2.531   2.440   6.652  0.1781  0.3515 -0.0834
   6823SM   H6S 8817   2.547   2.544   6.617  2.5739 -0.3984 -1.4391
   6823SM   H6T 8818   2.424   2.409   6.650  0.9576 -2.9706  2.0302
   6823SM   C7S 8819   2.607   2.355   6.541 -0.3321 -0.1359 -0.1848
   6823SM   H7S 8820   2.538   2.355   6.455 -1.1183  0.9507  0.4175
   6823SM   H7T 8821   2.616   2.250   6.575  1.3155 -0.4996 -1.5967
   6823SM   C8S 8822   2.745   2.408   6.499  0.0593  0.2260  0.1961
   6823SM   H8S 8823   2.829   2.373   6.562  2.2729  4.5180 -0.0510
   6823SM   H8T 8824   2.742   2.518   6.486 -1.4447  0.1998  0.0791
   6823SM   C9S 8825   2.792   2.346   6.359  0.2493 -0.3555 -0.5332
   6823SM   H9S 8826   2.716   2.383   6.288  2.0623  2.5109 -1.1248
   6823SM   H9T 8827   2.782   2.236   6.346 -0.6862 -0.2426 -0.8277
   6823SM  C10S 8828   2.923   2.392   6.309  0.7667 -0.2603  0.9365
   6823SM  H10S 8829   3.000   2.341   6.371 -0.8025 -0.9137  2.4414
   6823SM  H10T 8830   2.916   2.501   6.325 -1.5725 -0.3948  1.2547
   6823SM  C11S 8831   2.948   2.353   6.158 -0.7552 -0.0281 -0.4893
   6823SM  H11S 8832   2.903   2.254   6.135 -0.4259 -0.0869 -0.8728
   6823SM  H11T 8833   3.055   2.333   6.137 -0.9053  0.3902 -1.7224
   6823SM  C12S 8834   2.892   2.453   6.055 -1.1590 -0.3509 -0.0632
   6823SM  H12S 8835   2.944   2.547   6.082  2.4285 -2.7571  2.2960
   6823SM  H12T 8836   2.784   2.473   6.074 -0.3949  2.6921  1.6988
   6823SM  C13S 8837   2.904   2.396   5.916  0.4836 -0.5228  0.4329
   6823SM  H13S 8838   2.856   2.296   5.907  0.4759 -0.3536 -2.2324
   6823SM  H13T 8839   3.013   2.379   5.905  0.5798 -0.4901  1.2812
   6823SM  C14S 8840   2.854   2.485   5.799 -0.3693  0.0630 -0.1436
   6823SM  H14S 8841   2.904   2.584   5.791 -1.4463  0.6187 -0.0946
   6823SM  H14T 8842   2.747   2.508   5.812 -0.2527  0.3539  0.3448
   6823SM  C15S 8843   2.867   2.407   5.670 -0.2381  0.3838  0.3243
   6823SM  H15S 8844   2.798   2.320   5.666 -0.9983  0.9404  0.9066
   6823SM  H15T 8845   2.967   2.359   5.663 -0.0267  0.9025 -0.3255
   6823SM  C16S 8846   2.834   2.487   5.543  0.7170 -0.4213 -0.3272
   6823SM  H16S 8847   2.924   2.546   5.516  0.5580  1.6852  3.1072
   6823SM  H16T 8848   2.743   2.550   5.551  1.7009  0.8605  1.3198
   6823SM  C17S 8849   2.806   2.394   5.426  0.6507  0.3977 -0.0130
   6823SM  H17S 8850   2.723   2.322   5.439  0.6517  0.3674 -0.1707
   6823SM  H17T 8851   2.897   2.329   5.430  1.5551  1.6223  0.0812
   6823SM  C18S 8852   2.791   2.469   5.292 -0.7578 -0.3234 -0.2747
   6823SM  H18S 8853   2.774   2.392   5.214 -0.5679 -2.7809  1.9728
   6823SM  H18T 8854   2.879   2.535   5.272  0.1267 -1.5588 -0.5481
   6823SM  H18U 8855   2.705   2.539   5.288  1.0830  2.0207 -1.0756
   6823SM   C1F 8856   2.335   2.683   7.138  0.0359  0.1822  0.1167
   6823SM    OF 8857   2.427   2.760   7.173 -0.2923 -0.0773  0.5185
   6823SM   C2F 8858   2.193   2.722   7.139 -0.0175  0.2721  0.2366
   6823SM   H2F 8859   2.159   2.751   7.241 -0.4656  1.2028 -0.1663
   6823SM   H2G 8860   2.128   2.638   7.107  1.2656 -0.7283  0.2095
   6823SM   C3F 8861   2.169   2.848   7.048  0.0003  0.1496 -0.6855
   6823SM   H3F 8862   2.233   2.930   7.085 -0.3948 -0.5632  1.7865
   6823SM   H3G 8863   2.063   2.868   7.073 -0.9625 -1.2372 -3.2305
   6823SM   C4F 8864   2.171   2.823   6.897 -0.1910  0.5055 -0.0003
   6823SM   H4F 8865   2.117   2.905   6.845  0.4510  1.6720  1.1296
   6823SM   H4G 8866   2.109   2.731   6.881 -1.3424  1.2300  0.1670
   6823SM   C5F 8867   2.301   2.816   6.826  0.4064 -0.3200 -0.4646
   6823SM   H5F 8868   2.293   2.784   6.720 -0.2933 -3.4380  0.4272
   6823SM   H5G 8869   2.368   2.745   6.881  0.6447  0.6384  0.5031
   6823SM   C6F 8870   2.367   2.954   6.819 -0.0119  0.0846 -0.1349
   6823SM   H6F 8871   2.375   3.015   6.911  0.2475  0.9022 -0.6871
   6823SM   H6G 8872   2.298   3.015   6.756 -1.8445 -1.3954  0.3654
   6823SM   C7F 8873   2.515   2.939   6.770  0.1580  0.5836  0.0275
   6823SM   H7F 8874   2.574   2.882   6.845 -0.9753  1.0170  1.2997
   6823SM   H7G 8875   2.564   3.038   6.760 -1.1599  1.2954  0.3463
   6823SM   C8F 8876   2.525   2.860   6.634  0.2257 -0.1395 -0.4621
   6823SM   H8F 8877   2.448   2.912   6.573  2.2884  1.0127 -2.2084
   6823SM   H8G 8878   2.497   2.753   6.647  4.7234 -1.4151  0.5092
   6823SM   C9F 8879   2.661   2.877   6.565 -0.8331 -0.6026 -0.0012
   6823SM   H9F 8880   2.723   2.794   6.604 -2.6352 -1.3735  1.3566
   6823SM   H9G 8881   2.707   2.968   6.607 -0.1023 -2.2793  3.1126
   6823SM  C10F 8882   2.654   2.874   6.411  0.2089 -0.4243 -0.0897
   6823SM  H10F 8883   2.591   2.960   6.378 -0.7494 -0.9898  0.2221
   6823SM  H10G 8884   2.605   2.782   6.371 -0.2739 -0.5090  0.6863
   6823SM  C11F 8885   2.792   2.869   6.341 -0.0522 -0.2436  0.6440
   6823SM  H11F 8886   2.772   2.884   6.232 -0.9764 -0.4978  0.7617
   6823SM  H11G 8887   2.852   2.776   6.352  1.1085  0.5238  0.9005
   6823SM  C12F 8888   2.892   2.981   6.379  0.4619 -0.1024 -0.6634
   6823SM  H12F 8889   2.935   2.970   6.481 -0.5531  0.9795 -0.0943
   6823SM  H12G 8890   2.846   3.082   6.369 -1.1969 -0.5402  1.6258
   6823SM  C13F 8891   3.011   2.975   6.284 -0.2074 -0.9521 -0.1933
   6823SM  H13F 8892   2.981   2.988   6.177  0.6137  0.6994 -0.2557
   6823SM  H13G 8893   3.065   2.879   6.302  0.8458 -0.3987 -0.3140
   6823SM  C14F 8894   3.113   3.089   6.304  0.1095 -0.1560  0.3421
   6823SM  H14F 8895   3.210   3.048   6.270  2.2593  0.8567  4.5945
   6823SM  H14G 8896   3.127   3.100   6.414  1.5767 -3.6334  0.6367
   6823SM  C15F 8897   3.078   3.235   6.246  0.5542  0.0851  0.0401
   6823SM  H15F 8898   3.161   3.305   6.269  1.7964 -0.8395 -1.4175
   6823SM  H15G 8899   2.985   3.268   6.297  1.6433  2.6968  0.4740
   6823SM  C16F 8900   3.056   3.248   6.094 -0.3436  0.1011 -0.4529
   6823SM  H16F 8901   3.060   3.354   6.063  2.3931 -0.2277 -1.4626
   6823SM  H16G 8902   2.953   3.219   6.063 -0.5844  0.8254 -0.3358
   6823SM  C17F 8903   3.167   3.179   6.004 -0.3102 -0.3138 -0.1843
   6823SM  H17F 8904   3.144   3.072   6.019 -2.6258  0.2163  0.5559
   6823SM  H17G 8905   3.268   3.204   6.042 -0.9690  1.0985  0.7671
   6823SM  C18F 8906   3.168   3.226   5.856  0.9236 -0.2549  0.2028
   6823SM  H18F 8907   3.170   3.337   5.858 -0.7700 -0.1617  3.9785
   6823SM  H18G 8908   3.071   3.198   5.809  1.5815 -0.9172 -0.7850
   6823SM  C19F 8909   3.272   3.154   5.767  0.6402 -0.1369 -0.3269
   6823SM  H19F 8910   3.256   3.044   5.781 -1.0777  0.1455  0.1778
   6823SM  H19G 8911   3.372   3.174   5.811  0.6263 -2.1232  0.7485
   6823SM  C20F 8912   3.265   3.195   5.615  0.0374 -0.0909 -0.7166
   6823SM  H20F 8913   3.169   3.151   5.582  1.1877 -1.7580 -2.0467
   6823SM  H20G 8914   3.340   3.133   5.560 -1.0664 -1.9423 -0.2256
   6823SM  C21F 8915   3.272   3.344   5.595  0.8544 -0.1813 -0.0289
   6823SM  H21F 8916   3.359   3.382   5.654 -0.0512  2.2280 -0.1004
   6823SM  H21G 8917   3.189   3.401   5.642 -0.1820  0.1370 -2.1310
   6823SM  C22F 8918   3.288   3.389   5.447  0.5234  0.2035  0.0260
   6823SM  H22F 8919   3.190   3.370   5.398  0.0576 -1.2459  1.4227
   6823SM  H22G 8920   3.370   3.318   5.421 -1.5174 -2.1635 -0.3795
   6823SM  C23F 8921   3.332   3.534   5.444  0.5115 -0.9959  0.0855
   6823SM  H23F 8922   3.348   3.565   5.339  0.8603 -1.0913  0.1114
   6823SM  H23G 8923   3.424   3.545   5.505 -0.8509  2.8025  1.7868
   6823SM  H23H 8924   3.255   3.598   5.494  0.5009 -1.7939  1.1361
   6923SM     N 8925   4.137   3.227   7.797 -0.4769 -0.2447  0.6461
   6923SM   C15 8926   4.222   3.192   7.918  0.2547 -0.3345 -0.0547
   6923SM  H15A 8927   4.328   3.190   7.898  0.1104 -0.4724 -0.8487
   6923SM  H15B 8928   4.196   3.095   7.958  0.5756 -0.3138  0.2040
   6923SM  H15C 8929   4.207   3.255   8.005 -0.3362  0.8497 -0.9839
   6923SM   C14 8930   3.996   3.234   7.830  0.1215  0.5279  0.2238
   6923SM  H14A 8931   3.936   3.258   7.743 -1.3379 -1.6227  0.5544
   6923SM  H14B 8932   3.969   3.312   7.900 -0.0612  1.8716 -1.2686
   6923SM  H14C 8933   3.958   3.137   7.855  1.6915 -0.6400 -1.5937
   6923SM   C13 8934   4.177   3.358   7.735 -0.8640  0.0557 -0.0385
   6923SM  H13A 8935   4.281   3.348   7.704 -0.8978 -1.1941  0.1879
   6923SM  H13B 8936   4.168   3.446   7.796 -1.4321  0.0328 -0.0911
   6923SM  H13C 8937   4.131   3.374   7.639  1.7943 -1.7869 -1.7946
   6923SM   C12 8938   4.160   3.128   7.688  0.9176  0.2960  0.5313
   6923SM  H12A 8939   4.138   3.032   7.732 -2.1358  1.0053  0.7671
   6923SM  H12B 8940   4.267   3.125   7.676  0.9475  1.0234  0.5877
   6923SM   C11 8941   4.073   3.131   7.550  0.2250  0.3218 -0.2061
   6923SM  H11A 8942   4.110   3.050   7.483  0.4113 -0.4751  0.8228
   6923SM  H11B 8943   4.099   3.223   7.495  0.9213 -0.0260 -0.4696
   6923SM     P 8944   3.826   3.091   7.474  0.2208  0.0558 -0.1450
   6923SM   O13 8945   3.827   2.943   7.453  0.1281 -0.1990  0.2471
   6923SM   O14 8946   3.700   3.152   7.516 -0.3341  0.4261  0.2248
   6923SM   O11 8947   3.875   3.175   7.350  0.4180  0.1762  0.2608
   6923SM   O12 8948   3.934   3.119   7.587 -0.3386  0.4316 -0.0046
   6923SM   C1S 8949   3.949   3.109   7.244  0.3281  0.0105  0.1517
   6923SM   H1S 8950   3.904   3.014   7.207  0.1576  0.0675  0.2125
   6923SM   H1T 8951   4.053   3.077   7.269  0.7858  0.4215 -1.1881
   6923SM    NF 8952   4.021   3.132   7.010  0.4897  0.0660  0.1032
   6923SM   HNF 8953   4.114   3.151   6.979  0.0254  2.7849  0.1158
   6923SM   C2S 8954   3.970   3.205   7.123  0.9863  0.6016  0.0506
   6923SM   H2S 8955   3.870   3.247   7.096  1.6186  1.5241 -0.9224
   6923SM   C3S 8956   4.064   3.322   7.173  0.0936  0.2782  0.2586
   6923SM   H3S 8957   4.157   3.267   7.194 -1.6875 -2.9167  0.3965
   6923SM    O3 8958   4.033   3.384   7.296 -0.2413  0.2059  0.6764
   6923SM   HO3 8959   3.975   3.331   7.353 -0.9770  0.5246  0.2421
   6923SM   C4S 8960   4.086   3.435   7.067 -0.0722  0.1488 -0.5617
   6923SM   H4S 8961   3.989   3.455   7.018 -0.8995 -1.5446  0.2873
   6923SM   C5S 8962   4.198   3.495   7.032  1.1498  0.1567  0.2539
   6923SM   H5S 8963   4.291   3.473   7.086 -0.1697  0.2040  2.7003
   6923SM   C6S 8964   4.194   3.599   6.922  0.0358  0.1683  0.3622
   6923SM   H6S 8965   4.261   3.683   6.950 -0.5865  0.5228  0.8210
   6923SM   H6T 8966   4.093   3.636   6.896  0.1061  0.4550  0.4999
   6923SM   C7S 8967   4.258   3.546   6.794 -0.2619  0.0846  1.0077
   6923SM   H7S 8968   4.209   3.453   6.760 -1.1985  0.8002  0.3204
   6923SM   H7T 8969   4.365   3.520   6.809 -0.1046 -0.0170 -0.2456
   6923SM   C8S 8970   4.251   3.646   6.677  0.1531  0.3064 -0.2448
   6923SM   H8S 8971   4.319   3.729   6.706 -0.6751  0.3924  1.6183
   6923SM   H8T 8972   4.148   3.688   6.685  0.3538  0.5016  2.3775
   6923SM   C9S 8973   4.282   3.590   6.541  0.2964  0.1034  0.6974
   6923SM   H9S 8974   4.212   3.504   6.529  0.1382  0.2999  0.1681
   6923SM   H9T 8975   4.385   3.548   6.537 -0.0921 -0.9442  1.3197
   6923SM  C10S 8976   4.262   3.698   6.438  0.6189  0.3959  0.0902
   6923SM  H10S 8977   4.317   3.787   6.477 -1.1368  2.1614 -1.2173
   6923SM  H10T 8978   4.152   3.712   6.451  0.4095 -0.8111 -0.3019
   6923SM  C11S 8979   4.281   3.648   6.296 -0.1344  0.6230 -0.0671
   6923SM  H11S 8980   4.217   3.557   6.298  2.7809 -1.6253 -1.3878
   6923SM  H11T 8981   4.385   3.611   6.285  0.5383  2.6178 -0.8817
   6923SM  C12S 8982   4.249   3.748   6.192  1.0420  0.0718  0.1062
   6923SM  H12S 8983   4.321   3.831   6.178  1.5389 -0.6417 -1.9075
   6923SM  H12T 8984   4.149   3.794   6.207  0.3362 -1.8362  1.7731
   6923SM  C13S 8985   4.239   3.672   6.056  0.1060  0.8901 -0.4637
   6923SM  H13S 8986   4.177   3.580   6.058  2.2391 -0.6690 -1.5760
   6923SM  H13T 8987   4.343   3.638   6.034  0.1895  0.3647  0.6439
   6923SM  C14S 8988   4.185   3.748   5.934 -0.3703  0.1589 -0.3543
   6923SM  H14S 8989   4.252   3.832   5.904  1.0209 -0.5296  0.6844
   6923SM  H14T 8990   4.090   3.796   5.966 -0.4307 -0.7408  0.8693
   6923SM  C15S 8991   4.167   3.654   5.815 -0.2532  0.2298  0.7249
   6923SM  H15S 8992   4.086   3.584   5.845 -1.6239  0.3906 -2.2454
   6923SM  H15T 8993   4.267   3.605   5.814 -1.7814 -3.2002  0.4651
   6923SM  C16S 8994   4.133   3.723   5.683  0.3059 -0.9930  0.9314
   6923SM  H16S 8995   4.200   3.808   5.660 -0.6854  0.3226  2.7275
   6923SM  H16T 8996   4.037   3.777   5.695  1.1826  1.1780 -1.0514
   6923SM  C17S 8997   4.131   3.636   5.557  0.8179  0.9348  0.2555
   6923SM  H17S 8998   4.059   3.552   5.569  1.2146  0.8106  2.0461
   6923SM  H17T 8999   4.229   3.586   5.547  0.2442 -0.4684  1.2834
   6923SM  C18S 9000   4.097   3.709   5.424 -0.7164 -0.1502 -0.1644
   6923SM  H18S 9001   4.128   3.647   5.337  1.6414  1.6876 -0.7454
   6923SM  H18T 9002   4.155   3.803   5.411 -1.1496 -0.1337 -2.4382
   6923SM  H18U 9003   3.994   3.747   5.436 -0.8385  0.1840 -2.0178
   6923SM   C1F 9004   3.948   3.042   6.942 -0.6681 -1.0871  0.0159
   6923SM    OF 9005   3.832   3.023   6.968  0.5684  0.1410  0.4196
   6923SM   C2F 9006   4.014   2.967   6.823  1.3427 -0.0407 -0.7916
   6923SM   H2F 9007   4.000   2.859   6.844  0.2975  0.0932 -0.7470
   6923SM   H2G 9008   4.122   2.995   6.825  1.4144 -0.3639  0.3905
   6923SM   C3F 9009   3.953   3.007   6.684 -0.2503 -0.1746 -0.4401
   6923SM   H3F 9010   3.845   2.980   6.680 -0.7598  1.7502 -0.6386
   6923SM   H3G 9011   4.001   2.950   6.602  0.9504 -0.0836  0.1860
   6923SM   C4F 9012   3.973   3.155   6.647  0.7032 -0.0882 -0.3280
   6923SM   H4F 9013   4.082   3.174   6.638  0.1137  2.7663 -3.4827
   6923SM   H4G 9014   3.929   3.217   6.728 -1.7378 -1.0989 -0.7612
   6923SM   C5F 9015   3.912   3.196   6.514 -0.0971 -0.0305  0.6211
   6923SM   H5F 9016   3.921   3.305   6.496 -3.2976  0.2607  0.0981
   6923SM   H5G 9017   3.804   3.171   6.522 -0.2765  1.1520  2.3340
   6923SM   C6F 9018   3.984   3.127   6.398  0.6131 -0.4366 -0.9857
   6923SM   H6F 9019   3.952   3.023   6.421 -1.8627  0.5930  0.5977
   6923SM   H6G 9020   4.093   3.142   6.413  0.3439 -0.1890  0.9371
   6923SM   C7F 9021   3.933   3.175   6.262  0.2041 -0.0541 -0.8454
   6923SM   H7F 9022   3.966   3.281   6.249  0.1283 -0.1238 -1.6795
   6923SM   H7G 9023   3.822   3.172   6.268  0.2196 -1.6208 -0.9119
   6923SM   C8F 9024   3.995   3.100   6.139 -0.4619  1.0538 -1.4453
   6923SM   H8F 9025   3.944   3.003   6.123 -0.6622  1.0895 -1.0288
   6923SM   H8G 9026   4.100   3.071   6.165 -0.7013 -0.6607 -2.2467
   6923SM   C9F 9027   4.000   3.190   6.009  0.4991  0.5696  0.0200
   6923SM   H9F 9028   4.055   3.280   6.044  0.0183  0.4622  1.0966
   6923SM   H9G 9029   3.893   3.197   5.978  0.8823 -0.7755 -1.8182
   6923SM  C10F 9030   4.065   3.125   5.882 -0.1445  0.2206 -0.7745
   6923SM  H10F 9031   3.996   3.043   5.852  0.5498  0.2421 -2.5105
   6923SM  H10G 9032   4.152   3.073   5.927 -0.4272  1.0484  0.8174
   6923SM  C11F 9033   4.103   3.230   5.784 -0.1475 -0.0843 -0.2212
   6923SM  H11F 9034   4.178   3.303   5.821 -0.3580 -0.1083  0.2535
   6923SM  H11G 9035   4.016   3.291   5.750 -0.4979 -1.6148 -2.2968
   6923SM  C12F 9036   4.153   3.172   5.655  0.0019 -0.3429  1.2731
   6923SM  H12F 9037   4.071   3.106   5.617  0.8066 -0.7289  0.1730
   6923SM  H12G 9038   4.244   3.110   5.668  1.1171  1.0054  0.1835
   6923SM  C13F 9039   4.169   3.278   5.542  0.6282 -0.4652  0.4082
   6923SM  H13F 9040   4.252   3.343   5.577  1.3280 -0.2925 -1.4327
   6923SM  H13G 9041   4.072   3.330   5.551  0.3727 -0.7831 -0.3871
   6923SM  C14F 9042   4.190   3.210   5.413 -0.0366  0.0627 -0.2267
   6923SM  H14F 9043   4.089   3.201   5.366 -0.3609 -0.5262  0.5688
   6923SM  H14G 9044   4.249   3.116   5.418  0.1828  0.2177  0.0751
   6923SM  C15F 9045   4.256   3.296   5.308 -0.0417  0.0928  0.0235
   6923SM  H15F 9046   4.361   3.305   5.343 -1.0885 -1.4698  4.1942
   6923SM  H15G 9047   4.207   3.396   5.299 -2.7639 -1.2766 -1.6262
   6923SM  C16F 9048   4.253   3.232   5.166 -0.0001 -0.3922 -0.4488
   6923SM  H16F 9049   4.147   3.207   5.143  0.1610  0.1828 -1.9184
   6923SM  H16G 9050   4.322   3.144   5.170 -0.8388 -1.0392  0.1701
   6923SM  C17F 9051   4.303   3.334   5.060  0.6284  0.1768 -0.1548
   6923SM  H17F 9052   4.238   3.425   5.063 -0.3219 -0.4457 -1.0470
   6923SM  H17G 9053   4.282   3.295   4.958  2.7772  0.4393 -0.7445
   6923SM  C18F 9054   4.453   3.377   5.080 -0.2348 -0.7827 -0.1859
   6923SM  H18F 9055   4.511   3.283   5.089 -1.5455 -1.5243  0.9519
   6923SM  H18G 9056   4.456   3.429   5.178  2.8545 -1.8121  0.3880
   6923SM  C19F 9057   4.494   3.473   4.966  0.7225 -0.4933 -0.7769
   6923SM  H19F 9058   4.414   3.547   4.946 -1.0570 -2.5136 -1.4706
   6923SM  H19G 9059   4.486   3.416   4.871 -0.2395  0.0643 -1.0436
   6923SM  C20F 9060   4.625   3.549   5.001  0.2048  0.3339 -0.0990
   6923SM  H20F 9061   4.707   3.474   4.996 -1.5445 -1.7678  1.2371
   6923SM  H20G 9062   4.619   3.579   5.108  0.7324  1.6224 -0.4182
   6923SM  C21F 9063   4.653   3.680   4.927  0.0862 -0.1873 -0.5517
   6923SM  H21F 9064   4.555   3.731   4.936  0.7832  0.9701  0.9116
   6923SM  H21G 9065   4.661   3.658   4.819 -0.8575 -1.9942 -0.2881
   6923SM  C22F 9066   4.770   3.748   4.989 -0.3168  0.2787 -0.6572
   6923SM  H22F 9067   4.857   3.684   4.962 -0.8110 -0.6742 -0.0407
   6923SM  H22G 9068   4.756   3.752   5.099  0.3450 -1.7204 -0.4677
   6923SM  C23F 9069   4.783   3.888   4.928 -0.7216 -0.0627  0.3277
   6923SM  H23F 9070   4.866   3.945   4.976 -2.7407  1.5765  2.0380
   6923SM  H23G 9071   4.693   3.945   4.957 -2.3491 -2.7051  0.8230
   6923SM  H23H 9072   4.791   3.888   4.817 -3.3543  2.6889  0.0331
   7023SM     N 9073   3.915   1.627   7.238 -0.2444 -0.6727 -0.6004
   7023SM   C15 9074   3.819   1.520   7.212 -0.3956 -0.3395 -0.2546
   7023SM  H15A 9075   3.869   1.425   7.209 -0.8331 -0.6859  1.8247
   7023SM  H15B 9076   3.763   1.541   7.121 -0.1937 -1.5765 -0.6802
   7023SM  H15C 9077   3.743   1.508   7.288 -0.4295  1.8548  0.1428
   7023SM   C14 9078   3.994   1.612   7.369 -0.0345 -0.0956  0.4511
   7023SM  H14A 9079   3.919   1.588   7.443  0.2209  0.1603  0.7893
   7023SM  H14B 9080   4.054   1.696   7.399  2.7542 -2.0166  0.6807
   7023SM  H14C 9081   4.057   1.524   7.367  1.3866  0.8704  1.1756
   7023SM   C13 9082   4.013   1.624   7.123 -0.5679  0.1014 -0.6673
   7023SM  H13A 9083   4.075   1.537   7.132  1.5069  1.6476  1.1873
   7023SM  H13B 9084   4.087   1.702   7.127 -1.1842  0.6588  0.5246
   7023SM  H13C 9085   3.962   1.629   7.028  1.1978  1.2954 -1.6047
   7023SM   C12 9086   3.854   1.769   7.248  0.6710  0.6516 -0.4112
   7023SM  H12A 9087   3.807   1.783   7.152 -0.7335 -0.6603  0.0522
   7023SM  H12B 9088   3.931   1.845   7.251  0.9952  0.3051  0.5126
   7023SM   C11 9089   3.743   1.795   7.356 -0.4715  0.8754  0.2546
   7023SM  H11A 9090   3.697   1.895   7.346 -2.7356 -0.2220 -1.2094
   7023SM  H11B 9091   3.798   1.803   7.452 -1.5982  0.1667  0.9794
   7023SM     P 9092   3.496   1.734   7.321 -0.2783  0.4654  0.0163
   7023SM   O13 9093   3.405   1.616   7.325  0.3335  0.4711  0.0460
   7023SM   O14 9094   3.445   1.845   7.399  0.5745  0.6621 -0.5000
   7023SM   O11 9095   3.536   1.784   7.177 -0.2632 -0.0397 -0.1453
   7023SM   O12 9096   3.644   1.695   7.374 -0.0286  0.3321 -0.4631
   7023SM   C1S 9097   3.449   1.872   7.114  0.4859 -0.7569  0.6627
   7023SM   H1S 9098   3.464   1.976   7.150  2.7198 -0.2074 -1.5659
   7023SM   H1T 9099   3.342   1.853   7.140 -0.3898  1.9687 -0.6011
   7023SM    NF 9100   3.338   1.932   6.905 -0.8561 -0.3807  0.3510
   7023SM   HNF 9101   3.277   1.883   6.844 -0.5005  1.1577 -1.3550
   7023SM   C2S 9102   3.457   1.864   6.960  0.3038  0.9984 -0.7278
   7023SM   H2S 9103   3.552   1.914   6.932 -0.4571  1.9388 -1.6849
   7023SM   C3S 9104   3.473   1.716   6.915  0.0110 -0.3210  0.6162
   7023SM   H3S 9105   3.391   1.648   6.945 -2.9613  1.0992 -3.4793
   7023SM    O3 9106   3.597   1.664   6.963 -0.3171 -0.2229 -0.6615
   7023SM   HO3 9107   3.595   1.695   7.053  0.0633  2.4411 -1.4777
   7023SM   C4S 9108   3.462   1.705   6.761  0.2512  1.0113  0.1555
   7023SM   H4S 9109   3.357   1.699   6.728 -0.7398  0.1223  3.1745
   7023SM   C5S 9110   3.562   1.703   6.666 -0.2890  0.4923 -0.0697
   7023SM   H5S 9111   3.666   1.696   6.702 -0.6549 -2.2544  0.6900
   7023SM   C6S 9112   3.540   1.694   6.518  0.2320 -0.2058  0.5736
   7023SM   H6S 9113   3.595   1.605   6.480  1.8645  0.6029  0.9424
   7023SM   H6T 9114   3.595   1.777   6.469  3.1893 -2.8425 -0.9242
   7023SM   C7S 9115   3.402   1.697   6.456 -0.0443 -0.1003 -0.3891
   7023SM   H7S 9116   3.343   1.785   6.489  0.7718 -0.7268  3.1405
   7023SM   H7T 9117   3.352   1.606   6.495  0.8580  0.4421  2.2589
   7023SM   C8S 9118   3.405   1.690   6.298  0.2266 -0.0560  1.1954
   7023SM   H8S 9119   3.300   1.670   6.266  0.8125 -0.8004 -0.3322
   7023SM   H8T 9120   3.455   1.597   6.264 -0.4544  0.3986 -1.1865
   7023SM   C9S 9121   3.453   1.815   6.215  0.1137 -0.1105 -0.2532
   7023SM   H9S 9122   3.543   1.861   6.262 -0.7677  2.0330 -0.5874
   7023SM   H9T 9123   3.379   1.897   6.222  0.4975  0.1771  0.7317
   7023SM  C10S 9124   3.490   1.780   6.070 -0.0899  0.3273 -0.5504
   7023SM  H10S 9125   3.594   1.741   6.059 -0.4231 -0.8761  0.2684
   7023SM  H10T 9126   3.495   1.877   6.016  0.8605 -0.2901 -1.6180
   7023SM  C11S 9127   3.384   1.697   5.998  0.3137 -0.5036 -0.3880
   7023SM  H11S 9128   3.287   1.750   6.006 -1.1353 -2.7935 -1.7761
   7023SM  H11T 9129   3.379   1.597   6.045  0.3344 -0.6156 -0.6222
   7023SM  C12S 9130   3.396   1.681   5.843 -0.7381 -0.4006  0.2054
   7023SM  H12S 9131   3.351   1.763   5.784 -1.1988 -0.6132  0.2564
   7023SM  H12T 9132   3.328   1.598   5.814 -0.2718 -0.4846 -0.6751
   7023SM  C13S 9133   3.538   1.651   5.792 -0.2172  0.3621  0.5305
   7023SM  H13S 9134   3.582   1.573   5.857 -0.0617  1.1849  1.4324
   7023SM  H13T 9135   3.611   1.734   5.791  0.8688 -0.5514 -1.4955
   7023SM  C14S 9136   3.534   1.599   5.652 -0.0510 -0.4136  0.5366
   7023SM  H14S 9137   3.464   1.513   5.642 -0.4799  0.1736 -2.5561
   7023SM  H14T 9138   3.633   1.572   5.610 -0.4893 -0.9105 -0.2040
   7023SM  C15S 9139   3.477   1.697   5.543 -0.1863  0.6178  0.3958
   7023SM  H15S 9140   3.566   1.722   5.481 -0.0751  0.4846  0.5022
   7023SM  H15T 9141   3.459   1.797   5.588 -0.6855  1.3238 -1.2681
   7023SM  C16S 9142   3.347   1.650   5.470 -0.1627  0.1694 -0.7785
   7023SM  H16S 9143   3.268   1.648   5.548  0.4226  0.0671 -0.1769
   7023SM  H16T 9144   3.341   1.550   5.422  0.5966  0.2545 -1.0578
   7023SM  C17S 9145   3.315   1.752   5.359 -0.5305  0.0768 -0.4433
   7023SM  H17S 9146   3.321   1.853   5.405  1.2072 -0.7791  1.3354
   7023SM  H17T 9147   3.209   1.733   5.334 -0.3141  0.7595 -1.9826
   7023SM  C18S 9148   3.397   1.749   5.229 -0.4928  0.4207 -0.6769
   7023SM  H18S 9149   3.504   1.770   5.249 -0.1483 -1.3782 -0.4283
   7023SM  H18T 9150   3.355   1.832   5.169  2.3250  2.3359 -0.2015
   7023SM  H18U 9151   3.399   1.657   5.166  2.6135  1.2959 -2.0394
   7023SM   C1F 9152   3.324   2.062   6.909 -0.0013  0.0836  0.0943
   7023SM    OF 9153   3.406   2.133   6.968 -0.3553  0.1242 -0.2395
   7023SM   C2F 9154   3.198   2.120   6.858 -0.9266 -0.0374 -0.3060
   7023SM   H2F 9155   3.111   2.104   6.926 -0.0469  2.3933  1.5320
   7023SM   H2G 9156   3.167   2.072   6.763 -3.0033  0.3825  0.1089
   7023SM   C3F 9157   3.200   2.274   6.838 -0.4176  0.3734  0.0673
   7023SM   H3F 9158   3.266   2.283   6.749  1.1668 -1.0123  1.0399
   7023SM   H3G 9159   3.242   2.343   6.914 -2.9587  0.6542  1.2963
   7023SM   C4F 9160   3.062   2.335   6.807  0.2116  0.2326 -0.2123
   7023SM   H4F 9161   3.001   2.308   6.896  0.6354  0.9799  0.3098
   7023SM   H4G 9162   3.016   2.294   6.715 -0.0743 -0.8766  0.3947
   7023SM   C5F 9163   3.049   2.489   6.809  0.4417  0.5628 -0.1614
   7023SM   H5F 9164   3.060   2.525   6.914  1.9531  0.4434 -0.2576
   7023SM   H5G 9165   2.946   2.506   6.772  0.3551 -2.5033 -1.5638
   7023SM   C6F 9166   3.153   2.568   6.733 -0.4240 -0.5835  0.2976
   7023SM   H6F 9167   3.256   2.531   6.753  0.8493  1.6515 -1.6119
   7023SM   H6G 9168   3.135   2.676   6.754 -0.0657  0.2710 -3.1142
   7023SM   C7F 9169   3.127   2.555   6.586  0.5754 -0.5967 -0.2412
   7023SM   H7F 9170   3.039   2.616   6.556  1.3162  1.0997  0.8460
   7023SM   H7G 9171   3.111   2.452   6.548 -2.3174 -0.1803 -0.4392
   7023SM   C8F 9172   3.241   2.613   6.505 -0.2686 -0.8624  0.5270
   7023SM   H8F 9173   3.341   2.569   6.525  1.2260  2.6075  1.4097
   7023SM   H8G 9174   3.257   2.715   6.546 -0.3731 -1.3826  1.9265
   7023SM   C9F 9175   3.194   2.626   6.367  0.4542 -0.4328  0.1544
   7023SM   H9F 9176   3.102   2.687   6.361  1.5699  1.1492 -2.9453
   7023SM   H9G 9177   3.158   2.529   6.325 -1.0285  0.7599 -1.4395
   7023SM  C10F 9178   3.307   2.677   6.275  0.2449 -0.5970 -0.2030
   7023SM  H10F 9179   3.395   2.613   6.299  2.2389  1.3594 -1.8104
   7023SM  H10G 9180   3.339   2.771   6.324  0.8850  0.1364 -1.9331
   7023SM  C11F 9181   3.265   2.678   6.131 -0.9341 -0.2487  1.1827
   7023SM  H11F 9182   3.179   2.745   6.109 -0.6050 -0.1901  0.0687
   7023SM  H11G 9183   3.238   2.573   6.105  1.3812 -0.7437  0.5032
   7023SM  C12F 9184   3.374   2.719   6.028  0.5317 -0.7101  0.1857
   7023SM  H12F 9185   3.455   2.643   6.028  0.6433 -0.6037  1.1174
   7023SM  H12G 9186   3.425   2.813   6.057 -1.2654  0.3181  0.1672
   7023SM  C13F 9187   3.327   2.737   5.881  0.4482 -0.2501  0.1616
   7023SM  H13F 9188   3.240   2.806   5.876  1.5295  1.5288  3.1189
   7023SM  H13G 9189   3.295   2.635   5.851 -0.4113 -0.3143  1.2349
   7023SM  C14F 9190   3.445   2.792   5.806 -0.4931  0.0783  0.5532
   7023SM  H14F 9191   3.535   2.728   5.814  0.3309  1.0230 -0.8316
   7023SM  H14G 9192   3.469   2.896   5.836  0.6366  0.7584 -2.4168
   7023SM  C15F 9193   3.421   2.792   5.655 -0.1623  0.1850  0.2342
   7023SM  H15F 9194   3.351   2.875   5.632  3.8467  3.4042 -1.5598
   7023SM  H15G 9195   3.368   2.696   5.640  0.2197 -0.0290  0.2504
   7023SM  C16F 9196   3.541   2.797   5.560 -0.0300  0.0643  0.0397
   7023SM  H16F 9197   3.606   2.712   5.589  1.3674  1.2873  0.6242
   7023SM  H16G 9198   3.604   2.885   5.585  2.6796 -1.7076 -0.0978
   7023SM  C17F 9199   3.495   2.792   5.416  0.5075 -0.0423  0.4292
   7023SM  H17F 9200   3.403   2.854   5.413  0.9613  0.6861  1.2196
   7023SM  H17G 9201   3.461   2.688   5.394  1.0347  0.2392 -2.0096
   7023SM  C18F 9202   3.602   2.830   5.308  0.1441  0.7672  0.2322
   7023SM  H18F 9203   3.694   2.770   5.324  0.9807  1.5018 -1.5099
   7023SM  H18G 9204   3.626   2.937   5.330 -2.0280  0.9411  2.0876
   7023SM  C19F 9205   3.545   2.822   5.165  0.0525  0.1260 -0.2539
   7023SM  H19F 9206   3.450   2.879   5.157  1.7872  2.9642 -3.1335
   7023SM  H19G 9207   3.516   2.719   5.136 -1.3104  0.7760 -1.3691
   7023SM  C20F 9208   3.652   2.857   5.063  0.1424  0.3737 -0.6011
   7023SM  H20F 9209   3.626   2.802   4.970  0.5969  0.2326 -0.6455
   7023SM  H20G 9210   3.754   2.822   5.088  0.3448  0.1761 -1.6476
   7023SM  C21F 9211   3.647   3.002   5.022 -0.0720  0.7737  0.8969
   7023SM  H21F 9212   3.668   3.065   5.111  1.7130  0.9808  0.3737
   7023SM  H21G 9213   3.550   3.033   4.979  0.4534  0.3324 -0.6827
   7023SM  C22F 9214   3.751   3.032   4.917  0.4769 -0.1013  0.6254
   7023SM  H22F 9215   3.735   2.952   4.842 -1.8817  1.4162 -0.6148
   7023SM  H22G 9216   3.852   3.022   4.962  0.9841  1.8848  0.0184
   7023SM  C23F 9217   3.739   3.166   4.847  0.6719 -0.5789 -0.4488
   7023SM  H23F 9218   3.794   3.160   4.751 -0.6005 -1.4935 -1.1533
   7023SM  H23G 9219   3.778   3.242   4.918 -1.7672 -1.1223  1.6401
   7023SM  H23H 9220   3.632   3.187   4.825  0.1591 -1.0680  1.3962
   7123SM     N 9221   6.071   6.790   6.982  0.0715  0.4672 -0.2491
   7123SM   C15 9222   6.225   6.806   6.980 -0.1037 -0.2707 -0.0191
   7123SM  H15A 9223   6.270   6.727   6.922  1.5620  0.2576  0.4858
   7123SM  H15B 9224   6.255   6.798   7.084 -1.4117 -0.1821  0.3851
   7123SM  H15C 9225   6.266   6.897   6.939  0.8660 -0.5173  0.3712
   7123SM   C14 9226   6.009   6.828   6.850 -0.1379  0.9467 -0.0639
   7123SM  H14A 9227   6.036   6.925   6.811  1.5950 -0.8768 -3.9129
   7123SM  H14B 9228   5.901   6.820   6.857 -0.2796  2.1708 -0.5469
   7123SM  H14C 9229   6.040   6.765   6.768 -0.6048 -0.8011  1.0525
   7123SM   C13 9230   6.028   6.649   7.022 -0.9239  0.4984  0.6832
   7123SM  H13A 9231   5.921   6.634   7.016 -0.7860  0.0603 -1.3085
   7123SM  H13B 9232   6.055   6.620   7.123 -0.9849  0.8307  0.7966
   7123SM  H13C 9233   6.079   6.581   6.956  0.1005  1.0463  0.8837
   7123SM   C12 9234   6.017   6.882   7.091 -0.5097 -0.3066 -0.3576
   7123SM  H12A 9235   6.083   6.881   7.176 -1.0186 -0.1724  0.0423
   7123SM  H12B 9236   5.913   6.857   7.110 -0.5770  0.0556 -0.2230
   7123SM   C11 9237   6.021   7.027   7.050  0.1344 -0.4048  0.9627
   7123SM  H11A 9238   5.973   7.053   6.953  1.6529 -0.3384  0.1946
   7123SM  H11B 9239   6.129   7.047   7.035  0.2727 -2.8001 -2.4557
   7123SM     P 9240   5.820   7.122   7.200  0.0200  0.3234 -0.2536
   7123SM   O13 9241   5.763   7.000   7.258  0.2018  0.5968 -0.1259
   7123SM   O14 9242   5.811   7.240   7.286 -0.3491  0.1603 -0.4932
   7123SM   O11 9243   5.746   7.152   7.063  0.0189 -0.0625 -0.1590
   7123SM   O12 9244   5.969   7.096   7.166 -0.6745 -0.1121 -0.1711
   7123SM   C1S 9245   5.790   7.272   6.993 -0.5419 -0.4051 -0.0802
   7123SM   H1S 9246   5.901   7.285   6.988 -0.7234  1.0110 -1.1137
   7123SM   H1T 9247   5.749   7.366   7.036 -0.8577 -0.8433  0.5902
   7123SM    NF 9248   5.813   7.345   6.746 -0.6604 -0.3626 -0.8902
   7123SM   HNF 9249   5.752   7.420   6.722  0.8287  1.4550  0.7159
   7123SM   C2S 9250   5.740   7.255   6.851 -0.7844 -0.5696 -0.3620
   7123SM   H2S 9251   5.768   7.150   6.826 -0.0472 -0.8095  1.3292
   7123SM   C3S 9252   5.579   7.261   6.837  0.1003  0.0026 -0.8187
   7123SM   H3S 9253   5.550   7.355   6.888 -0.2964 -0.6614  0.2230
   7123SM    O3 9254   5.511   7.157   6.917 -0.2760 -0.4663  0.2255
   7123SM   HO3 9255   5.582   7.119   6.969  0.2331 -0.5971 -0.5438
   7123SM   C4S 9256   5.530   7.254   6.695 -0.3055 -0.0117  0.1354
   7123SM   H4S 9257   5.529   7.350   6.642  0.9150  0.4553  0.9097
   7123SM   C5S 9258   5.524   7.142   6.622  0.0804  0.7527  0.1668
   7123SM   H5S 9259   5.544   7.048   6.674  2.1238  2.2817  2.3226
   7123SM   C6S 9260   5.513   7.151   6.473 -0.5194 -0.2812  0.7129
   7123SM   H6S 9261   5.593   7.098   6.417 -1.8484  0.1185 -1.6868
   7123SM   H6T 9262   5.524   7.249   6.421  1.7299 -2.2418 -2.9634
   7123SM   C7S 9263   5.384   7.083   6.431 -0.2100  0.1101 -0.1324
   7123SM   H7S 9264   5.297   7.124   6.488  2.9863  0.9537  4.7161
   7123SM   H7T 9265   5.405   6.977   6.456  1.0415  0.0019 -1.5050
   7123SM   C8S 9266   5.356   7.094   6.285 -0.9252 -0.0085  0.3036
   7123SM   H8S 9267   5.447   7.070   6.225 -0.4567 -0.1602  1.0684
   7123SM   H8T 9268   5.326   7.194   6.248 -1.6748 -0.7173 -1.1106
   7123SM   C9S 9269   5.263   6.988   6.234  0.4476  0.5080  0.5869
   7123SM   H9S 9270   5.173   6.989   6.299 -0.4792 -3.5344 -0.3504
   7123SM   H9T 9271   5.307   6.886   6.241 -1.7857 -0.4514  1.7698
   7123SM  C10S 9272   5.213   7.015   6.094  0.3810  0.5525 -0.4052
   7123SM  H10S 9273   5.141   7.099   6.101 -0.7014 -0.4568  1.1680
   7123SM  H10T 9274   5.160   6.921   6.067  0.3398  0.4454  0.0368
   7123SM  C11S 9275   5.319   7.053   5.985  1.0887  0.7604 -0.0032
   7123SM  H11S 9276   5.397   7.120   6.028  0.8245  0.5951  0.7535
   7123SM  H11T 9277   5.269   7.108   5.903  1.9779  1.1190 -0.3172
   7123SM  C12S 9278   5.381   6.930   5.923 -0.9576  0.1948 -0.0631
   7123SM  H12S 9279   5.293   6.880   5.879 -1.9989  1.0868  0.9318
   7123SM  H12T 9280   5.436   6.863   5.994  1.0837  1.5305 -0.2703
   7123SM  C13S 9281   5.482   6.944   5.809  0.0499  0.1535 -0.1903
   7123SM  H13S 9282   5.577   6.979   5.855 -0.4892 -0.1830  1.2357
   7123SM  H13T 9283   5.456   7.024   5.736  2.3643 -0.0966 -1.4013
   7123SM  C14S 9284   5.519   6.816   5.749  1.1500  0.3832  0.0922
   7123SM  H14S 9285   5.424   6.769   5.715 -0.1660  1.1551  2.4616
   7123SM  H14T 9286   5.559   6.747   5.826 -0.4788 -0.0976  0.5413
   7123SM  C15S 9287   5.619   6.826   5.632 -0.5663  0.0252  0.1839
   7123SM  H15S 9288   5.660   6.729   5.597 -0.5656  0.3570 -0.7715
   7123SM  H15T 9289   5.709   6.886   5.657  0.2369  0.0300 -2.4508
   7123SM  C16S 9290   5.566   6.891   5.512  0.6428 -0.0639  1.0137
   7123SM  H16S 9291   5.537   6.997   5.527 -1.1612 -0.6979  2.4662
   7123SM  H16T 9292   5.474   6.844   5.471  0.1973  0.3955  1.4727
   7123SM  C17S 9293   5.668   6.906   5.399 -0.2956  0.1722 -0.4551
   7123SM  H17S 9294   5.722   6.809   5.392 -0.4219  0.0888 -0.2977
   7123SM  H17T 9295   5.745   6.978   5.434  2.5249 -2.6865 -0.2576
   7123SM  C18S 9296   5.604   6.938   5.264  0.4447 -0.1858 -0.2822
   7123SM  H18S 9297   5.531   7.022   5.261  0.5333 -0.1380 -1.4521
   7123SM  H18T 9298   5.550   6.850   5.224 -2.6194 -0.1755  3.2932
   7123SM  H18U 9299   5.686   6.956   5.192 -1.5120 -0.2267 -2.6255
   7123SM   C1F 9300   5.943   7.336   6.715 -0.0507  0.3745  0.0834
   7123SM    OF 9301   6.015   7.259   6.778  0.5460  0.4721 -0.4203
   7123SM   C2F 9302   5.994   7.430   6.611  0.6224 -0.6431 -0.4763
   7123SM   H2F 9303   6.032   7.522   6.661 -3.1286  0.0964  1.3349
   7123SM   H2G 9304   5.910   7.452   6.541  0.9564  0.1566 -0.6388
   7123SM   C3F 9305   6.118   7.373   6.538  0.0680 -0.0925 -0.1283
   7123SM   H3F 9306   6.184   7.324   6.612 -1.3239  0.6692  1.6826
   7123SM   H3G 9307   6.171   7.459   6.491  0.8739 -2.1954 -3.4867
   7123SM   C4F 9308   6.091   7.290   6.409  0.4612 -0.2787  0.2803
   7123SM   H4F 9309   6.043   7.361   6.339  0.1940  0.4796  1.2134
   7123SM   H4G 9310   6.025   7.201   6.420  0.3632 -0.1822  0.4829
   7123SM   C5F 9311   6.229   7.242   6.359 -0.6362  0.9140  0.7991
   7123SM   H5F 9312   6.287   7.178   6.428 -0.3655  0.4603  0.1582
   7123SM   H5G 9313   6.284   7.336   6.339 -0.1196  0.5945  0.7042
   7123SM   C6F 9314   6.232   7.158   6.234  0.5350 -0.4376  0.4815
   7123SM   H6F 9315   6.160   7.199   6.160 -1.2562 -1.4029  1.6242
   7123SM   H6G 9316   6.194   7.057   6.259 -0.7343 -0.5750 -1.7334
   7123SM   C7F 9317   6.365   7.150   6.159  0.6497 -0.0286  0.4836
   7123SM   H7F 9318   6.437   7.087   6.216  0.7312 -0.5288 -0.1593
   7123SM   H7G 9319   6.416   7.249   6.152  0.5405 -0.0454 -0.8371
   7123SM   C8F 9320   6.349   7.085   6.019  0.2225  0.3434  0.3028
   7123SM   H8F 9321   6.304   7.160   5.950  1.9267  2.4192  1.3566
   7123SM   H8G 9322   6.289   6.992   6.014  1.5555 -0.4777 -2.1092
   7123SM   C9F 9323   6.490   7.042   5.966 -0.7790  0.0180 -0.0264
   7123SM   H9F 9324   6.539   6.978   6.043  0.6988  1.5596  0.3504
   7123SM   H9G 9325   6.564   7.122   5.949 -1.1163 -0.0949 -2.4125
   7123SM  C10F 9326   6.487   6.964   5.833 -0.2093 -0.1939 -0.0522
   7123SM  H10F 9327   6.413   7.004   5.760 -0.9476 -0.3946  0.5770
   7123SM  H10G 9328   6.450   6.860   5.848  0.8592 -0.3103  2.1535
   7123SM  C11F 9329   6.620   6.957   5.758 -0.0438  0.0082 -0.5370
   7123SM  H11F 9330   6.694   6.962   5.840  0.3682  1.0095 -0.9532
   7123SM  H11G 9331   6.621   7.045   5.690 -0.8723 -0.2390 -0.8883
   7123SM  C12F 9332   6.650   6.834   5.672 -0.2575 -0.0214 -0.0418
   7123SM  H12F 9333   6.639   6.744   5.736  0.4249 -2.4842 -3.1328
   7123SM  H12G 9334   6.754   6.828   5.633 -1.1484 -2.2368 -2.4093
   7123SM  C13F 9335   6.555   6.816   5.548 -0.3981 -0.0181  0.0833
   7123SM  H13F 9336   6.450   6.841   5.575 -0.0393  1.4869  0.1527
   7123SM  H13G 9337   6.570   6.713   5.508  0.8200 -0.4772  1.6199
   7123SM  C14F 9338   6.596   6.923   5.441  0.6425 -0.2238  0.3379
   7123SM  H14F 9339   6.703   6.910   5.414  0.7647  3.4361 -1.5590
   7123SM  H14G 9340   6.595   7.027   5.481  0.8738  0.8258 -2.1696
   7123SM  C15F 9341   6.511   6.910   5.316 -0.4306  0.9251 -0.4978
   7123SM  H15F 9342   6.527   6.812   5.266 -1.0786  0.5939 -0.0766
   7123SM  H15G 9343   6.544   6.981   5.237  0.7761 -0.5885 -1.4243
   7123SM  C16F 9344   6.358   6.917   5.329  0.0662  0.0469  0.4350
   7123SM  H16F 9345   6.340   7.017   5.375  0.0556  0.4393 -0.3946
   7123SM  H16G 9346   6.324   6.826   5.382  1.1875 -0.5516  0.1581
   7123SM  C17F 9347   6.276   6.927   5.195 -0.6938  0.7311 -0.0470
   7123SM  H17F 9348   6.320   6.838   5.144 -1.3234 -0.3367  1.2257
   7123SM  H17G 9349   6.308   7.019   5.142  1.4444  1.0055  1.5476
   7123SM  C18F 9350   6.129   6.922   5.214 -0.1615  1.1540  0.3663
   7123SM  H18F 9351   6.099   6.997   5.291 -2.1591  2.0146 -1.1498
   7123SM  H18G 9352   6.101   6.824   5.259  2.1526  0.6270  0.7921
   7123SM  C19F 9353   6.048   6.940   5.090  0.4087  0.1945 -0.1080
   7123SM  H19F 9354   6.060   7.048   5.064 -2.5043  0.6009 -0.1547
   7123SM  H19G 9355   5.941   6.935   5.120  0.1126  4.1987  0.1468
   7123SM  C20F 9356   6.062   6.858   4.975 -0.2446 -0.1703  0.0884
   7123SM  H20F 9357   6.038   6.754   5.007 -1.6595  0.5283  1.4462
   7123SM  H20G 9358   6.164   6.862   4.931 -1.3571  0.0262 -2.6562
   7123SM  C21F 9359   5.944   6.895   4.886  0.2572  0.9017  0.3171
   7123SM  H21F 9360   5.933   7.003   4.865 -0.4048  0.4370 -1.9899
   7123SM  H21G 9361   5.850   6.848   4.920  0.1228  0.1278 -1.0739
   7123SM  C22F 9362   5.949   6.823   4.744  0.1110 -0.0134  0.4158
   7123SM  H22F 9363   6.022   6.874   4.678 -0.9496  0.9763 -0.0311
   7123SM  H22G 9364   5.848   6.837   4.700  0.3243 -0.9304 -0.4247
   7123SM  C23F 9365   5.966   6.673   4.745 -0.3355  0.1544 -0.0729
   7123SM  H23F 9366   6.058   6.638   4.797 -0.0400 -0.0830 -0.7358
   7123SM  H23G 9367   5.962   6.628   4.643  2.1208  0.9811 -0.6160
   7123SM  H23H 9368   5.886   6.637   4.813 -1.7225  0.1164 -1.6776
   7223SM     N 9369   6.293   2.997   7.144 -0.4955  0.1162  1.0403
   7223SM   C15 9370   6.302   3.013   6.993 -0.3282 -0.0843  0.2853
   7223SM  H15A 9371   6.401   2.992   6.954 -0.2432  0.2060  0.3438
   7223SM  H15B 9372   6.278   3.113   6.961 -1.2761 -0.1671  0.6963
   7223SM  H15C 9373   6.232   2.947   6.945 -0.9964  0.4123  0.5683
   7223SM   C14 9374   6.150   3.014   7.175  0.2639 -0.0628  0.3795
   7223SM  H14A 9375   6.085   2.935   7.139 -0.7055  1.2938 -0.9527
   7223SM  H14B 9376   6.115   3.109   7.138  1.2944 -0.5509 -2.0207
   7223SM  H14C 9377   6.130   3.015   7.281  1.1823 -1.4671  0.5850
   7223SM   C13 9378   6.333   2.858   7.182  0.1908  0.2142  0.2956
   7223SM  H13A 9379   6.280   2.793   7.114 -0.4981  2.0832 -1.0614
   7223SM  H13B 9380   6.313   2.836   7.286  0.8037 -1.4962  0.0828
   7223SM  H13C 9381   6.440   2.849   7.173  0.2386 -1.0788  1.7414
   7223SM   C12 9382   6.382   3.100   7.213  0.0719 -0.4182 -0.3843
   7223SM  H12A 9383   6.481   3.074   7.179  0.9343  1.0060  0.8837
   7223SM  H12B 9384   6.377   3.073   7.317 -2.1069  1.6322  0.1281
   7223SM   C11 9385   6.362   3.257   7.186 -0.7725  1.0180 -0.6039
   7223SM  H11A 9386   6.393   3.273   7.080 -2.0693  1.0651 -0.9897
   7223SM  H11B 9387   6.426   3.314   7.256 -0.6672  0.6931 -0.4333
   7223SM     P 9388   6.167   3.396   7.286 -0.0376 -0.5127 -0.0203
   7223SM   O13 9389   6.148   3.326   7.412  0.3081 -0.1067  0.0715
   7223SM   O14 9390   6.244   3.524   7.294 -0.6213 -0.1423  0.0655
   7223SM   O11 9391   6.017   3.426   7.232  0.1677  0.0591 -0.3952
   7223SM   O12 9392   6.223   3.296   7.184 -0.3108  0.0495 -0.2738
   7223SM   C1S 9393   5.989   3.498   7.114 -0.3029  0.2713  0.4945
   7223SM   H1S 9394   6.061   3.582   7.110  1.1065 -0.9486 -1.0078
   7223SM   H1T 9395   5.893   3.554   7.123  1.0037  2.5043  1.0448
   7223SM    NF 9396   5.989   3.498   6.868 -0.5555  0.7419 -0.2274
   7223SM   HNF 9397   5.904   3.518   6.820 -0.7755 -0.2041 -0.2555
   7223SM   C2S 9398   5.994   3.409   6.986  0.5290 -1.2237 -0.3889
   7223SM   H2S 9399   6.096   3.366   6.988  0.7353 -0.7367  1.4295
   7223SM   C3S 9400   5.884   3.295   6.998 -0.1892 -0.4525 -0.8398
   7223SM   H3S 9401   5.788   3.347   7.018  0.6370  0.5792  0.6522
   7223SM    O3 9402   5.891   3.213   7.123  0.0473 -0.8746  0.2628
   7223SM   HO3 9403   5.937   3.266   7.188 -2.6355 -1.0367  2.5069
   7223SM   C4S 9404   5.864   3.207   6.874  0.0657 -0.2893 -0.0522
   7223SM   H4S 9405   5.792   3.239   6.798  0.3354  0.7621  0.1266
   7223SM   C5S 9406   5.930   3.092   6.855 -0.5809  0.8238  0.4010
   7223SM   H5S 9407   5.996   3.050   6.932  2.2323  0.1216 -2.1762
   7223SM   C6S 9408   5.923   3.006   6.726 -0.1318  0.6280 -0.1396
   7223SM   H6S 9409   5.869   2.911   6.742 -1.9613  1.3665 -1.6611
   7223SM   H6T 9410   6.030   2.986   6.701  0.4734  0.4525  2.2821
   7223SM   C7S 9411   5.861   3.069   6.600 -0.1680  0.2459 -0.3902
   7223SM   H7S 9412   5.907   3.168   6.581  0.3124  0.2975  0.9231
   7223SM   H7T 9413   5.754   3.090   6.622 -0.6872 -0.6834 -1.8936
   7223SM   C8S 9414   5.857   2.979   6.475 -0.3905  0.2981  0.6014
   7223SM   H8S 9415   5.807   2.881   6.492  0.2794  0.1185  1.6080
   7223SM   H8T 9416   5.959   2.952   6.441  0.4074  0.3793  2.7529
   7223SM   C9S 9417   5.794   3.056   6.353  0.0959  0.2652 -0.7217
   7223SM   H9S 9418   5.829   3.161   6.351 -0.7292  0.5408 -1.2298
   7223SM   H9T 9419   5.683   3.058   6.358  0.0427 -1.8140  0.0038
   7223SM  C10S 9420   5.824   2.988   6.215 -0.0978 -0.2861 -0.9353
   7223SM  H10S 9421   5.735   2.999   6.150  1.5353  0.8527 -3.1441
   7223SM  H10T 9422   5.829   2.879   6.235 -2.2328 -0.4470 -1.1077
   7223SM  C11S 9423   5.939   3.048   6.131 -0.5301  0.5309  0.0556
   7223SM  H11S 9424   5.980   2.978   6.055  1.7341 -0.1987  1.8312
   7223SM  H11T 9425   6.017   3.062   6.209 -0.1776 -0.3254 -0.1277
   7223SM  C12S 9426   5.918   3.183   6.065 -0.1227  0.5303 -0.5809
   7223SM  H12S 9427   5.898   3.256   6.147 -0.5403  2.2520 -2.1567
   7223SM  H12T 9428   5.823   3.185   6.008  1.1043  0.3069 -2.7232
   7223SM  C13S 9429   6.029   3.227   5.965  0.2387  0.0989 -0.8613
   7223SM  H13S 9430   6.036   3.144   5.892 -0.4448  0.5971 -1.5111
   7223SM  H13T 9431   6.120   3.260   6.019 -1.0583  0.1819  1.4095
   7223SM  C14S 9432   5.972   3.344   5.885  0.5372 -0.0512  0.4068
   7223SM  H14S 9433   5.951   3.433   5.948 -0.6011  0.0715 -0.1224
   7223SM  H14T 9434   5.872   3.312   5.848 -1.7976  2.7546  3.6330
   7223SM  C15S 9435   6.063   3.381   5.769 -0.4796  0.1030 -0.4903
   7223SM  H15S 9436   6.067   3.294   5.701 -0.1132  0.1239 -0.4955
   7223SM  H15T 9437   6.167   3.397   5.806 -0.4221  0.7897 -0.9315
   7223SM  C16S 9438   6.017   3.505   5.683 -0.1279  0.0092  0.0408
   7223SM  H16S 9439   6.030   3.596   5.746 -1.0556 -1.1807  2.0300
   7223SM  H16T 9440   5.914   3.503   5.642  0.3107  1.3145 -1.2564
   7223SM  C17S 9441   6.112   3.524   5.567  0.2078 -0.0556  0.3125
   7223SM  H17S 9442   6.073   3.607   5.503  0.6622  1.4803  1.9679
   7223SM  H17T 9443   6.112   3.433   5.502 -0.0970  1.0278 -1.2581
   7223SM  C18S 9444   6.254   3.564   5.609 -0.1189  0.1847  0.8255
   7223SM  H18S 9445   6.321   3.564   5.520 -1.6663  0.8670 -0.4020
   7223SM  H18T 9446   6.291   3.493   5.686 -3.5764 -0.2515  2.2451
   7223SM  H18U 9447   6.251   3.666   5.654 -2.0249  0.8508 -0.6262
   7223SM   C1F 9448   6.097   3.570   6.828  0.5883 -0.1847  0.6977
   7223SM    OF 9449   6.205   3.569   6.888  0.5407 -0.3767  0.3504
   7223SM   C2F 9450   6.069   3.660   6.706 -0.1963  0.5409 -0.0670
   7223SM   H2F 9451   6.072   3.763   6.747 -0.4321  0.2357  0.7486
   7223SM   H2G 9452   5.966   3.649   6.666 -0.0934  1.1888 -0.5142
   7223SM   C3F 9453   6.167   3.630   6.590 -0.3887  0.1224 -0.2762
   7223SM   H3F 9454   6.166   3.526   6.553 -0.1765  0.4162 -1.1240
   7223SM   H3G 9455   6.273   3.637   6.623 -1.0780  2.8011  1.7704
   7223SM   C4F 9456   6.154   3.727   6.470  0.7761 -0.0318 -0.4379
   7223SM   H4F 9457   6.184   3.830   6.497 -1.4912  0.3733  0.8450
   7223SM   H4G 9458   6.045   3.739   6.450  0.5033 -0.5289  0.6525
   7223SM   C5F 9459   6.224   3.687   6.335  0.0649  0.5663  0.8193
   7223SM   H5F 9460   6.333   3.682   6.351  0.3230  0.4832 -0.7623
   7223SM   H5G 9461   6.211   3.767   6.258  1.9657  0.6367  0.5155
   7223SM   C6F 9462   6.159   3.567   6.269 -0.1406  1.0746 -0.1774
   7223SM   H6F 9463   6.050   3.580   6.256 -1.0876 -2.7899  2.1120
   7223SM   H6G 9464   6.173   3.480   6.337 -1.2627  2.0020  1.3043
   7223SM   C7F 9465   6.222   3.539   6.129  0.1279 -0.3340 -1.0397
   7223SM   H7F 9466   6.182   3.617   6.060  0.5768  1.8353  1.0175
   7223SM   H7G 9467   6.185   3.443   6.088 -0.9269  0.4224 -1.8981
   7223SM   C8F 9468   6.377   3.539   6.134  0.7542  0.1150  0.0605
   7223SM   H8F 9469   6.410   3.448   6.189 -1.8747 -0.5041  0.7076
   7223SM   H8G 9470   6.415   3.639   6.166  0.7653 -0.0066  0.4305
   7223SM   C9F 9471   6.424   3.527   5.988 -0.1232  0.3074 -0.1565
   7223SM   H9F 9472   6.376   3.607   5.927 -2.8710 -1.7178 -0.8303
   7223SM   H9G 9473   6.395   3.428   5.947  0.4767 -0.6055  1.5290
   7223SM  C10F 9474   6.577   3.529   5.973  0.2630  0.4151 -0.4994
   7223SM  H10F 9475   6.613   3.425   5.984 -0.5912 -0.2798 -3.4859
   7223SM  H10G 9476   6.609   3.600   6.053  0.1697  1.5583 -1.4575
   7223SM  C11F 9477   6.613   3.572   5.828 -0.1186  0.0135 -0.5568
   7223SM  H11F 9478   6.583   3.679   5.833 -2.1450 -0.5652  1.3746
   7223SM  H11G 9479   6.548   3.531   5.748 -2.8648  0.3575  1.3285
   7223SM  C12F 9480   6.767   3.560   5.805  0.0618 -0.2224  0.7219
   7223SM  H12F 9481   6.788   3.451   5.804 -1.6768 -0.5836 -0.6209
   7223SM  H12G 9482   6.822   3.607   5.890 -1.3381  0.2771  1.3768
   7223SM  C13F 9483   6.812   3.612   5.675  0.5088  0.2405 -0.3160
   7223SM  H13F 9484   6.922   3.622   5.666  0.3501  0.9444 -1.7793
   7223SM  H13G 9485   6.779   3.716   5.653  0.9925  1.2700  3.2791
   7223SM  C14F 9486   6.766   3.523   5.556  0.8288  0.4349  0.3174
   7223SM  H14F 9487   6.657   3.539   5.543  0.7606 -0.2052  0.0368
   7223SM  H14G 9488   6.775   3.413   5.569 -0.6369  0.0698 -1.3590
   7223SM  C15F 9489   6.842   3.557   5.428  0.2493  0.0614 -0.0311
   7223SM  H15F 9490   6.942   3.509   5.439 -0.7883 -3.2281 -3.0634
   7223SM  H15G 9491   6.856   3.666   5.419 -1.6346  0.3379  0.0705
   7223SM  C16F 9492   6.764   3.496   5.321  0.6391  0.8336  0.7086
   7223SM  H16F 9493   6.656   3.520   5.321 -0.0766 -1.1598 -4.8271
   7223SM  H16G 9494   6.759   3.385   5.323  0.8983  0.7733 -1.0385
   7223SM  C17F 9495   6.823   3.536   5.184  0.5616  0.4269 -0.2060
   7223SM  H17F 9496   6.849   3.643   5.200 -2.7446  1.1894  0.9785
   7223SM  H17G 9497   6.744   3.522   5.107  0.8518 -0.0314 -0.4209
   7223SM  C18F 9498   6.946   3.460   5.138  0.2242 -0.4966  0.6023
   7223SM  H18F 9499   6.913   3.364   5.093 -0.1677 -0.8200  1.5560
   7223SM  H18G 9500   7.013   3.437   5.224  0.6839  0.2353  0.4483
   7223SM  C19F 9501   7.026   3.540   5.035  0.3600  0.0346  0.1795
   7223SM  H19F 9502   7.108   3.469   5.010  0.4930  0.5336 -0.8707
   7223SM  H19G 9503   7.073   3.627   5.085  0.8422 -0.4766  0.6264
   7223SM  C20F 9504   6.952   3.575   4.904 -0.1178  0.7302  0.3072
   7223SM  H20F 9505   6.878   3.655   4.924  0.1641  0.7202  1.4438
   7223SM  H20G 9506   6.910   3.480   4.864  1.0323 -0.2768  1.3919
   7223SM  C21F 9507   7.053   3.630   4.798  0.2669 -0.8954  0.7453
   7223SM  H21F 9508   7.108   3.716   4.840  1.0246 -1.6538  1.3511
   7223SM  H21G 9509   6.990   3.673   4.718  2.5321  0.6226 -0.3422
   7223SM  C22F 9510   7.147   3.525   4.731 -0.2927  0.1568 -0.4506
   7223SM  H22F 9511   7.092   3.430   4.716  3.8244 -2.2719 -1.5161
   7223SM  H22G 9512   7.226   3.502   4.806 -0.4708 -1.0721 -0.6205
   7223SM  C23F 9513   7.220   3.587   4.609 -0.1279  0.0498  0.5241
   7223SM  H23F 9514   7.150   3.625   4.532  1.4686 -1.1794 -1.6610
   7223SM  H23G 9515   7.287   3.516   4.555  1.9081  1.7390  0.6971
   7223SM  H23H 9516   7.281   3.673   4.645  0.6194 -0.8671  1.5410
   7323SM     N 9517   4.768   2.750   7.273 -0.3158 -0.5353 -1.1507
   7323SM   C15 9518   4.788   2.670   7.398 -0.7747  0.1281  0.5450
   7323SM  H15A 9519   4.857   2.711   7.470 -0.8212  2.1973 -0.5160
   7323SM  H15B 9520   4.828   2.573   7.369 -0.9615  0.4089 -0.6981
   7323SM  H15C 9521   4.696   2.644   7.449 -0.5515  1.2389  1.5609
   7323SM   C14 9522   4.902   2.792   7.213 -0.1644 -0.2051 -0.1510
   7323SM  H14A 9523   4.896   2.866   7.135  0.5684  0.4887  0.4287
   7323SM  H14B 9524   4.951   2.703   7.175 -0.6924 -0.7674  0.4532
   7323SM  H14C 9525   4.968   2.830   7.289  0.9724 -2.2733 -0.0291
   7323SM   C13 9526   4.691   2.664   7.176  0.2602 -0.2458 -0.1172
   7323SM  H13A 9527   4.666   2.721   7.088 -1.0913 -2.0831 -0.9796
   7323SM  H13B 9528   4.589   2.642   7.204  0.4263 -1.0222 -0.1095
   7323SM  H13C 9529   4.749   2.578   7.146  2.5964  1.2312 -0.1470
   7323SM   C12 9530   4.689   2.875   7.316  0.9245 -0.3213  0.2354
   7323SM  H12A 9531   4.706   2.953   7.243  1.7934  0.8098  1.6134
   7323SM  H12B 9532   4.736   2.915   7.404  0.3701 -0.1024  0.4379
   7323SM   C11 9533   4.542   2.852   7.347  1.1613 -0.4803 -0.0150
   7323SM  H11A 9534   4.492   2.936   7.400 -1.1138 -1.0491 -1.1325
   7323SM  H11B 9535   4.527   2.762   7.411 -3.3132 -0.8660 -1.2738
   7323SM     P 9536   4.354   2.888   7.168 -0.1483 -0.3106 -0.2934
   7323SM   O13 9537   4.320   2.813   7.043  0.6197 -0.2222 -0.5833
   7323SM   O14 9538   4.256   2.905   7.278 -0.1298  0.7191  0.0504
   7323SM   O11 9539   4.413   3.028   7.132 -0.5594  0.3828 -0.2324
   7323SM   O12 9540   4.482   2.819   7.229  1.0483 -0.4206 -0.0339
   7323SM   C1S 9541   4.534   3.049   7.058 -0.1406 -0.3228 -0.6275
   7323SM   H1S 9542   4.614   2.975   7.079  0.2844  0.0539 -0.9165
   7323SM   H1T 9543   4.579   3.148   7.080  0.0695 -0.8194  1.3618
   7323SM    NF 9544   4.648   3.026   6.828 -0.1351 -0.1116  0.4834
   7323SM   HNF 9545   4.689   3.100   6.777  0.0132 -1.9203 -2.2251
   7323SM   C2S 9546   4.522   3.037   6.900  0.3850  0.1415 -0.1121
   7323SM   H2S 9547   4.464   2.946   6.875  1.6542 -0.7106 -0.0383
   7323SM   C3S 9548   4.431   3.149   6.846  0.0165 -0.0980 -0.5470
   7323SM   H3S 9549   4.484   3.243   6.869  0.4987 -0.4371 -0.2549
   7323SM    O3 9550   4.300   3.147   6.909 -0.3831 -0.2961  0.1518
   7323SM   HO3 9551   4.310   3.080   6.978 -0.5167 -0.8573 -0.3594
   7323SM   C4S 9552   4.409   3.132   6.701  1.0873  0.0652 -0.7160
   7323SM   H4S 9553   4.357   3.037   6.677 -0.4561  0.9832 -1.1409
   7323SM   C5S 9554   4.434   3.216   6.592 -0.4636  0.0207 -0.3800
   7323SM   H5S 9555   4.492   3.306   6.618  1.5090 -1.6454  1.3500
   7323SM   C6S 9556   4.419   3.174   6.451 -0.2914 -0.4136  0.2415
   7323SM   H6S 9557   4.377   3.072   6.436 -0.1756 -0.4561  0.2009
   7323SM   H6T 9558   4.516   3.170   6.397 -0.3574 -0.2055  0.1094
   7323SM   C7S 9559   4.337   3.278   6.367  0.1400 -0.3641  0.1217
   7323SM   H7S 9560   4.378   3.381   6.376  0.0672 -0.2376 -0.9113
   7323SM   H7T 9561   4.235   3.280   6.411  0.5362 -2.6250  1.2889
   7323SM   C8S 9562   4.334   3.238   6.219  0.0972 -0.1811 -0.2043
   7323SM   H8S 9563   4.238   3.251   6.165  1.0127 -1.6784 -2.3309
   7323SM   H8T 9564   4.338   3.128   6.204  0.6374 -0.3519  1.0704
   7323SM   C9S 9565   4.436   3.319   6.144  0.0325 -0.2135  0.1977
   7323SM   H9S 9566   4.537   3.307   6.188 -1.3671 -0.6089  3.6154
   7323SM   H9T 9567   4.399   3.423   6.138 -0.1681 -0.3511 -1.5286
   7323SM  C10S 9568   4.443   3.279   6.001  0.4700  0.6258 -0.5079
   7323SM  H10S 9569   4.351   3.293   5.940  1.0876 -1.2305 -1.9622
   7323SM  H10T 9570   4.461   3.170   5.998 -3.8030 -0.2760 -0.1141
   7323SM  C11S 9571   4.546   3.373   5.925 -0.3752  0.0433 -0.2244
   7323SM  H11S 9572   4.622   3.410   5.997 -2.6773  2.1748  1.2655
   7323SM  H11T 9573   4.494   3.467   5.896  0.5302  0.4892 -0.4064
   7323SM  C12S 9574   4.609   3.299   5.796 -0.3355  0.0608  0.4808
   7323SM  H12S 9575   4.690   3.224   5.809  0.2953  0.5464 -0.4715
   7323SM  H12T 9576   4.661   3.384   5.745 -3.8911  2.3332  0.3237
   7323SM  C13S 9577   4.496   3.262   5.694  0.2576 -0.1253  0.2686
   7323SM  H13S 9578   4.436   3.353   5.673 -1.1364 -0.9830  0.4427
   7323SM  H13T 9579   4.432   3.194   5.754 -0.6291  0.3865 -0.0777
   7323SM  C14S 9580   4.550   3.206   5.557  0.7411 -0.1065 -0.1100
   7323SM  H14S 9581   4.458   3.193   5.497 -0.7360 -1.2153  2.2353
   7323SM  H14T 9582   4.589   3.104   5.577  1.1397  0.1640  0.5344
   7323SM  C15S 9583   4.638   3.297   5.474 -0.0205  0.7508 -0.3931
   7323SM  H15S 9584   4.717   3.347   5.534 -0.1146  2.3166 -1.4987
   7323SM  H15T 9585   4.575   3.386   5.454 -1.7622 -0.4890 -0.6393
   7323SM  C16S 9586   4.679   3.224   5.347  0.3214  0.3624  0.3849
   7323SM  H16S 9587   4.585   3.203   5.291  1.4106 -0.5132 -1.1800
   7323SM  H16T 9588   4.732   3.127   5.357 -1.7881 -0.9358 -0.3695
   7323SM  C17S 9589   4.768   3.307   5.251 -0.5396 -0.4078  0.3830
   7323SM  H17S 9590   4.855   3.345   5.310  0.7483  0.0512 -1.6742
   7323SM  H17T 9591   4.708   3.398   5.232 -1.0517 -1.0417 -1.1587
   7323SM  C18S 9592   4.816   3.229   5.130  0.1468 -0.2535  0.1820
   7323SM  H18S 9593   4.905   3.163   5.137 -0.3556 -0.9733 -0.1613
   7323SM  H18T 9594   4.852   3.310   5.063 -1.2445  0.2658  0.0330
   7323SM  H18U 9595   4.740   3.187   5.062  1.3082  1.1030 -2.0786
   7323SM   C1F 9596   4.722   2.920   6.846  0.6458  0.3183  0.0883
   7323SM    OF 9597   4.681   2.821   6.893  0.2871  0.2260 -0.4875
   7323SM   C2F 9598   4.861   2.924   6.800 -0.5442 -0.4052  0.0244
   7323SM   H2F 9599   4.926   2.898   6.886 -2.1862  3.2736  2.6352
   7323SM   H2G 9600   4.887   3.026   6.763  1.2986 -1.0166 -0.4726
   7323SM   C3F 9601   4.881   2.824   6.680  0.1317 -0.2511  0.2394
   7323SM   H3F 9602   4.849   2.730   6.729 -3.2165  0.7688  0.2799
   7323SM   H3G 9603   4.987   2.820   6.648  0.1407  0.0707  0.2298
   7323SM   C4F 9604   4.796   2.842   6.553 -1.5359 -0.0804  0.2688
   7323SM   H4F 9605   4.688   2.840   6.579 -1.3317 -1.5677  1.1533
   7323SM   H4G 9606   4.807   2.754   6.486  1.4715 -1.1965  2.0203
   7323SM   C5F 9607   4.823   2.969   6.474 -0.0852 -0.3330 -0.6131
   7323SM   H5F 9608   4.933   2.985   6.479 -0.0230 -1.0699  2.6776
   7323SM   H5G 9609   4.777   3.052   6.532  1.0038 -0.3042  0.2613
   7323SM   C6F 9610   4.766   2.982   6.327 -0.3929  0.1212  0.0099
   7323SM   H6F 9611   4.655   2.973   6.328 -0.2480 -2.7148 -0.2921
   7323SM   H6G 9612   4.806   2.898   6.267 -1.5843 -0.2803 -0.2627
   7323SM   C7F 9613   4.817   3.112   6.255  0.1177  0.7991  0.6154
   7323SM   H7F 9614   4.924   3.133   6.280  1.8114 -3.0917 -2.2485
   7323SM   H7G 9615   4.760   3.198   6.296  0.3580  1.2300  0.0689
   7323SM   C8F 9616   4.814   3.125   6.102  0.4470  0.3335  0.0652
   7323SM   H8F 9617   4.867   3.211   6.057  0.1097  0.2090 -0.5899
   7323SM   H8G 9618   4.706   3.140   6.079  0.6246 -0.6340 -1.5661
   7323SM   C9F 9619   4.875   2.999   6.034 -0.0582 -0.6810  0.3234
   7323SM   H9F 9620   4.791   2.929   6.016 -0.5146 -0.0735  0.0337
   7323SM   H9G 9621   4.954   2.953   6.098  1.7337 -1.3685 -2.2317
   7323SM  C10F 9622   4.929   3.038   5.902  0.3762 -0.2539  0.8921
   7323SM  H10F 9623   5.032   3.079   5.909  1.0778 -1.9208  0.8797
   7323SM  H10G 9624   4.863   3.112   5.853  0.1187 -1.1843 -0.1971
   7323SM  C11F 9625   4.938   2.921   5.796  0.6310 -0.3181  0.2271
   7323SM  H11F 9626   4.850   2.858   5.819 -0.0807  0.5633 -0.0012
   7323SM  H11G 9627   5.025   2.857   5.823  2.6125  1.3427 -1.7981
   7323SM  C12F 9628   4.938   2.963   5.655 -0.3585  0.1331 -0.1967
   7323SM  H12F 9629   4.865   3.045   5.636 -0.2991  1.6291  4.6449
   7323SM  H12G 9630   4.913   2.878   5.589  0.7676 -1.9427  1.8871
   7323SM  C13F 9631   5.080   3.010   5.609 -0.0142  0.2913  0.5840
   7323SM  H13F 9632   5.147   2.921   5.610  0.7379  0.8089 -0.8955
   7323SM  H13G 9633   5.106   3.084   5.688  1.2202 -0.5877  1.0365
   7323SM  C14F 9634   5.078   3.069   5.468  0.3202  0.8222 -0.2609
   7323SM  H14F 9635   5.009   3.155   5.481 -2.2445 -1.2461  0.5277
   7323SM  H14G 9636   5.044   2.991   5.397  0.9742  0.4742 -0.2040
   7323SM  C15F 9637   5.218   3.110   5.409  0.3452 -0.8708  0.2063
   7323SM  H15F 9638   5.281   3.019   5.418  1.1668 -0.4323 -0.9192
   7323SM  H15G 9639   5.264   3.196   5.461 -0.9013 -0.2755  0.3666
   7323SM  C16F 9640   5.202   3.145   5.264  0.0509 -0.2326  0.1765
   7323SM  H16F 9641   5.153   3.243   5.247  0.8353 -0.1755 -2.0494
   7323SM  H16G 9642   5.154   3.065   5.204  3.2463 -1.4129 -1.0093
   7323SM  C17F 9643   5.348   3.157   5.195  0.7444 -0.1211 -0.0169
   7323SM  H17F 9644   5.407   3.066   5.220  0.2480 -0.4357  0.0096
   7323SM  H17G 9645   5.409   3.240   5.239  3.1565 -1.1517 -1.2524
   7323SM  C18F 9646   5.331   3.166   5.043 -0.3117  0.1897 -0.1240
   7323SM  H18F 9647   5.295   3.271   5.034  0.3887  0.4242 -0.3144
   7323SM  H18G 9648   5.253   3.097   5.004 -1.1053  1.4435 -0.8287
   7323SM  C19F 9649   5.465   3.138   4.969 -0.4825 -0.0675 -0.1381
   7323SM  H19F 9650   5.521   3.060   5.026 -0.9852  0.3172  0.9017
   7323SM  H19G 9651   5.531   3.227   4.965  0.4260 -0.7234 -0.1483
   7323SM  C20F 9652   5.441   3.092   4.821 -0.4838 -0.0922 -0.6473
   7323SM  H20F 9653   5.371   3.166   4.777 -1.5737  0.0461  1.2152
   7323SM  H20G 9654   5.387   2.995   4.817  0.8938 -0.9432  0.5172
   7323SM  C21F 9655   5.580   3.078   4.746  0.9245  0.6548  0.1804
   7323SM  H21F 9656   5.657   3.135   4.801  0.9635 -1.1000  2.0271
   7323SM  H21G 9657   5.586   3.113   4.641  1.8188  0.8299  0.2883
   7323SM  C22F 9658   5.634   2.938   4.743  0.5630  0.1862 -0.1300
   7323SM  H22F 9659   5.575   2.858   4.693  2.2853 -2.4811  1.8465
   7323SM  H22G 9660   5.646   2.909   4.849  0.5009  1.3936  0.2229
   7323SM  C23F 9661   5.776   2.941   4.682  1.0299 -0.3081 -0.7189
   7323SM  H23F 9662   5.759   2.964   4.575  0.7626 -2.0897 -1.0887
   7323SM  H23G 9663   5.825   2.841   4.679  1.8985  0.0615  0.3898
   7323SM  H23H 9664   5.844   3.008   4.739  1.3438 -0.4489 -0.9259
   7423SM     N 9665   0.490   4.448   7.619  0.4760 -0.4571 -0.0158
   7423SM   C15 9666   0.388   4.527   7.697  0.2977 -0.0233 -0.1249
   7423SM  H15A 9667   0.413   4.522   7.802 -0.0467 -1.3006 -0.0942
   7423SM  H15B 9668   0.289   4.487   7.683 -0.4325  1.8929 -0.8534
   7423SM  H15C 9669   0.388   4.631   7.668  1.9242 -0.2994 -1.3091
   7423SM   C14 9670   0.623   4.506   7.635 -0.0812 -0.2288  0.3309
   7423SM  H14A 9671   0.690   4.471   7.558  1.2210  0.7627  0.9656
   7423SM  H14B 9672   0.669   4.482   7.729  2.1212 -2.2042 -1.1489
   7423SM  H14C 9673   0.632   4.614   7.628  2.0711 -0.4359 -0.9545
   7423SM   C13 9674   0.495   4.301   7.666  0.5715 -0.4970 -0.1796
   7423SM  H13A 9675   0.549   4.294   7.759 -0.8669 -1.3106  0.6313
   7423SM  H13B 9676   0.544   4.254   7.581 -1.8973  1.2615 -2.7633
   7423SM  H13C 9677   0.394   4.265   7.683  0.5073 -0.3101 -0.1699
   7423SM   C12 9678   0.451   4.455   7.472 -0.2621 -0.3263  0.1433
   7423SM  H12A 9679   0.417   4.551   7.438 -0.9151 -0.2427  0.9990
   7423SM  H12B 9680   0.371   4.383   7.471  1.4189 -2.3201  0.5431
   7423SM   C11 9681   0.551   4.409   7.362 -0.1926  0.3459  0.9591
   7423SM  H11A 9682   0.639   4.474   7.383  1.5426 -1.4383 -0.3919
   7423SM  H11B 9683   0.513   4.432   7.260 -1.1780  1.5842  1.5892
   7423SM     P 9684   0.526   4.152   7.318 -0.4001  0.1593  0.2386
   7423SM   O13 9685   0.615   4.038   7.333  0.3247 -0.3120 -0.1447
   7423SM   O14 9686   0.400   4.146   7.391  0.4436 -0.2347  0.4968
   7423SM   O11 9687   0.506   4.188   7.162  0.5988  0.8548 -0.6399
   7423SM   O12 9688   0.609   4.283   7.366 -0.5562  0.2920  0.2700
   7423SM   C1S 9689   0.614   4.213   7.075  0.3057 -0.2118 -0.6585
   7423SM   H1S 9690   0.699   4.147   7.102  1.1791  1.4049  0.7596
   7423SM   H1T 9691   0.650   4.317   7.088  1.0999 -0.3729 -1.4472
   7423SM    NF 9692   0.685   4.196   6.840 -0.2722  0.2005  0.1153
   7423SM   HNF 9693   0.702   4.279   6.788  1.0788  0.1602  0.4526
   7423SM   C2S 9694   0.570   4.195   6.927 -0.0878 -0.0103 -0.6391
   7423SM   H2S 9695   0.524   4.096   6.911  2.7563 -1.2263 -2.1267
   7423SM   C3S 9696   0.465   4.299   6.887 -0.2253  0.5272  0.3325
   7423SM   H3S 9697   0.523   4.393   6.878 -0.7082  0.7741 -0.2132
   7423SM    O3 9698   0.359   4.320   6.984 -0.0317  0.2912  1.3413
   7423SM   HO3 9699   0.388   4.267   7.059  0.4543  0.6852  1.4387
   7423SM   C4S 9700   0.409   4.276   6.744  1.5394  0.8718  0.0720
   7423SM   H4S 9701   0.472   4.311   6.661  3.3362 -1.1309  0.5111
   7423SM   C5S 9702   0.277   4.240   6.719 -1.0031  0.2395  0.6674
   7423SM   H5S 9703   0.206   4.210   6.797 -0.5382  2.7691  2.1568
   7423SM   C6S 9704   0.229   4.231   6.581  0.0595  0.0081  0.2685
   7423SM   H6S 9705   0.149   4.308   6.578  2.2466  2.3946 -0.0432
   7423SM   H6T 9706   0.179   4.132   6.568  0.4035  0.2005 -4.1591
   7423SM   C7S 9707   0.314   4.258   6.458 -0.3160  1.0890 -0.0470
   7423SM   H7S 9708   0.386   4.173   6.450  0.9684  2.0686  0.7144
   7423SM   H7T 9709   0.372   4.353   6.460 -0.5269  1.2698 -1.6265
   7423SM   C8S 9710   0.230   4.265   6.325 -0.0489 -0.1013  0.0582
   7423SM   H8S 9711   0.184   4.367   6.326 -0.5094 -0.2906 -0.9021
   7423SM   H8T 9712   0.158   4.183   6.306 -0.4897  0.3400 -0.2225
   7423SM   C9S 9713   0.338   4.240   6.215 -0.3291  0.2879  0.5968
   7423SM   H9S 9714   0.406   4.153   6.227  0.8995  1.0547 -0.6052
   7423SM   H9T 9715   0.398   4.333   6.215 -0.9227  0.6833  1.2217
   7423SM  C10S 9716   0.264   4.215   6.080  0.3203 -0.2866  0.4897
   7423SM  H10S 9717   0.176   4.282   6.091  0.6155 -0.2283  3.4265
   7423SM  H10T 9718   0.228   4.110   6.078  2.1386 -1.0722  3.2066
   7423SM  C11S 9719   0.347   4.226   5.956  0.1075 -0.1295  0.4488
   7423SM  H11S 9720   0.383   4.331   5.956  2.7592 -0.9543  1.7838
   7423SM  H11T 9721   0.270   4.212   5.877 -0.6382  2.9221  0.4782
   7423SM  C12S 9722   0.463   4.130   5.948 -0.4657  0.0862 -0.4348
   7423SM  H12S 9723   0.423   4.026   5.948 -1.4883  0.4117  1.9785
   7423SM  H12T 9724   0.523   4.144   6.040  0.8424 -3.1327 -0.6463
   7423SM  C13S 9725   0.557   4.151   5.834  0.1285  0.0587  0.0123
   7423SM  H13S 9726   0.502   4.162   5.738  0.3638  0.4873 -0.0788
   7423SM  H13T 9727   0.626   4.064   5.828 -0.1634 -0.3443  2.0216
   7423SM  C14S 9728   0.661   4.264   5.841 -0.0900 -0.4816 -0.1618
   7423SM  H14S 9729   0.755   4.242   5.896  0.5980  0.8683 -0.7452
   7423SM  H14T 9730   0.621   4.354   5.893 -1.5130 -0.1833 -1.6773
   7423SM  C15S 9731   0.703   4.328   5.708  0.3602 -0.8189  0.1324
   7423SM  H15S 9732   0.755   4.424   5.727 -2.2211  0.9411 -1.0368
   7423SM  H15T 9733   0.612   4.358   5.652  1.5939 -1.1860 -2.1822
   7423SM  C16S 9734   0.773   4.243   5.601  0.4055 -0.1486  0.1247
   7423SM  H16S 9735   0.721   4.150   5.571 -1.4424  0.7798  0.3464
   7423SM  H16T 9736   0.864   4.218   5.661  1.3842  2.6105 -0.0621
   7423SM  C17S 9737   0.818   4.317   5.478 -0.6449  0.3551 -0.2812
   7423SM  H17S 9738   0.722   4.353   5.436 -1.2097 -0.6756  0.0965
   7423SM  H17T 9739   0.861   4.254   5.398 -0.7292 -1.1605  0.8394
   7423SM  C18S 9740   0.907   4.445   5.510  0.5247 -0.0881  0.0704
   7423SM  H18S 9741   0.981   4.409   5.584 -1.7193 -0.0931  2.4711
   7423SM  H18T 9742   0.835   4.520   5.550 -1.1411 -0.9934 -1.1224
   7423SM  H18U 9743   0.960   4.480   5.419 -0.7801 -0.2198 -0.7741
   7423SM   C1F 9744   0.764   4.090   6.823  0.0366 -0.4349  0.8433
   7423SM    OF 9745   0.778   4.004   6.910  0.6447  0.1151  0.4189
   7423SM   C2F 9746   0.853   4.092   6.698  0.1777 -0.4346  0.2687
   7423SM   H2F 9747   0.947   4.053   6.743  0.7867  1.4955  0.7716
   7423SM   H2G 9748   0.879   4.198   6.679  1.1263 -0.1890  2.6054
   7423SM   C3F 9749   0.798   4.022   6.569  0.1345  0.5042 -0.2798
   7423SM   H3F 9750   0.764   3.921   6.601  1.5555 -0.2779 -1.1316
   7423SM   H3G 9751   0.889   4.021   6.505 -1.7245  1.2101 -3.0765
   7423SM   C4F 9752   0.693   4.098   6.496 -0.3964  0.4534  0.1036
   7423SM   H4F 9753   0.600   4.122   6.553 -1.5185 -0.3799 -1.3058
   7423SM   H4G 9754   0.652   4.045   6.407 -0.5232  0.5906  0.0793
   7423SM   C5F 9755   0.751   4.228   6.431 -0.4022  0.4397  0.6619
   7423SM   H5F 9756   0.842   4.201   6.373 -0.1265  1.5081  0.5887
   7423SM   H5G 9757   0.790   4.300   6.506 -1.1948  2.1846 -0.5284
   7423SM   C6F 9758   0.659   4.287   6.329  0.4386 -0.0912 -0.6646
   7423SM   H6F 9759   0.578   4.329   6.392  1.1370 -0.5027  0.5301
   7423SM   H6G 9760   0.620   4.206   6.263 -0.0567 -0.9109  0.5941
   7423SM   C7F 9761   0.728   4.400   6.246 -0.6447 -0.3966  0.0677
   7423SM   H7F 9762   0.803   4.361   6.175  0.2301  0.6739  0.3601
   7423SM   H7G 9763   0.770   4.465   6.327 -2.4006  2.3725 -1.1038
   7423SM   C8F 9764   0.625   4.487   6.163 -0.1748 -0.0533 -0.1926
   7423SM   H8F 9765   0.535   4.511   6.224 -0.6781 -0.1752 -0.8662
   7423SM   H8G 9766   0.573   4.431   6.082  0.6861 -1.2811  0.0832
   7423SM   C9F 9767   0.694   4.611   6.102  0.2965  0.2017  0.2638
   7423SM   H9F 9768   0.796   4.584   6.071  0.4460 -0.8106  1.5345
   7423SM   H9G 9769   0.710   4.680   6.188  0.9114 -1.0276  1.1683
   7423SM  C10F 9770   0.621   4.671   5.987 -0.7773  0.0362 -0.6064
   7423SM  H10F 9771   0.549   4.746   6.027 -0.1022  2.3184 -3.3336
   7423SM  H10G 9772   0.563   4.590   5.938 -1.5012  0.6715 -0.8099
   7423SM  C11F 9773   0.716   4.737   5.889 -0.0551  0.1854  0.4618
   7423SM  H11F 9774   0.784   4.664   5.840  0.9500  1.7077 -0.4683
   7423SM  H11G 9775   0.775   4.813   5.943 -1.7140  3.5003 -2.0443
   7423SM  C12F 9776   0.643   4.782   5.764  0.5055  0.4574  0.7184
   7423SM  H12F 9777   0.577   4.862   5.803 -0.6106 -1.1666  2.3202
   7423SM  H12G 9778   0.581   4.700   5.723 -0.1024  1.7073 -0.9966
   7423SM  C13F 9779   0.726   4.841   5.654 -0.2276 -0.1067 -0.6648
   7423SM  H13F 9780   0.796   4.769   5.607  0.0180  0.3532 -1.0078
   7423SM  H13G 9781   0.781   4.922   5.707 -2.6139  1.8415 -0.9730
   7423SM  C14F 9782   0.643   4.918   5.547 -0.3600  0.4905  0.8351
   7423SM  H14F 9783   0.619   5.020   5.585  2.5710  0.8836  1.8788
   7423SM  H14G 9784   0.543   4.870   5.539 -1.5690  2.8800  0.7393
   7423SM  C15F 9785   0.724   4.924   5.415 -0.1798 -0.3006  0.6517
   7423SM  H15F 9786   0.748   4.819   5.387  1.0537  0.3687 -0.9319
   7423SM  H15G 9787   0.823   4.974   5.426 -1.3491  2.1611  0.7193
   7423SM  C16F 9788   0.645   4.990   5.299  0.8426 -0.5333 -0.3528
   7423SM  H16F 9789   0.626   5.095   5.329  1.0285 -0.6429  0.1595
   7423SM  H16G 9790   0.547   4.940   5.283  0.7586 -0.5460  0.1756
   7423SM  C17F 9791   0.724   4.991   5.167 -0.2996 -0.0671  0.0898
   7423SM  H17F 9792   0.762   4.887   5.160  0.1917  0.1273 -0.1759
   7423SM  H17G 9793   0.810   5.061   5.177 -0.9589  0.8717 -0.5664
   7423SM  C18F 9794   0.650   5.050   5.050  0.4067 -0.0268 -0.5989
   7423SM  H18F 9795   0.563   4.985   5.026  0.4965 -0.3520 -0.0637
   7423SM  H18G 9796   0.716   5.034   4.962  0.7674  0.2425 -0.3794
   7423SM  C19F 9797   0.618   5.197   5.056  0.6977  0.4567  0.7065
   7423SM  H19F 9798   0.708   5.263   5.057  1.2751 -0.2958  0.0159
   7423SM  H19G 9799   0.561   5.220   5.149 -2.9289 -1.6044 -0.8029
   7423SM  C20F 9800   0.537   5.252   4.941  0.5961 -0.0118  0.4704
   7423SM  H20F 9801   0.434   5.211   4.930  0.9597 -0.2084 -3.8443
   7423SM  H20G 9802   0.593   5.231   4.847  0.4329 -0.1718  0.4096
   7423SM  C21F 9803   0.518   5.404   4.952  0.2511 -0.4753  0.2211
   7423SM  H21F 9804   0.621   5.440   4.972  0.0447  0.3389 -0.1598
   7423SM  H21G 9805   0.461   5.429   5.044  0.2014 -0.1578  0.1016
   7423SM  C22F 9806   0.471   5.461   4.820  0.8128 -0.1423 -0.1236
   7423SM  H22F 9807   0.523   5.401   4.742 -1.8557 -2.0869 -0.5732
   7423SM  H22G 9808   0.494   5.568   4.800  1.5962 -0.2144  0.3620
   7423SM  C23F 9809   0.320   5.431   4.800 -0.1726  0.1494  0.5698
   7423SM  H23F 9810   0.256   5.473   4.881  1.0809  2.3782  0.5042
   7423SM  H23G 9811   0.298   5.323   4.788  0.0635  0.0818  0.7454
   7423SM  H23H 9812   0.291   5.482   4.706 -3.5272 -2.1682  0.1791
   7523SM     N 9813   6.270   5.480   7.579 -0.4844 -0.2704  0.3402
   7523SM   C15 9814   6.320   5.377   7.677  0.6003 -1.1907 -0.7509
   7523SM  H15A 9815   6.364   5.292   7.628  2.2342 -1.8675  1.7326
   7523SM  H15B 9816   6.240   5.355   7.746 -0.4296  1.4010 -0.9880
   7523SM  H15C 9817   6.397   5.431   7.730  0.3258 -0.8286 -0.7092
   7523SM   C14 9818   6.150   5.426   7.507  0.4858 -0.4789  0.0332
   7523SM  H14A 9819   6.165   5.333   7.455 -3.2111 -0.6145 -1.0099
   7523SM  H14B 9820   6.134   5.496   7.427  3.1118 -1.4641 -1.4757
   7523SM  H14C 9821   6.059   5.417   7.565  0.7732 -3.6880  0.1548
   7523SM   C13 9822   6.235   5.602   7.653  0.1031  0.0349  0.3079
   7523SM  H13A 9823   6.190   5.673   7.586  0.2632 -0.3266 -0.1915
   7523SM  H13B 9824   6.318   5.655   7.698 -0.2992  0.1476  0.9291
   7523SM  H13C 9825   6.157   5.588   7.727 -0.6103  0.5670 -0.3328
   7523SM   C12 9826   6.381   5.517   7.482 -0.4986  0.8022  0.1532
   7523SM  H12A 9827   6.467   5.561   7.531  0.1415 -0.8779  0.6110
   7523SM  H12B 9828   6.349   5.596   7.416 -2.4742  0.7531  0.9736
   7523SM   C11 9829   6.441   5.413   7.383 -0.3262  1.1165  0.4351
   7523SM  H11A 9830   6.517   5.465   7.321  2.2140 -1.1343  1.4354
   7523SM  H11B 9831   6.368   5.371   7.311  1.1218  0.5454 -0.7571
   7523SM     P 9832   6.656   5.312   7.490 -0.5935 -0.0634 -0.3869
   7523SM   O13 9833   6.676   5.441   7.559  0.1151  0.0719  0.0041
   7523SM   O14 9834   6.699   5.191   7.557 -0.0247 -0.3674 -0.3782
   7523SM   O11 9835   6.738   5.322   7.361  0.6885  0.1492  0.2159
   7523SM   O12 9836   6.507   5.306   7.447  0.4295  0.3263 -0.7370
   7523SM   C1S 9837   6.721   5.233   7.250  0.2407  0.4453 -0.5793
   7523SM   H1S 9838   6.624   5.179   7.260  0.0764  0.9930  1.0209
   7523SM   H1T 9839   6.801   5.157   7.268  1.6461  1.8043 -0.8687
   7523SM    NF 9840   6.753   5.200   7.010 -0.2845  0.0279  0.1564
   7523SM   HNF 9841   6.834   5.142   7.013 -0.9081 -0.8742  0.0457
   7523SM   C2S 9842   6.744   5.305   7.114  0.0848 -0.0559 -0.2038
   7523SM   H2S 9843   6.662   5.379   7.104  0.3327  0.5567  1.8556
   7523SM   C3S 9844   6.879   5.385   7.120 -0.0743 -0.1615  0.6671
   7523SM   H3S 9845   6.960   5.321   7.161 -1.0502 -0.4060  2.3083
   7523SM    O3 9846   6.876   5.500   7.213  0.2578 -0.1124 -0.1675
   7523SM   HO3 9847   6.812   5.472   7.279  0.8253 -0.6259  0.1666
   7523SM   C4S 9848   6.922   5.439   6.987 -0.6204 -0.3567 -0.0235
   7523SM   H4S 9849   6.854   5.490   6.917  0.2729 -0.8583 -1.2918
   7523SM   C5S 9850   7.053   5.427   6.941 -0.0879 -0.7239 -0.7711
   7523SM   H5S 9851   7.135   5.387   7.001 -0.1351  0.9819  0.5267
   7523SM   C6S 9852   7.098   5.482   6.804  0.0299 -0.5131 -0.0081
   7523SM   H6S 9853   7.176   5.413   6.766 -0.4358 -0.1673 -1.6688
   7523SM   H6T 9854   7.156   5.576   6.811  0.5990 -0.8130 -0.6321
   7523SM   C7S 9855   6.989   5.491   6.690  0.1267  0.8451 -0.0162
   7523SM   H7S 9856   7.042   5.539   6.605 -0.3236  2.8666  0.8059
   7523SM   H7T 9857   6.905   5.556   6.722 -0.8520 -0.2561 -0.2890
   7523SM   C8S 9858   6.937   5.350   6.660 -0.3872  0.2805 -0.3349
   7523SM   H8S 9859   6.877   5.311   6.745  0.5145  1.2177  0.7662
   7523SM   H8T 9860   7.027   5.284   6.657  0.0365  0.8867 -1.5727
   7523SM   C9S 9861   6.872   5.339   6.516  0.4385 -0.3138 -0.6872
   7523SM   H9S 9862   6.782   5.405   6.516  0.9303  0.4294  1.1099
   7523SM   H9T 9863   6.835   5.235   6.506  0.1312 -0.1502 -1.3056
   7523SM  C10S 9864   6.960   5.364   6.391  0.5805  0.0039 -0.1383
   7523SM  H10S 9865   7.067   5.334   6.397  1.0587  1.4068 -1.2188
   7523SM  H10T 9866   6.963   5.474   6.377 -0.5072  0.3669  1.9328
   7523SM  C11S 9867   6.895   5.304   6.264  0.1246  0.3606 -0.6085
   7523SM  H11S 9868   6.789   5.334   6.250 -0.2687 -1.9962 -3.4796
   7523SM  H11T 9869   6.888   5.194   6.278 -0.6928  0.3118 -1.2711
   7523SM  C12S 9870   6.966   5.351   6.138  0.2317 -0.5485  0.2112
   7523SM  H12S 9871   7.073   5.319   6.138 -0.0029 -1.3590  0.1024
   7523SM  H12T 9872   6.956   5.461   6.130 -1.7305 -0.7944 -1.3710
   7523SM  C13S 9873   6.898   5.278   6.015 -0.6879 -0.6828 -0.1623
   7523SM  H13S 9874   6.793   5.315   6.020 -0.7648 -0.9876  0.7113
   7523SM  H13T 9875   6.914   5.169   6.028  3.0223 -0.3784 -1.1823
   7523SM  C14S 9876   6.959   5.313   5.880  0.4132  0.1347  0.0966
   7523SM  H14S 9877   7.061   5.270   5.879 -0.2326 -1.5063 -1.2500
   7523SM  H14T 9878   6.974   5.422   5.873 -1.5346  0.3997 -0.6335
   7523SM  C15S 9879   6.880   5.246   5.763  0.1349  0.4919 -0.4461
   7523SM  H15S 9880   6.778   5.291   5.764  0.1525  0.6159  1.5885
   7523SM  H15T 9881   6.862   5.140   5.789 -1.8266  1.2195  1.4993
   7523SM  C16S 9882   6.949   5.269   5.632 -0.1886  0.3035  0.0502
   7523SM  H16S 9883   7.034   5.197   5.634 -0.8550 -0.4816  1.6121
   7523SM  H16T 9884   6.987   5.373   5.623  2.1081 -0.5027 -0.3552
   7523SM  C17S 9885   6.855   5.230   5.514 -0.7728  0.1012  0.3951
   7523SM  H17S 9886   6.762   5.291   5.508 -2.3431 -2.1895 -0.0677
   7523SM  H17T 9887   6.826   5.122   5.513 -0.7468  0.0906 -0.4818
   7523SM  C18S 9888   6.928   5.241   5.380  0.1130  0.5817  0.2047
   7523SM  H18S 9889   7.026   5.190   5.387 -1.0061 -1.5786  0.9893
   7523SM  H18T 9890   6.948   5.344   5.344  0.5490 -0.5705 -3.2529
   7523SM  H18U 9891   6.873   5.202   5.292 -1.7475 -0.8742  1.9136
   7523SM   C1F 9892   6.648   5.152   6.945  0.3134 -0.2796 -0.2704
   7523SM    OF 9893   6.541   5.212   6.953 -0.4278 -0.5101  0.2083
   7523SM   C2F 9894   6.676   5.045   6.848 -0.2519  0.1756  0.9473
   7523SM   H2F 9895   6.783   5.019   6.859  0.3867  2.5592  1.0152
   7523SM   H2G 9896   6.650   5.071   6.743  0.1121 -1.6900  0.3548
   7523SM   C3F 9897   6.602   4.922   6.877 -0.8503  0.2870  0.4652
   7523SM   H3F 9898   6.491   4.930   6.881 -0.9373 -0.6477  0.0340
   7523SM   H3G 9899   6.626   4.890   6.980  1.9781 -1.3895 -0.6187
   7523SM   C4F 9900   6.640   4.808   6.787 -0.2785 -0.1756  0.4902
   7523SM   H4F 9901   6.566   4.730   6.810 -3.8183  1.7189 -3.1871
   7523SM   H4G 9902   6.748   4.784   6.797  0.4829  1.9655 -1.5877
   7523SM   C5F 9903   6.624   4.828   6.637 -0.7575  0.0385  0.4231
   7523SM   H5F 9904   6.702   4.903   6.611 -2.0954  1.7635  1.1443
   7523SM   H5G 9905   6.522   4.872   6.624 -1.0095 -0.5623  0.3355
   7523SM   C6F 9906   6.642   4.701   6.550  0.4417 -0.1681 -0.1290
   7523SM   H6F 9907   6.559   4.634   6.582 -1.4244  2.0628 -0.0642
   7523SM   H6G 9908   6.740   4.652   6.566  0.1513 -0.8769 -0.4375
   7523SM   C7F 9909   6.610   4.738   6.402  0.3060  0.1858 -0.0499
   7523SM   H7F 9910   6.668   4.819   6.352  0.8592 -1.6556 -2.6377
   7523SM   H7G 9911   6.503   4.765   6.394  0.1132  0.3185  2.4161
   7523SM   C8F 9912   6.626   4.617   6.308  0.8572 -0.4705 -1.1294
   7523SM   H8F 9913   6.547   4.540   6.324  0.2681  0.3845  0.2135
   7523SM   H8G 9914   6.733   4.588   6.313  1.0609  0.4775  1.2243
   7523SM   C9F 9915   6.597   4.660   6.161  0.5456 -0.3198  0.0564
   7523SM   H9F 9916   6.646   4.756   6.133  0.8932 -0.0271  1.5731
   7523SM   H9G 9917   6.489   4.685   6.151  0.6629  0.5930  0.8789
   7523SM  C10F 9918   6.645   4.551   6.061  0.4493 -0.3865 -0.0691
   7523SM  H10F 9919   6.611   4.454   6.104 -1.0207  0.9516  1.9303
   7523SM  H10G 9920   6.755   4.561   6.048  0.5406 -1.1315  0.0945
   7523SM  C11F 9921   6.580   4.575   5.925 -0.5783  1.0499 -0.5355
   7523SM  H11F 9922   6.651   4.612   5.849  0.2051 -0.4866 -0.5874
   7523SM  H11G 9923   6.498   4.649   5.939 -1.0574  0.1550  2.0914
   7523SM  C12F 9924   6.519   4.443   5.879  0.0830  0.0042  0.4876
   7523SM  H12F 9925   6.451   4.421   5.964  1.9256 -1.0461  1.7675
   7523SM  H12G 9926   6.591   4.359   5.867  0.2363 -0.5836  4.2339
   7523SM  C13F 9927   6.438   4.457   5.754  0.9908  0.2942  0.1601
   7523SM  H13F 9928   6.395   4.560   5.748  1.3268  0.3841 -1.0596
   7523SM  H13G 9929   6.350   4.390   5.753  0.7814  0.5610  0.6619
   7523SM  C14F 9930   6.519   4.432   5.622 -0.2370  0.0328  0.3850
   7523SM  H14F 9931   6.583   4.342   5.635  2.8714  1.8256 -1.2653
   7523SM  H14G 9932   6.587   4.519   5.611  1.3093 -1.1949 -0.1338
   7523SM  C15F 9933   6.429   4.435   5.502  0.2390  0.2344 -0.0234
   7523SM  H15F 9934   6.382   4.536   5.501  0.5961  0.4276  1.0262
   7523SM  H15G 9935   6.347   4.364   5.527  0.6538  0.7836  3.4350
   7523SM  C16F 9936   6.515   4.406   5.376  0.7721 -1.0590  0.3520
   7523SM  H16F 9937   6.544   4.299   5.384  0.4995 -1.0926  0.9119
   7523SM  H16G 9938   6.605   4.471   5.379 -1.1311  1.7536  0.2125
   7523SM  C17F 9939   6.447   4.430   5.240  0.0992 -0.2425  0.3708
   7523SM  H17F 9940   6.505   4.380   5.160 -1.9428 -0.2496 -1.1785
   7523SM  H17G 9941   6.439   4.538   5.219 -2.3513 -0.7199 -1.6484
   7523SM  C18F 9942   6.305   4.368   5.232  0.1643 -0.1578 -0.7841
   7523SM  H18F 9943   6.245   4.406   5.318  0.7343  1.5068 -1.0837
   7523SM  H18G 9944   6.319   4.259   5.246  0.3296  0.0248  0.6930
   7523SM  C19F 9945   6.245   4.408   5.101 -0.3143 -0.6566  0.5628
   7523SM  H19F 9946   6.310   4.360   5.025  0.1929 -0.7899  1.0695
   7523SM  H19G 9947   6.271   4.516   5.090  1.6275 -0.8723  2.3191
   7523SM  C20F 9948   6.098   4.389   5.089 -0.1032 -0.4229  0.2768
   7523SM  H20F 9949   6.050   4.405   5.188  2.1068  1.6551  1.1354
   7523SM  H20G 9950   6.079   4.286   5.054  1.5084 -0.4041 -0.7512
   7523SM  C21F 9951   6.032   4.479   4.984  0.0062 -0.3197  0.7682
   7523SM  H21F 9952   6.097   4.484   4.894 -0.3163  1.4278  0.5906
   7523SM  H21G 9953   6.004   4.576   5.031 -1.8779 -0.3637 -0.1678
   7523SM  C22F 9954   5.895   4.426   4.946  0.2445 -0.3105  0.0910
   7523SM  H22F 9955   5.846   4.502   4.881 -0.6643 -0.4597  0.5880
   7523SM  H22G 9956   5.835   4.412   5.038  1.7411  0.6341  1.2532
   7523SM  C23F 9957   5.900   4.308   4.857  0.0430  0.7897 -0.2435
   7523SM  H23F 9958   5.801   4.289   4.809 -0.4712  0.7466  0.7995
   7523SM  H23G 9959   5.930   4.216   4.911 -0.9779  0.3458 -0.4135
   7523SM  H23H 9960   5.974   4.333   4.778 -0.2164  0.8045 -0.4866
   7623SM     N 9961   6.474   4.516   7.417 -0.4526  0.6707 -0.0492
   7623SM   C15 9962   6.332   4.564   7.431 -0.8367 -0.2986  0.3352
   7623SM  H15A 9963   6.274   4.474   7.447  1.5912 -2.3662 -1.5550
   7623SM  H15B 9964   6.298   4.602   7.335  2.5722  0.0641 -0.8526
   7623SM  H15C 9965   6.321   4.624   7.519 -2.2570 -2.4589  1.7298
   7623SM   C14 9966   6.502   4.413   7.525  0.0659  0.3647  1.2010
   7623SM  H14A 9967   6.501   4.460   7.623 -2.3131  0.1920  1.3252
   7623SM  H14B 9968   6.604   4.382   7.512  0.1186  0.7474  0.7004
   7623SM  H14C 9969   6.432   4.331   7.528 -1.1471  1.3712  2.8556
   7623SM   C13 9970   6.483   4.439   7.286 -0.0842  0.0265 -0.8270
   7623SM  H13A 9971   6.438   4.499   7.209  1.9799  1.6302 -0.8681
   7623SM  H13B 9972   6.416   4.355   7.282 -0.4497  0.3224 -1.0060
   7623SM  H13C 9973   6.585   4.405   7.271  0.0380 -0.9381  1.7125
   7623SM   C12 9974   6.567   4.632   7.415 -0.7392  0.4170 -0.3154
   7623SM  H12A 9975   6.584   4.662   7.518  0.2213 -0.9572 -0.0568
   7623SM  H12B 9976   6.533   4.709   7.347 -0.0812 -0.3959 -1.5946
   7623SM   C11 9977   6.711   4.595   7.378 -0.0467 -0.4636  0.5323
   7623SM  H11A 9978   6.738   4.541   7.285  1.3511  1.9190 -0.5354
   7623SM  H11B 9979   6.741   4.527   7.460  1.1841 -1.0509 -0.3844
   7623SM     P 9980   6.796   4.833   7.290 -0.1990 -0.0021  0.1066
   7623SM   O13 9981   6.658   4.891   7.282 -0.4123  0.2730  0.1468
   7623SM   O14 9982   6.905   4.922   7.331 -0.1467 -0.4644  0.0409
   7623SM   O11 9983   6.835   4.771   7.151 -0.7761 -0.3316 -0.3419
   7623SM   O12 9984   6.804   4.708   7.383  0.8437  0.3056  0.2925
   7623SM   C1S 9985   6.960   4.696   7.132  0.7733  0.0597  0.2366
   7623SM   H1S 9986   6.931   4.592   7.158 -4.2502  1.2592  0.4346
   7623SM   H1T 9987   7.043   4.738   7.192 -0.6919  0.7495  1.8701
   7623SM    NF 9988   7.084   4.602   6.950 -0.5025 -0.6150  0.5655
   7623SM   HNF 9989   7.179   4.614   6.923 -0.6556 -1.0201 -0.1951
   7623SM   C2S 9990   7.003   4.712   6.980 -0.6538  0.3118 -0.7465
   7623SM   H2S 9991   6.911   4.704   6.919 -2.2857 -1.1456  1.7123
   7623SM   C3S 9992   7.059   4.856   6.962 -0.3987 -0.2994  0.1593
   7623SM   H3S 9993   7.157   4.867   7.014 -0.5323 -1.7872  0.7481
   7623SM    O3 9994   6.974   4.959   7.008 -0.1794 -0.4002 -0.0255
   7623SM   HO3 9995   6.907   4.913   7.060  1.0969 -1.7396  0.4913
   7623SM   C4S 9996   7.094   4.868   6.815 -0.5149 -0.0486 -0.0495
   7623SM   H4S 9997   7.204   4.862   6.808 -0.6707 -1.4161 -2.7441
   7623SM   C5S 9998   7.019   4.904   6.707 -0.2388 -0.8919  0.8968
   7623SM   H5S 9999   6.916   4.942   6.718  0.5953  2.3684 -1.3724
   7623SM   C6S10000   7.072   4.944   6.570 -0.0184 -0.5991 -0.6297
   7623SM   H6S10001   7.172   4.901   6.551 -0.0580 -0.1866 -1.8478
   7623SM   H6T10002   7.073   5.055   6.559  2.0406 -0.7836 -3.3199
   7623SM   C7S10003   6.986   4.893   6.463 -0.7157  0.0596  0.1065
   7623SM   H7S10004   6.892   4.951   6.470 -0.2257  0.6646  2.5103
   7623SM   H7T10005   6.978   4.782   6.473  0.4435 -0.1346 -0.8244
   7623SM   C8S10006   7.050   4.911   6.317 -1.0966  0.7305 -0.0405
   7623SM   H8S10007   7.148   4.860   6.309 -1.3155  0.3113 -0.0482
   7623SM   H8T10008   7.070   5.019   6.297 -0.9614  0.8008  0.4739
   7623SM   C9S10009   6.948   4.867   6.217  0.2181 -0.1321  0.5609
   7623SM   H9S10010   6.866   4.941   6.214 -0.0811 -0.4851 -0.2732
   7623SM   H9T10011   6.908   4.765   6.235  0.0286 -0.0419  0.6535
   7623SM  C10S10012   7.015   4.877   6.083  0.0910 -0.1199  0.8466
   7623SM  H10S10013   7.089   4.794   6.076 -1.2663 -1.3187  0.0986
   7623SM  H10T10014   7.062   4.977   6.072  1.9268 -0.8089  1.9502
   7623SM  C11S10015   6.919   4.865   5.965  0.0919  0.0340  0.5250
   7623SM  H11S10016   6.851   4.953   5.965  1.1010  0.8537 -1.0662
   7623SM  H11T10017   6.866   4.769   5.979  2.5293 -1.5115 -0.2674
   7623SM  C12S10018   6.984   4.862   5.829 -0.8692  0.5796 -0.9941
   7623SM  H12S10019   7.073   4.795   5.833 -1.3101 -0.0981 -2.0942
   7623SM  H12T10020   7.009   4.965   5.798 -1.5087  0.7437 -0.9684
   7623SM  C13S10021   6.886   4.803   5.727 -0.5229  0.0034 -0.4637
   7623SM  H13S10022   6.790   4.857   5.740 -1.6892 -1.9607 -0.6195
   7623SM  H13T10023   6.864   4.695   5.743 -0.7768  0.5399  4.0355
   7623SM  C14S10024   6.944   4.827   5.583 -0.5170  0.0719  0.2471
   7623SM  H14S10025   6.928   4.936   5.567 -1.3740  0.2847  2.2364
   7623SM  H14T10026   6.879   4.769   5.514 -0.6641 -0.2253  0.6334
   7623SM  C15S10027   7.094   4.804   5.551 -0.0360 -0.0535 -0.1876
   7623SM  H15S10028   7.124   4.700   5.577  0.0281  0.1565  0.6282
   7623SM  H15T10029   7.151   4.883   5.605 -0.0915 -0.6747  0.8071
   7623SM  C16S10030   7.117   4.824   5.398 -0.1595  0.0594  0.1137
   7623SM  H16S10031   7.088   4.925   5.362 -0.5922 -0.7816 -2.0136
   7623SM  H16T10032   7.031   4.767   5.357 -0.0809 -0.6391  0.8786
   7623SM  C17S10033   7.254   4.768   5.356  0.3076  0.0985  0.1080
   7623SM  H17S10034   7.262   4.667   5.400 -1.7182 -0.7227 -1.2684
   7623SM  H17T10035   7.329   4.838   5.400 -1.0316  2.4169 -1.1328
   7623SM  C18S10036   7.271   4.760   5.205  0.2565 -0.2507  0.5123
   7623SM  H18S10037   7.376   4.732   5.182 -0.0824 -2.4666  1.4166
   7623SM  H18T10038   7.242   4.856   5.156 -1.0222 -0.6760  0.4110
   7623SM  H18U10039   7.204   4.680   5.167 -2.3565  1.9983  0.0619
   7623SM   C1F10040   7.034   4.479   6.937 -0.7166  0.0147 -0.2480
   7623SM    OF10041   6.916   4.459   6.953  0.0599 -0.5457 -0.3581
   7623SM   C2F10042   7.132   4.378   6.895  0.7154 -0.3831  0.1009
   7623SM   H2F10043   7.146   4.303   6.975  0.5458 -1.7758 -1.1446
   7623SM   H2G10044   7.232   4.427   6.883  0.6407  0.1419  1.4186
   7623SM   C3F10045   7.094   4.317   6.757 -1.2518  0.1166  0.5883
   7623SM   H3F10046   6.995   4.268   6.769  0.3472 -3.2387  1.1551
   7623SM   H3G10047   7.176   4.258   6.712  0.5652  3.5134 -0.9559
   7623SM   C4F10048   7.075   4.437   6.656 -0.1402  0.2652 -0.0088
   7623SM   H4F10049   7.144   4.519   6.683  3.6299 -2.9186  0.9732
   7623SM   H4G10050   6.974   4.484   6.664  0.1882  0.7054  2.4367
   7623SM   C5F10051   7.098   4.396   6.507 -0.8776  0.1277  0.5362
   7623SM   H5F10052   7.034   4.307   6.490 -1.4254  0.0595  2.6826
   7623SM   H5G10053   7.208   4.382   6.504 -0.9069  0.0326 -0.3036
   7623SM   C6F10054   7.067   4.516   6.416 -0.2734 -0.4140 -0.1615
   7623SM   H6F10055   7.129   4.601   6.451  0.2924 -1.5584  1.8089
   7623SM   H6G10056   6.961   4.528   6.445  0.4355  1.8863  1.8151
   7623SM   C7F10057   7.089   4.477   6.271 -0.3291 -0.7214 -0.0820
   7623SM   H7F10058   7.154   4.387   6.276  0.2040 -0.3223  0.2014
   7623SM   H7G10059   7.143   4.559   6.219  0.9477  0.1076  2.4042
   7623SM   C8F10060   6.967   4.440   6.202  0.5653  0.0758  0.8370
   7623SM   H8F10061   6.899   4.529   6.196  0.4450 -0.0860 -0.5531
   7623SM   H8G10062   6.907   4.361   6.252 -1.3182  1.9250  1.6898
   7623SM   C9F10063   6.986   4.404   6.055  0.2192  0.2041  0.8148
   7623SM   H9F10064   6.892   4.373   6.006  1.4501 -2.6046  0.0011
   7623SM   H9G10065   7.040   4.307   6.047 -0.6540 -0.3304  1.2701
   7623SM  C10F10066   7.054   4.502   5.965  0.3796  0.2703  0.4317
   7623SM  H10F10067   7.150   4.537   6.006  0.9112 -0.9814  0.3076
   7623SM  H10G10068   6.977   4.581   5.949  0.9431  0.6342 -0.5549
   7623SM  C11F10069   7.093   4.440   5.823 -0.1135  0.4611 -0.1797
   7623SM  H11F10070   7.170   4.362   5.838  0.7096  1.4499  0.8680
   7623SM  H11G10071   7.145   4.509   5.754  1.5998  1.3797  1.9121
   7623SM  C12F10072   6.971   4.368   5.756 -0.1584  0.4699 -0.4884
   7623SM  H12F10073   6.882   4.434   5.752 -1.0519 -0.7602 -1.8026
   7623SM  H12G10074   6.939   4.275   5.808 -0.1235 -0.4088 -1.9811
   7623SM  C13F10075   7.010   4.339   5.614  0.3641 -0.0517  0.5333
   7623SM  H13F10076   7.098   4.271   5.614 -0.0971 -0.8796 -2.9701
   7623SM  H13G10077   7.028   4.431   5.553  0.5802 -1.6741 -2.0349
   7623SM  C14F10078   6.891   4.266   5.545 -0.0598  0.0198  0.8444
   7623SM  H14F10079   6.803   4.335   5.536 -0.3645 -0.4307  0.3323
   7623SM  H14G10080   6.851   4.186   5.611 -0.3149 -0.3630  0.2365
   7623SM  C15F10081   6.933   4.220   5.399 -0.8116  0.0893 -0.3771
   7623SM  H15F10082   7.023   4.155   5.396 -0.3839  0.6027  0.9600
   7623SM  H15G10083   6.969   4.309   5.344  3.1579 -1.1838 -0.1210
   7623SM  C16F10084   6.823   4.157   5.317 -0.5422  0.0023  0.6008
   7623SM  H16F10085   6.744   4.229   5.285  0.7039  0.6381 -1.1862
   7623SM  H16G10086   6.771   4.080   5.379 -1.2622  0.5151  0.6489
   7623SM  C17F10087   6.877   4.083   5.192 -0.3478 -0.0066  0.6505
   7623SM  H17F10088   6.964   4.026   5.230 -0.4867  0.3386  1.5163
   7623SM  H17G10089   6.915   4.157   5.118  0.4261  0.3646  1.4123
   7623SM  C18F10090   6.788   3.976   5.138  0.2325  0.5688  1.0200
   7623SM  H18F10091   6.779   3.889   5.207  1.0769 -1.9663 -1.8593
   7623SM  H18G10092   6.836   3.933   5.048 -1.0770  0.6822  0.2323
   7623SM  C19F10093   6.643   4.022   5.102  0.2215 -0.9517 -0.3567
   7623SM  H19F10094   6.607   4.081   5.188  1.7302 -0.1821 -0.2017
   7623SM  H19G10095   6.578   3.933   5.089  0.4350 -0.7410 -3.6632
   7623SM  C20F10096   6.631   4.101   4.973 -0.2999 -0.4754 -0.0190
   7623SM  H20F10097   6.665   4.029   4.895  1.8025  0.4549 -0.0503
   7623SM  H20G10098   6.708   4.180   4.960  0.6291 -1.4152 -0.3833
   7623SM  C21F10099   6.493   4.146   4.938  0.0177  0.6366 -0.1927
   7623SM  H21F10100   6.485   4.242   4.994 -1.6285  1.4484 -1.6944
   7623SM  H21G10101   6.425   4.070   4.983 -0.2614  2.0519  1.9347
   7623SM  C22F10102   6.475   4.166   4.793 -0.7667 -0.1492 -0.2748
   7623SM  H22F10103   6.477   4.070   4.738 -1.5482 -0.3173 -0.0296
   7623SM  H22G10104   6.555   4.233   4.755  0.7183 -1.2059  0.8726
   7623SM  C23F10105   6.343   4.231   4.752  0.5487  0.3544  1.1842
   7623SM  H23F10106   6.336   4.337   4.782 -0.6846  1.4214 -2.3289
   7623SM  H23G10107   6.254   4.194   4.807  0.0299  1.8527  1.3967
   7623SM  H23H10108   6.331   4.225   4.641  1.2390 -0.7330  1.1521
   7723SM     N10109   7.261   0.733   7.030 -0.5346  0.2244 -0.2586
   7723SM   C1510110   7.214   0.590   7.012  0.1450 -0.4385  0.2259
   7723SM  H15A10111   7.186   0.571   6.909 -0.1604 -1.3940  0.4741
   7723SM  H15B10112   7.129   0.574   7.077  0.7969 -0.0595  1.1829
   7723SM  H15C10113   7.287   0.511   7.024  0.0252 -0.5496  0.2198
   7723SM   C1410114   7.322   0.744   7.168 -1.3968  0.4785  0.5778
   7723SM  H14A10115   7.254   0.719   7.248 -3.5358 -0.6123 -1.4698
   7723SM  H14B10116   7.356   0.845   7.187  0.7596 -0.1880  0.5242
   7723SM  H14C10117   7.406   0.677   7.172 -0.8085  1.2478  1.4538
   7723SM   C1310118   7.367   0.757   6.922  0.8840  0.4515  0.0841
   7723SM  H13A10119   7.421   0.847   6.946  0.4600  0.4688  0.9774
   7723SM  H13B10120   7.317   0.772   6.827 -0.9683 -2.1233  0.5461
   7723SM  H13C10121   7.434   0.673   6.934  0.0370  0.0866  2.9643
   7723SM   C1210122   7.145   0.832   7.011 -0.1541 -0.2533 -0.2952
   7723SM  H12A10123   7.067   0.810   7.082  1.6002 -1.5791  1.3188
   7723SM  H12B10124   7.093   0.811   6.919 -2.3865  2.3352  0.2534
   7723SM   C1110125   7.182   0.981   7.014  0.9382 -0.0259 -0.0386
   7723SM  H11A10126   7.096   1.044   6.983  0.5505 -1.3716 -1.8537
   7723SM  H11B10127   7.259   0.991   6.934  0.2593  2.2827 -0.4699
   7723SM     P10128   7.311   1.154   7.143 -0.1220 -0.4487 -0.3528
   7723SM   O1310129   7.255   1.255   7.236  0.2998  0.4770 -0.1138
   7723SM   O1410130   7.451   1.120   7.178  1.0639  0.2445 -0.1894
   7723SM   O1110131   7.293   1.210   6.992  0.2095  0.2932 -0.1272
   7723SM   O1210132   7.230   1.024   7.138 -0.2732 -0.5473  0.1668
   7723SM   C1S10133   7.303   1.350   6.962  0.2787  0.5668  0.0508
   7723SM   H1S10134   7.366   1.406   7.033  2.7529 -1.1158 -0.6918
   7723SM   H1T10135   7.203   1.399   6.957 -1.0593 -2.0779 -2.5853
   7723SM    NF10136   7.405   1.504   6.794  0.1651 -0.2241 -0.4773
   7723SM   HNF10137   7.343   1.559   6.740  1.4044  0.5323 -1.1921
   7723SM   C2S10138   7.370   1.365   6.820  0.5575 -0.1363  0.5550
   7723SM   H2S10139   7.466   1.310   6.810  0.3810 -0.4553  0.5923
   7723SM   C3S10140   7.270   1.299   6.706 -0.2167 -0.2337 -0.1481
   7723SM   H3S10141   7.173   1.353   6.702 -0.6868 -1.0734 -0.4610
   7723SM    O310142   7.254   1.161   6.721  0.0483 -0.0493  0.1769
   7723SM   HO310143   7.301   1.141   6.803  2.2444  0.8577 -0.7743
   7723SM   C4S10144   7.326   1.319   6.568  0.2048  0.4334  0.4480
   7723SM   H4S10145   7.265   1.378   6.498  2.4197  1.3152 -0.8290
   7723SM   C5S10146   7.443   1.273   6.516 -0.0610 -0.3665 -0.1796
   7723SM   H5S10147   7.512   1.215   6.579  0.4422  1.0646  0.6306
   7723SM   C6S10148   7.495   1.313   6.383 -0.4679 -0.1656  0.6063
   7723SM   H6S10149   7.545   1.221   6.346  0.7224  0.5979  0.2547
   7723SM   H6T10150   7.572   1.390   6.399 -0.9017  0.1316  1.3360
   7723SM   C7S10151   7.398   1.358   6.276  0.5900  0.5270  0.0708
   7723SM   H7S10152   7.344   1.452   6.300 -1.1774 -0.6442  0.8648
   7723SM   H7T10153   7.315   1.284   6.274 -0.8659  1.9404  2.8202
   7723SM   C8S10154   7.456   1.368   6.132 -0.2757  0.0531 -0.1336
   7723SM   H8S10155   7.379   1.399   6.059 -2.8451 -1.4237  1.7688
   7723SM   H8T10156   7.483   1.262   6.110  0.6086  0.2396  0.0216
   7723SM   C9S10157   7.591   1.443   6.123 -0.4590 -0.0133  0.0672
   7723SM   H9S10158   7.657   1.404   6.203 -0.5074 -0.1735  0.0277
   7723SM   H9T10159   7.577   1.551   6.145  2.6131  0.7020 -0.9150
   7723SM  C10S10160   7.670   1.436   5.986  0.6238  0.4534 -0.2188
   7723SM  H10S10161   7.759   1.502   5.995 -0.0888  1.6562 -1.5545
   7723SM  H10T10162   7.612   1.471   5.898  0.3120  0.6991  0.0795
   7723SM  C11S10163   7.737   1.296   5.960 -0.3452 -0.9857  0.3474
   7723SM  H11S10164   7.659   1.226   5.923 -0.9158  1.1337 -2.8435
   7723SM  H11T10165   7.790   1.262   6.052  1.1247  1.2469  0.3867
   7723SM  C12S10166   7.845   1.308   5.855  0.5115  0.0312 -0.1064
   7723SM  H12S10167   7.939   1.334   5.910 -0.5386 -1.8672  2.8057
   7723SM  H12T10168   7.815   1.396   5.793 -0.9068 -1.4502 -1.6082
   7723SM  C13S10169   7.852   1.193   5.750 -0.1233 -0.6647 -0.0698
   7723SM  H13S10170   7.750   1.151   5.739 -2.5472  4.6901 -2.1348
   7723SM  H13T10171   7.928   1.118   5.778 -0.4653 -0.7621  0.6135
   7723SM  C14S10172   7.885   1.250   5.607  1.1657 -0.2296 -0.6193
   7723SM  H14S10173   7.978   1.308   5.626 -0.4251  2.3913 -0.3899
   7723SM  H14T10174   7.807   1.326   5.588  1.5638 -0.2511 -2.5047
   7723SM  C15S10175   7.902   1.133   5.501  0.2354 -0.5167 -0.2863
   7723SM  H15S10176   7.798   1.096   5.492  0.5280 -1.0612 -1.7979
   7723SM  H15T10177   7.974   1.050   5.520 -0.2410 -1.5101 -2.4829
   7723SM  C16S10178   7.932   1.198   5.359  0.5666  0.3620  0.0735
   7723SM  H16S10179   8.029   1.251   5.356  1.2532 -0.8873 -1.5709
   7723SM  H16T10180   7.854   1.267   5.320 -0.9211 -0.2282  1.8414
   7723SM  C17S10181   7.948   1.094   5.245  1.1847  0.8940 -0.0371
   7723SM  H17S10182   7.850   1.045   5.224  0.0408  1.6041  3.0989
   7723SM  H17T10183   8.011   1.007   5.273 -0.6634 -0.3289  0.4729
   7723SM  C18S10184   8.011   1.156   5.125  0.7178  0.2941 -0.4603
   7723SM  H18S10185   7.953   1.247   5.097  0.9893  1.0836  1.4290
   7723SM  H18T10186   8.012   1.083   5.041 -0.9026 -0.9431  0.5302
   7723SM  H18U10187   8.114   1.194   5.140  0.3589  1.4233 -0.7631
   7723SM   C1F10188   7.497   1.572   6.865  0.2903  0.2707  0.0270
   7723SM    OF10189   7.577   1.517   6.940 -0.3050 -0.3355  0.2349
   7723SM   C2F10190   7.496   1.722   6.860  0.4588  0.2034 -0.0324
   7723SM   H2F10191   7.466   1.762   6.959  1.6433  1.6321 -0.2212
   7723SM   H2G10192   7.421   1.749   6.783  0.6576 -0.3378 -0.4207
   7723SM   C3F10193   7.632   1.779   6.818  0.1566  0.1524  0.0147
   7723SM   H3F10194   7.706   1.742   6.892 -1.5578 -0.3576  1.5687
   7723SM   H3G10195   7.632   1.890   6.824 -3.4090  0.2731  0.2978
   7723SM   C4F10196   7.681   1.731   6.681  0.8170  0.3161 -0.4639
   7723SM   H4F10197   7.598   1.728   6.606 -0.9176 -1.5487  1.4190
   7723SM   H4G10198   7.704   1.623   6.682  0.4956  0.2460 -0.5397
   7723SM   C5F10199   7.812   1.790   6.633  1.0219 -0.5846  0.0484
   7723SM   H5F10200   7.876   1.789   6.724  0.3292  3.4405  0.7826
   7723SM   H5G10201   7.785   1.888   6.588  0.4650 -1.5165 -1.7269
   7723SM   C6F10202   7.884   1.731   6.504  0.5431 -0.2369 -0.6520
   7723SM   H6F10203   7.890   1.620   6.505  2.7996 -0.1921  1.8290
   7723SM   H6G10204   7.992   1.758   6.503  1.0019 -1.8790 -0.0740
   7723SM   C7F10205   7.829   1.780   6.368  0.3890 -0.1339  0.3261
   7723SM   H7F10206   7.830   1.891   6.360 -0.3418 -0.1391  0.0849
   7723SM   H7G10207   7.722   1.751   6.358  0.6763 -1.1051  0.0135
   7723SM   C8F10208   7.913   1.737   6.248  0.9180  0.4904 -0.0003
   7723SM   H8F10209   7.886   1.632   6.223 -0.6574  0.5522  1.2843
   7723SM   H8G10210   8.019   1.761   6.270  0.7558 -0.2693  1.7877
   7723SM   C9F10211   7.868   1.812   6.116  0.1379  0.1575 -0.5960
   7723SM   H9F10212   7.895   1.919   6.125  1.4251 -0.2093  0.0163
   7723SM   H9G10213   7.757   1.810   6.107  0.2567  0.5961 -2.6615
   7723SM  C10F10214   7.949   1.759   5.997  0.0874 -0.1415 -0.3348
   7723SM  H10F10215   7.936   1.650   5.980 -1.1354  0.0384 -0.6594
   7723SM  H10G10216   8.059   1.774   6.005  0.1620 -0.8534  0.1088
   7723SM  C11F10217   7.902   1.811   5.862  0.1778 -0.5288 -0.1113
   7723SM  H11F10218   7.906   1.921   5.850  0.8070 -0.4934  0.3520
   7723SM  H11G10219   7.792   1.794   5.861 -0.0512  0.8297 -2.0672
   7723SM  C12F10220   7.958   1.734   5.751 -1.0757  0.7883  0.7270
   7723SM  H12F10221   7.946   1.625   5.764 -2.0254  0.8214  0.2852
   7723SM  H12G10222   8.068   1.743   5.749 -0.3626 -4.6499  0.1503
   7723SM  C13F10223   7.904   1.778   5.611 -0.1316  0.5057 -0.3674
   7723SM  H13F10224   7.974   1.726   5.542 -1.7305 -0.9745 -0.9452
   7723SM  H13G10225   7.911   1.889   5.604  0.1146  0.4218 -1.9329
   7723SM  C14F10226   7.755   1.734   5.591 -0.3320  0.5692  0.3516
   7723SM  H14F10227   7.694   1.778   5.673  0.1286 -2.4514  2.4852
   7723SM  H14G10228   7.756   1.627   5.618 -1.1029  0.6371  0.6667
   7723SM  C15F10229   7.711   1.775   5.446  0.2503  1.2235  0.8377
   7723SM  H15F10230   7.705   1.886   5.446 -2.2886  1.1726 -0.8815
   7723SM  H15G10231   7.607   1.738   5.442  1.2447 -2.0709  2.0779
   7723SM  C16F10232   7.807   1.717   5.338  0.4552  0.2591  0.9372
   7723SM  H16F10233   7.847   1.616   5.362 -0.9656 -0.1357  1.7605
   7723SM  H16G10234   7.888   1.793   5.344  1.2376 -0.6598  2.6664
   7723SM  C17F10235   7.742   1.734   5.198  0.7976  0.1053 -0.0858
   7723SM  H17F10236   7.743   1.843   5.174  0.4654  0.4127  1.2265
   7723SM  H17G10237   7.637   1.698   5.204  0.3859  1.0178 -1.3844
   7723SM  C18F10238   7.805   1.649   5.084  0.3172  0.3857  0.0081
   7723SM  H18F10239   7.748   1.680   4.994  1.1574  2.3443  0.0993
   7723SM  H18G10240   7.791   1.541   5.105  0.2042  0.3258 -0.3622
   7723SM  C19F10241   7.950   1.678   5.052 -0.0167  0.7997 -0.5140
   7723SM  H19F10242   7.972   1.786   5.070  0.9155  0.5053  0.1815
   7723SM  H19G10243   7.972   1.656   4.945 -1.1355  0.1631 -0.6324
   7723SM  C20F10244   8.048   1.598   5.143 -0.3057  0.2009 -0.2080
   7723SM  H20F10245   8.015   1.493   5.129  1.7715 -0.7658  1.6221
   7723SM  H20G10246   8.018   1.631   5.245 -1.2970  1.6302 -0.9212
   7723SM  C21F10247   8.190   1.611   5.112 -0.6184  0.4865 -0.0777
   7723SM  H21F10248   8.211   1.598   5.003  1.0556  0.9963  0.1574
   7723SM  H21G10249   8.255   1.541   5.168  0.5412  1.0448 -0.6809
   7723SM  C22F10250   8.243   1.749   5.151 -0.6083  0.0586 -0.0300
   7723SM  H22F10251   8.201   1.789   5.245 -0.0317  2.4102 -0.7196
   7723SM  H22G10252   8.223   1.824   5.072  2.1080  0.4178 -0.4797
   7723SM  C23F10253   8.399   1.756   5.163  0.7990 -1.8358 -0.0903
   7723SM  H23F10254   8.444   1.750   5.062 -1.6654  0.2443 -1.4437
   7723SM  H23G10255   8.440   1.681   5.234  0.1927  0.1489  2.5285
   7723SM  H23H10256   8.432   1.849   5.215 -1.0572  1.1372 -3.7016
   7823SM     N10257   2.093   6.380   6.872  0.4412 -0.6644  0.0141
   7823SM   C1510258   2.109   6.255   6.949 -0.3846  0.2403 -0.3900
   7823SM  H15A10259   2.122   6.165   6.891 -2.4715  0.2448 -0.9644
   7823SM  H15B10260   2.021   6.244   7.011  1.5428 -1.8631  2.1657
   7823SM  H15C10261   2.196   6.260   7.011 -0.4949  2.0829 -0.3005
   7823SM   C1410262   1.965   6.365   6.802 -0.3309  0.7208  0.8343
   7823SM  H14A10263   1.963   6.267   6.757 -0.4562  0.3461  1.6417
   7823SM  H14B10264   1.954   6.441   6.726  1.8373  0.3606  0.0931
   7823SM  H14C10265   1.885   6.371   6.874  0.4442 -1.6784  1.9848
   7823SM   C1310266   2.074   6.494   6.966 -0.1268 -0.3987  0.3974
   7823SM  H13A10267   2.039   6.581   6.913  0.8752  0.3651  0.9387
   7823SM  H13B10268   2.171   6.521   7.005 -0.7143  4.1761 -0.6744
   7823SM  H13C10269   1.997   6.475   7.039  1.9290 -1.1085  2.4851
   7823SM   C1210270   2.195   6.411   6.765 -0.5913  0.2534 -0.5273
   7823SM  H12A10271   2.169   6.509   6.730 -0.7271  0.7305  0.8373
   7823SM  H12B10272   2.175   6.350   6.678 -3.9851 -1.6001  1.3497
   7823SM   C1110273   2.344   6.386   6.796 -0.7047 -0.3092 -0.5069
   7823SM  H11A10274   2.380   6.442   6.884 -0.9396 -2.3114  0.9194
   7823SM  H11B10275   2.394   6.420   6.702  1.1951  0.4175  0.7165
   7823SM     P10276   2.365   6.123   6.733  0.0703 -0.6354 -0.0177
   7823SM   O1310277   2.498   6.087   6.687 -0.4460 -0.0269 -0.2187
   7823SM   O1410278   2.271   6.028   6.785 -0.1429 -0.3531 -0.5990
   7823SM   O1110279   2.293   6.180   6.609  0.1038 -0.2833 -0.2140
   7823SM   O1210280   2.373   6.250   6.831 -0.1372  0.9530 -0.1503
   7823SM   C1S10281   2.170   6.134   6.557 -0.5376 -0.2280 -0.2428
   7823SM   H1S10282   2.092   6.183   6.619 -0.7856  1.0055 -1.4880
   7823SM   H1T10283   2.157   6.026   6.576  1.4424 -0.2448  1.3327
   7823SM    NF10284   2.015   6.125   6.370  0.2098  0.3525  0.0263
   7823SM   HNF10285   1.999   6.043   6.316 -2.0214  0.7885 -0.0683
   7823SM   C2S10286   2.153   6.167   6.404  0.0204  0.4753 -0.5587
   7823SM   H2S10287   2.157   6.278   6.397 -0.9379  0.4505 -1.8024
   7823SM   C3S10288   2.269   6.102   6.318  0.3300 -0.3945 -0.1009
   7823SM   H3S10289   2.272   5.994   6.340  0.0922 -1.6794 -5.1040
   7823SM    O310290   2.396   6.153   6.354 -0.4375 -0.2861  0.0937
   7823SM   HO310291   2.383   6.183   6.445  2.4462  1.7427 -0.0218
   7823SM   C4S10292   2.237   6.106   6.171 -1.1288 -0.3093  0.6327
   7823SM   H4S10293   2.216   6.006   6.129 -0.6687  0.7597 -2.3361
   7823SM   C5S10294   2.265   6.202   6.081  0.2480 -0.4352  0.1678
   7823SM   H5S10295   2.301   6.300   6.115  0.0985 -0.2485 -0.2035
   7823SM   C6S10296   2.252   6.202   5.928 -0.3041  0.0554 -0.5129
   7823SM   H6S10297   2.348   6.222   5.876  0.1710  0.6721  0.5514
   7823SM   H6T10298   2.194   6.293   5.903  1.0722  1.7426  1.9980
   7823SM   C7S10299   2.163   6.098   5.862  0.7919  0.1777 -0.2099
   7823SM   H7S10300   2.064   6.103   5.912  1.5697 -1.0912  1.5778
   7823SM   H7T10301   2.206   5.997   5.879  4.2565  1.6109  0.4661
   7823SM   C8S10302   2.146   6.133   5.713 -0.3473 -0.3637  0.8149
   7823SM   H8S10303   2.236   6.113   5.651 -0.5613  2.2253 -0.4983
   7823SM   H8T10304   2.114   6.237   5.690  0.5754  0.1259  1.6836
   7823SM   C9S10305   2.029   6.052   5.651 -0.3469  0.7826 -0.2011
   7823SM   H9S10306   1.951   6.041   5.729 -0.9550 -0.0613 -0.9176
   7823SM   H9T10307   2.057   5.947   5.632 -1.4782  0.4854 -0.2559
   7823SM  C10S10308   1.962   6.105   5.522  0.8635 -0.4589 -0.0211
   7823SM  H10S10309   2.022   6.076   5.433 -1.9363 -1.4058 -1.7111
   7823SM  H10T10310   1.949   6.215   5.526 -0.7541 -0.5859 -1.0837
   7823SM  C11S10311   1.824   6.039   5.487 -0.3433 -0.3398  0.1026
   7823SM  H11S10312   1.755   6.093   5.419 -1.9088 -2.6947 -0.3204
   7823SM  H11T10313   1.779   6.017   5.586  1.0147  0.9268  1.0430
   7823SM  C12S10314   1.832   5.894   5.422 -0.6099 -0.3349 -0.0089
   7823SM  H12S10315   1.746   5.829   5.449 -0.6142 -0.8448 -1.1779
   7823SM  H12T10316   1.930   5.853   5.456  0.6884  3.8526  1.9916
   7823SM  C13S10317   1.843   5.894   5.265  0.3012 -0.0449  0.0849
   7823SM  H13S10318   1.915   5.971   5.228  1.1982 -0.9637 -0.1320
   7823SM  H13T10319   1.744   5.924   5.224  1.1217  0.3869 -1.6864
   7823SM  C14S10320   1.893   5.765   5.195  0.8220 -0.5924  0.2118
   7823SM  H14S10321   1.991   5.723   5.227  1.2086  0.0615 -0.1032
   7823SM  H14T10322   1.893   5.776   5.085 -0.5963 -2.7065 -0.0539
   7823SM  C15S10323   1.804   5.639   5.231  0.2865  0.5055 -0.0891
   7823SM  H15S10324   1.698   5.662   5.209  0.4479 -0.3934 -2.0358
   7823SM  H15T10325   1.808   5.630   5.341  0.0695  0.2113 -0.1042
   7823SM  C16S10326   1.851   5.511   5.165 -0.5531  0.0789  0.0884
   7823SM  H16S10327   1.802   5.421   5.207  0.0216 -0.1330  0.3085
   7823SM  H16T10328   1.960   5.492   5.162 -0.8380 -1.5936 -0.2938
   7823SM  C17S10329   1.809   5.514   5.017 -0.0784  0.1913 -0.1961
   7823SM  H17S10330   1.823   5.608   4.959 -0.2995  1.0173  1.0427
   7823SM  H17T10331   1.702   5.484   5.025  0.4552 -1.9940 -0.6100
   7823SM  C18S10332   1.866   5.392   4.949 -0.5718  0.4382 -0.4763
   7823SM  H18S10333   1.803   5.305   4.980 -1.1682  0.7083 -0.9251
   7823SM  H18T10334   1.972   5.360   4.961  0.0329  1.8230 -1.7356
   7823SM  H18U10335   1.850   5.399   4.839 -0.5673 -0.3702 -0.5394
   7823SM   C1F10336   1.908   6.191   6.411  0.3973 -0.6932  0.2789
   7823SM    OF10337   1.919   6.296   6.478 -0.0750 -0.5622  0.2790
   7823SM   C2F10338   1.768   6.139   6.371 -0.3057  0.3711  1.5399
   7823SM   H2F10339   1.716   6.103   6.462  0.2303  0.2146  1.7869
   7823SM   H2G10340   1.780   6.052   6.304  1.1428  0.8276  1.1790
   7823SM   C3F10341   1.688   6.247   6.297  0.1949  0.0345  0.1978
   7823SM   H3F10342   1.677   6.339   6.358 -0.0123 -0.1342  0.4166
   7823SM   H3G10343   1.589   6.198   6.287  0.3041 -0.1501  0.0088
   7823SM   C4F10344   1.733   6.283   6.157 -0.6601  0.4524  0.1502
   7823SM   H4F10345   1.843   6.300   6.168 -0.4914 -0.6136  0.2394
   7823SM   H4G10346   1.695   6.384   6.129  0.5431  0.9677  0.3116
   7823SM   C5F10347   1.717   6.172   6.046  0.0390  0.7561 -0.2589
   7823SM   H5F10348   1.610   6.145   6.032  0.3937 -0.5387 -0.5947
   7823SM   H5G10349   1.772   6.086   6.091 -0.4734  0.2171 -0.6476
   7823SM   C6F10350   1.761   6.212   5.906  0.3897  0.0894  0.2719
   7823SM   H6F10351   1.751   6.123   5.840  1.1820 -0.3262  0.6883
   7823SM   H6G10352   1.869   6.239   5.900  0.4783 -0.4052 -0.5430
   7823SM   C7F10353   1.671   6.320   5.848 -0.1321 -0.2342  0.0410
   7823SM   H7F10354   1.661   6.413   5.909  1.3678 -0.2239  0.3144
   7823SM   H7G10355   1.576   6.264   5.839 -0.2644 -0.2441  1.2644
   7823SM   C8F10356   1.712   6.356   5.702 -0.5101 -0.0403  0.4519
   7823SM   H8F10357   1.738   6.260   5.653  0.8615  0.1088  0.8514
   7823SM   H8G10358   1.812   6.405   5.698 -0.1337 -0.5592  2.4490
   7823SM   C9F10359   1.615   6.436   5.622  0.6673 -0.1510  0.6149
   7823SM   H9F10360   1.590   6.539   5.656 -0.9050 -0.0624 -0.6541
   7823SM   H9G10361   1.514   6.391   5.612  1.2822 -1.2369 -1.1540
   7823SM  C10F10362   1.671   6.456   5.479  0.0623 -0.6891  0.3288
   7823SM  H10F10363   1.687   6.359   5.428 -0.1727 -0.6592  0.1972
   7823SM  H10G10364   1.770   6.507   5.482  1.6125 -3.3637 -1.2954
   7823SM  C11F10365   1.571   6.532   5.393  0.7785  0.4241  0.0269
   7823SM  H11F10366   1.558   6.634   5.433  0.3886  1.3112 -2.2219
   7823SM  H11G10367   1.469   6.487   5.386 -0.0622  2.1586  0.6315
   7823SM  C12F10368   1.612   6.548   5.243 -0.2636  0.4125  0.3368
   7823SM  H12F10369   1.720   6.570   5.233 -0.3782  0.2759 -1.8492
   7823SM  H12G10370   1.550   6.630   5.201  0.5735  0.9617  0.1494
   7823SM  C13F10371   1.590   6.425   5.154  0.9812 -0.0366  0.3461
   7823SM  H13F10372   1.486   6.388   5.165  1.4701 -2.8675 -2.9766
   7823SM  H13G10373   1.649   6.339   5.193 -0.0265 -1.4536 -1.1268
   7823SM  C14F10374   1.608   6.458   5.010 -0.4550  0.3351 -0.1194
   7823SM  H14F10375   1.716   6.474   4.988 -1.1305  0.4124 -4.0886
   7823SM  H14G10376   1.552   6.548   4.977 -2.1077 -0.6577 -0.1346
   7823SM  C15F10377   1.569   6.343   4.917 -0.1939 -0.1245 -0.9106
   7823SM  H15F10378   1.460   6.323   4.907 -0.6562  1.3857  0.6140
   7823SM  H15G10379   1.621   6.254   4.960 -0.5461  1.2424  2.7393
   7823SM  C16F10380   1.619   6.362   4.773 -0.0267 -0.8976 -0.0925
   7823SM  H16F10381   1.721   6.407   4.768  0.2261 -1.2944  1.1556
   7823SM  H16G10382   1.555   6.441   4.729  0.3270 -0.9984 -0.8011
   7823SM  C17F10383   1.614   6.237   4.684  0.3331 -0.0626 -1.2648
   7823SM  H17F10384   1.549   6.156   4.724  2.1260 -0.7184  0.5101
   7823SM  H17G10385   1.716   6.192   4.680  0.5533  0.3409 -0.4232
   7823SM  C18F10386   1.552   6.267   4.547 -0.1652 -0.2728  0.1867
   7823SM  H18F10387   1.618   6.325   4.479  1.0345 -1.1978  0.5210
   7823SM  H18G10388   1.461   6.328   4.565  0.7439  1.0601  0.3999
   7823SM  C19F10389   1.528   6.135   4.468 -0.0641  0.2921 -0.7203
   7823SM  H19F10390   1.471   6.071   4.539  0.6334  1.8060  1.3047
   7823SM  H19G10391   1.624   6.089   4.438  0.0785  0.2561 -0.2079
   7823SM  C20F10392   1.441   6.136   4.340  0.0049 -0.0537  0.3812
   7823SM  H20F10393   1.341   6.173   4.371  0.2203  0.7528  0.1262
   7823SM  H20G10394   1.447   6.029   4.309  0.6795  0.1352 -0.1495
   7823SM  C21F10395   1.489   6.219   4.228 -0.5742  0.0318  0.9827
   7823SM  H21F10396   1.593   6.193   4.198  0.0818  1.3644  2.0054
   7823SM  H21G10397   1.488   6.323   4.267 -0.6351  0.8514 -1.0688
   7823SM  C22F10398   1.398   6.214   4.108  0.7758  0.0772 -0.4469
   7823SM  H22F10399   1.363   6.315   4.078  1.1662 -0.2195 -2.0262
   7823SM  H22G10400   1.312   6.153   4.141  1.1878 -1.2366 -1.6834
   7823SM  C23F10401   1.455   6.131   3.995 -0.0207 -0.0704  0.2653
   7823SM  H23F10402   1.485   6.032   4.037  1.4970  0.5772  0.7575
   7823SM  H23G10403   1.547   6.171   3.948 -0.3968 -0.5359 -0.9107
   7823SM  H23H10404   1.385   6.106   3.913 -0.7077  1.5711  0.3127
   7923SM     N10405   6.801   6.731   7.505  0.6913 -0.6266 -0.4928
   7923SM   C1510406   6.944   6.731   7.479  0.6186  0.4240  0.2756
   7923SM  H15A10407   6.968   6.705   7.377  1.5440 -3.9698  1.4244
   7923SM  H15B10408   6.994   6.657   7.538 -1.2886  0.0397  1.4990
   7923SM  H15C10409   6.981   6.829   7.505 -0.0217  0.7323  0.0511
   7923SM   C1410410   6.746   6.595   7.484  0.0398  0.4540 -0.1122
   7923SM  H14A10411   6.805   6.520   7.534 -0.9434 -1.6969 -2.0103
   7923SM  H14B10412   6.754   6.567   7.380  1.5495 -0.9487  0.3277
   7923SM  H14C10413   6.644   6.586   7.517  0.5895 -0.5659  1.4357
   7923SM   C1310414   6.779   6.772   7.647  0.2260 -0.3909 -0.0714
   7923SM  H13A10415   6.821   6.870   7.663  0.4046 -0.3321 -0.8578
   7923SM  H13B10416   6.845   6.701   7.696  0.9647 -0.8772 -1.7051
   7923SM  H13C10417   6.676   6.765   7.679  0.4989  0.3922  1.0183
   7923SM   C1210418   6.727   6.829   7.409  0.0394 -0.3393 -0.5231
   7923SM  H12A10419   6.764   6.929   7.428  2.1631 -1.0373 -0.8180
   7923SM  H12B10420   6.620   6.822   7.424 -0.1874 -5.5774 -2.4524
   7923SM   C1110421   6.751   6.799   7.261 -0.1779  0.0523  0.4803
   7923SM  H11A10422   6.860   6.797   7.243 -0.3886 -0.2526 -0.8764
   7923SM  H11B10423   6.718   6.890   7.206  1.6692 -0.7457 -2.1538
   7923SM     P10424   6.537   6.683   7.185 -0.1749  0.1329 -0.2976
   7923SM   O1310425   6.484   6.546   7.183 -0.3139 -0.5603 -0.3124
   7923SM   O1410426   6.469   6.778   7.277 -0.0247  0.1533 -0.3547
   7923SM   O1110427   6.529   6.737   7.033  0.3309 -0.3954  0.3853
   7923SM   O1210428   6.690   6.681   7.221  0.4067 -0.4589  0.4678
   7923SM   C1S10429   6.571   6.664   6.921  0.0976 -0.4185 -0.2906
   7923SM   H1S10430   6.513   6.570   6.907  0.5042 -0.9351  1.3504
   7923SM   H1T10431   6.678   6.638   6.936 -0.2610 -1.2682  0.9557
   7923SM    NF10432   6.573   6.659   6.677  0.4761  0.6583  0.0650
   7923SM   HNF10433   6.660   6.635   6.636  0.0151 -1.5127  0.2493
   7923SM   C2S10434   6.576   6.746   6.788  0.0162 -0.5092  0.3928
   7923SM   H2S10435   6.480   6.802   6.789  1.5378  2.2854  0.6343
   7923SM   C3S10436   6.687   6.853   6.786  0.2882 -0.8751  0.1830
   7923SM   H3S10437   6.785   6.801   6.785  0.9788  0.3589  0.8078
   7923SM    O310438   6.701   6.944   6.896 -0.5343  0.0219  0.0076
   7923SM   HO310439   6.642   6.904   6.961  0.3563 -1.0179  0.1850
   7923SM   C4S10440   6.678   6.930   6.658  0.1311 -0.2199 -0.0598
   7923SM   H4S10441   6.755   6.890   6.590  1.8035 -0.7178  2.0123
   7923SM   C5S10442   6.596   7.026   6.629 -0.2665 -0.3763 -0.0877
   7923SM   H5S10443   6.524   7.057   6.706  0.5190 -0.2564  0.6178
   7923SM   C6S10444   6.593   7.100   6.499  0.3762  0.4960  0.7264
   7923SM   H6S10445   6.492   7.090   6.452  1.1431 -0.2114 -0.8573
   7923SM   H6T10446   6.666   7.053   6.429  0.2568 -1.0897  1.6326
   7923SM   C7S10447   6.636   7.249   6.513  0.0327  0.7079  0.6637
   7923SM   H7S10448   6.577   7.297   6.594 -2.3884 -0.0139 -0.5939
   7923SM   H7T10449   6.597   7.302   6.423 -0.7201 -0.8374  0.0563
   7923SM   C8S10450   6.782   7.280   6.538  0.3726  0.2558  0.1542
   7923SM   H8S10451   6.834   7.229   6.454 -0.6527 -0.2644 -0.1761
   7923SM   H8T10452   6.815   7.229   6.631 -1.4948 -0.7326  0.3108
   7923SM   C9S10453   6.814   7.430   6.551 -0.1738 -0.1499 -0.4242
   7923SM   H9S10454   6.750   7.477   6.629  1.4274  1.5054 -0.0294
   7923SM   H9T10455   6.788   7.475   6.452 -1.5406  0.7296  0.3039
   7923SM  C10S10456   6.965   7.465   6.588 -0.3019 -0.0983 -0.3925
   7923SM  H10S10457   6.995   7.432   6.690  1.1783  0.2116 -0.7132
   7923SM  H10T10458   6.972   7.576   6.594 -2.1323  0.2015 -2.3724
   7923SM  C11S10459   7.079   7.427   6.490  0.6582  0.8285  0.0969
   7923SM  H11S10460   7.148   7.512   6.476 -0.2283  1.5502  0.0247
   7923SM  H11T10461   7.033   7.430   6.390  1.0026  1.9617 -0.0456
   7923SM  C12S10462   7.152   7.292   6.504  0.2864 -0.9719 -0.2631
   7923SM  H12S10463   7.070   7.217   6.501  0.0646 -0.7247 -0.3385
   7923SM  H12T10464   7.211   7.290   6.598 -1.3775  0.6100  0.8687
   7923SM  C13S10465   7.252   7.270   6.393  0.3385  0.1242 -0.5931
   7923SM  H13S10466   7.335   7.343   6.398  0.8302 -0.5042  0.8356
   7923SM  H13T10467   7.187   7.286   6.304  0.1063 -0.1023 -0.4664
   7923SM  C14S10468   7.305   7.129   6.382 -0.0247  0.4429 -0.1923
   7923SM  H14S10469   7.320   7.090   6.485 -0.2653 -2.6392 -1.1928
   7923SM  H14T10470   7.401   7.121   6.326 -1.3797 -1.8239 -2.4250
   7923SM  C15S10471   7.228   7.028   6.297  0.4486  0.0840 -0.6065
   7923SM  H15S10472   7.240   7.049   6.189  1.5582  0.4998 -0.4186
   7923SM  H15T10473   7.121   7.032   6.327  0.9868 -0.8250  1.5979
   7923SM  C16S10474   7.276   6.886   6.327 -0.7774  0.2532  0.0149
   7923SM  H16S10475   7.267   6.859   6.435 -0.8601 -0.7850 -0.2480
   7923SM  H16T10476   7.384   6.885   6.304 -1.2974  1.4374 -2.7959
   7923SM  C17S10477   7.202   6.780   6.249 -0.9695 -0.6560 -0.4182
   7923SM  H17S10478   7.092   6.793   6.252 -0.9645 -0.7120  0.2636
   7923SM  H17T10479   7.226   6.685   6.301 -0.2648 -1.3916 -2.0132
   7923SM  C18S10480   7.255   6.762   6.108 -0.5751 -0.1277 -0.6733
   7923SM  H18S10481   7.199   6.672   6.073 -0.9055 -0.3029  0.2622
   7923SM  H18T10482   7.364   6.741   6.110 -1.0079 -2.6351  0.8152
   7923SM  H18U10483   7.227   6.846   6.041 -0.3195 -1.8168 -3.0458
   7923SM   C1F10484   6.469   6.569   6.664 -0.1013 -0.5458 -0.2261
   7923SM    OF10485   6.356   6.596   6.710 -0.0935  0.3086  0.0049
   7923SM   C2F10486   6.495   6.442   6.581  0.1079  0.0900  0.1638
   7923SM   H2F10487   6.591   6.395   6.613 -0.0302  0.0612  0.5353
   7923SM   H2G10488   6.508   6.471   6.474 -3.4160  1.4091 -0.0350
   7923SM   C3F10489   6.389   6.332   6.594  0.4620  0.8860  0.6266
   7923SM   H3F10490   6.286   6.376   6.591 -0.0916 -0.4053 -0.1086
   7923SM   H3G10491   6.402   6.273   6.687 -1.5654 -1.3871 -0.4171
   7923SM   C4F10492   6.377   6.229   6.485 -0.2718  0.8715  0.6665
   7923SM   H4F10493   6.362   6.289   6.392 -0.2783  2.4020  1.6060
   7923SM   H4G10494   6.278   6.178   6.491  0.2434  0.0234  2.5263
   7923SM   C5F10495   6.480   6.121   6.476 -0.3925  0.3325  0.0526
   7923SM   H5F10496   6.487   6.061   6.570 -0.1803  0.5006  0.1448
   7923SM   H5G10497   6.583   6.161   6.473 -0.3037  0.1749  0.8462
   7923SM   C6F10498   6.467   6.027   6.354  0.5542  0.8866  0.2949
   7923SM   H6F10499   6.366   5.983   6.358  0.0236  2.1526  1.7451
   7923SM   H6G10500   6.534   5.939   6.367 -0.3402  0.2021  0.3209
   7923SM   C7F10501   6.483   6.097   6.220 -0.3090 -0.0373  0.3878
   7923SM   H7F10502   6.593   6.116   6.219  0.2010 -2.6495  0.6527
   7923SM   H7G10503   6.443   6.200   6.216  3.6491  1.7516  1.6055
   7923SM   C8F10504   6.430   6.022   6.101 -0.2441  0.0244  0.8569
   7923SM   H8F10505   6.321   6.014   6.124 -0.5502  1.3565  0.0063
   7923SM   H8G10506   6.478   5.923   6.089  0.2059  0.2226  1.0227
   7923SM   C9F10507   6.428   6.098   5.968  0.1802 -0.4026 -0.2832
   7923SM   H9F10508   6.530   6.142   5.961  0.1510 -0.4118 -0.8064
   7923SM   H9G10509   6.355   6.182   5.968 -0.6287 -1.0895  0.2875
   7923SM  C10F10510   6.414   6.004   5.850 -0.0288  0.0287  0.4234
   7923SM  H10F10511   6.306   5.985   5.831  0.6092 -2.9261 -0.7134
   7923SM  H10G10512   6.467   5.911   5.879 -0.2244  0.0950  1.0120
   7923SM  C11F10513   6.479   6.067   5.723  0.0226  0.0017 -0.1114
   7923SM  H11F10514   6.581   6.105   5.745  0.2757 -1.2847  1.0634
   7923SM  H11G10515   6.422   6.156   5.689  1.8409  0.1587 -3.0154
   7923SM  C12F10516   6.474   5.973   5.604  0.4951 -0.5936  0.5626
   7923SM  H12F10517   6.371   5.934   5.592  0.4283 -1.9436  4.2891
   7923SM  H12G10518   6.542   5.887   5.617  1.0460 -0.3833 -0.7270
   7923SM  C13F10519   6.515   6.041   5.471  0.4384  0.4937  0.6946
   7923SM  H13F10520   6.617   6.083   5.484  1.6031 -2.8772  5.0146
   7923SM  H13G10521   6.447   6.129   5.461 -0.1792  0.1780  1.8858
   7923SM  C14F10522   6.497   5.940   5.363 -0.5758 -0.3898 -0.6112
   7923SM  H14F10523   6.392   5.907   5.375 -1.3088  1.9558 -0.0020
   7923SM  H14G10524   6.560   5.852   5.391 -2.1384 -1.0514  1.0057
   7923SM  C15F10525   6.521   6.008   5.230  0.5183 -0.2481 -0.6559
   7923SM  H15F10526   6.629   6.022   5.208  0.7054 -1.8080 -0.8375
   7923SM  H15G10527   6.471   6.107   5.223 -0.1480 -0.6426 -1.8087
   7923SM  C16F10528   6.463   5.916   5.123 -0.5470 -0.2682 -0.0001
   7923SM  H16F10529   6.356   5.894   5.144 -0.4479 -1.7624 -0.9008
   7923SM  H16G10530   6.516   5.821   5.145  0.5263  0.7375  1.9697
   7923SM  C17F10531   6.478   5.958   4.976  0.0946  0.7966  0.1170
   7923SM  H17F10532   6.564   6.024   4.951 -0.4629  0.6301 -2.5320
   7923SM  H17G10533   6.381   6.009   4.959 -0.8168 -0.3922  1.4468
   7923SM  C18F10534   6.502   5.843   4.879 -0.2478 -0.0901  0.0913
   7923SM  H18F10535   6.441   5.758   4.916 -1.0103  0.2439 -0.3744
   7923SM  H18G10536   6.609   5.815   4.878  0.4552  2.3493  0.7908
   7923SM  C19F10537   6.474   5.878   4.728 -0.1803 -1.2672  0.7990
   7923SM  H19F10538   6.543   5.956   4.690 -0.9225 -1.5541 -1.3191
   7923SM  H19G10539   6.370   5.918   4.725  0.6724  1.1178 -1.5326
   7923SM  C20F10540   6.459   5.757   4.639  0.3283 -0.3637  0.2762
   7923SM  H20F10541   6.379   5.685   4.666 -1.3664  1.4398  0.2510
   7923SM  H20G10542   6.549   5.694   4.658  0.1786  0.0586  2.6184
   7923SM  C21F10543   6.447   5.794   4.488 -0.2196  0.0700 -0.5013
   7923SM  H21F10544   6.554   5.805   4.459  1.0147 -2.8752  2.2283
   7923SM  H21G10545   6.395   5.889   4.462  0.0534  0.2692 -0.3297
   7923SM  C22F10546   6.388   5.680   4.399  0.4519  0.2445 -0.0675
   7923SM  H22F10547   6.375   5.718   4.296 -1.4404  0.3315  0.1542
   7923SM  H22G10548   6.281   5.652   4.413  0.6409 -0.6612 -0.3701
   7923SM  C23F10549   6.467   5.549   4.406  0.0419 -0.2556 -0.1106
   7923SM  H23F10550   6.449   5.508   4.507  0.1535  2.6070  1.1741
   7923SM  H23G10551   6.576   5.557   4.383  0.3998 -1.5331  0.9999
   7923SM  H23H10552   6.421   5.469   4.344  0.3133 -0.3833 -0.1491
   8023SM     N10553   2.622   7.077   7.103 -0.4431  0.2334  0.1002
   8023SM   C1510554   2.599   7.207   7.178  0.4108 -0.2972  0.9446
   8023SM  H15A10555   2.662   7.211   7.266 -0.5882  1.5497  1.6271
   8023SM  H15B10556   2.498   7.232   7.205  0.1476  1.7996 -1.5775
   8023SM  H15C10557   2.645   7.286   7.120 -0.9437 -0.0968  0.0963
   8023SM   C1410558   2.772   7.057   7.084  0.4474 -0.3551 -0.5702
   8023SM  H14A10559   2.820   7.093   7.173  1.0296  0.9948 -1.4063
   8023SM  H14B10560   2.795   7.113   6.995 -1.3806 -2.2207 -2.3282
   8023SM  H14C10561   2.795   6.953   7.063 -0.3602 -0.5041 -0.7883
   8023SM   C1310562   2.576   6.969   7.187  0.2405 -0.2189  0.3790
   8023SM  H13A10563   2.616   6.982   7.286  1.0231 -0.1462  0.0632
   8023SM  H13B10564   2.595   6.869   7.151  0.2935  0.7173 -2.5384
   8023SM  H13C10565   2.470   6.987   7.196 -0.2730 -2.9681  0.6584
   8023SM   C1210566   2.549   7.081   6.965 -0.1342 -0.1655 -0.5533
   8023SM  H12A10567   2.574   6.986   6.921 -1.7856 -0.4987 -0.8397
   8023SM  H12B10568   2.598   7.157   6.906 -0.0862  0.6821  0.5481
   8023SM   C1110569   2.399   7.099   6.962  0.2743 -0.4058 -0.4671
   8023SM  H11A10570   2.369   7.112   6.855  1.1363  1.9446 -0.4851
   8023SM  H11B10571   2.372   7.195   7.010  2.4888  0.8689 -1.6270
   8023SM     P10572   2.305   6.854   6.971 -0.3314 -0.2007 -0.2198
   8023SM   O1310573   2.447   6.816   6.941 -0.2521  0.0690 -0.2863
   8023SM   O1410574   2.217   6.764   7.045 -0.3783 -0.2971  0.1950
   8023SM   O1110575   2.242   6.886   6.831  0.4448 -0.1674  0.6401
   8023SM   O1210576   2.310   7.004   7.028 -0.2981  0.0840 -0.0084
   8023SM   C1S10577   2.105   6.923   6.820  0.1400 -0.0007  0.2131
   8023SM   H1S10578   2.082   7.029   6.844 -2.4442 -0.7074  1.1429
   8023SM   H1T10579   2.043   6.865   6.891  1.0252 -1.3862 -0.1187
   8023SM    NF10580   1.911   6.934   6.656  0.1709 -0.1614 -0.7462
   8023SM   HNF10581   1.847   6.858   6.656 -0.6887  0.4036  2.5103
   8023SM   C2S10582   2.053   6.889   6.673 -0.1224  0.4483  0.4966
   8023SM   H2S10583   2.112   6.954   6.604 -0.5373  1.8113  1.3807
   8023SM   C3S10584   2.086   6.746   6.625 -0.3515  0.3837 -0.6447
   8023SM   H3S10585   2.021   6.676   6.682 -2.3331  1.6810 -1.2055
   8023SM    O310586   2.220   6.701   6.650 -0.4356 -0.0173  1.0904
   8023SM   HO310587   2.250   6.769   6.711  3.5368 -0.7898  0.2515
   8023SM   C4S10588   2.053   6.724   6.478 -0.0955 -0.7696 -0.1566
   8023SM   H4S10589   1.958   6.667   6.472 -0.0137 -1.1320  1.4105
   8023SM   C5S10590   2.121   6.745   6.366  0.4188 -0.2171 -0.4613
   8023SM   H5S10591   2.228   6.773   6.369  0.3495  0.1006 -0.8162
   8023SM   C6S10592   2.078   6.709   6.227  0.0147  0.1878  0.4384
   8023SM   H6S10593   2.148   6.642   6.173  0.4132  0.9644 -0.0408
   8023SM   H6T10594   2.070   6.806   6.172  1.3528  0.6664  1.0446
   8023SM   C7S10595   1.941   6.645   6.208  0.5497  0.4549 -0.7845
   8023SM   H7S10596   1.875   6.716   6.262  0.7230  0.5947 -0.7563
   8023SM   H7T10597   1.945   6.549   6.264 -0.2562  0.1675 -1.2129
   8023SM   C8S10598   1.896   6.630   6.062  0.2981 -0.2055 -0.5373
   8023SM   H8S10599   1.810   6.561   6.053  1.5342 -1.5749 -2.8279
   8023SM   H8T10600   1.980   6.590   6.000 -0.9312  0.7658 -2.9571
   8023SM   C9S10601   1.863   6.772   6.003  0.7924  0.1980  0.5414
   8023SM   H9S10602   1.966   6.811   5.985  1.9699 -1.9177  2.2472
   8023SM   H9T10603   1.817   6.839   6.079 -0.9018 -0.1121 -0.1681
   8023SM  C10S10604   1.771   6.781   5.882 -0.0412 -0.3826  0.2937
   8023SM  H10S10605   1.671   6.738   5.906  0.3759 -3.6640 -2.8934
   8023SM  H10T10606   1.816   6.719   5.801 -0.2815  0.5106 -0.5466
   8023SM  C11S10607   1.747   6.930   5.841 -0.6524 -0.4646  0.2783
   8023SM  H11S10608   1.832   6.994   5.872 -1.6168 -0.0482  2.1890
   8023SM  H11T10609   1.671   6.973   5.909  0.1931  0.9703  0.3547
   8023SM  C12S10610   1.695   6.942   5.700 -0.1714 -0.0908  0.4132
   8023SM  H12S10611   1.653   7.044   5.688  0.4862  0.1445  0.0521
   8023SM  H12T10612   1.608   6.874   5.682  2.6441 -3.1136 -3.7112
   8023SM  C13S10613   1.800   6.912   5.597 -0.3427  0.4007  0.7078
   8023SM  H13S10614   1.850   6.814   5.612  1.5253  1.3411  0.9596
   8023SM  H13T10615   1.891   6.975   5.612  2.0297 -1.9149 -2.4755
   8023SM  C14S10616   1.746   6.926   5.448 -0.3760  0.3094 -1.1160
   8023SM  H14S10617   1.732   7.036   5.447  1.1576  0.5405 -0.7911
   8023SM  H14T10618   1.655   6.863   5.451  2.1519 -3.7250 -1.4890
   8023SM  C15S10619   1.834   6.878   5.337 -1.0826  0.1782  0.5638
   8023SM  H15S10620   1.770   6.883   5.246 -0.5299 -2.7539 -0.0923
   8023SM  H15T10621   1.867   6.773   5.349 -2.1530 -0.2634 -0.1499
   8023SM  C16S10622   1.954   6.966   5.323 -0.1877 -0.3245 -0.3707
   8023SM  H16S10623   2.005   6.959   5.421 -1.0638  1.8304  0.3115
   8023SM  H16T10624   1.933   7.072   5.294  0.4178 -0.1516 -0.1838
   8023SM  C17S10625   2.060   6.912   5.217  0.6256  0.8976  0.5093
   8023SM  H17S10626   2.013   6.918   5.117  0.8572 -0.3210  0.3075
   8023SM  H17T10627   2.091   6.807   5.238  0.4812  0.4202 -1.5035
   8023SM  C18S10628   2.190   6.994   5.212  0.0001 -0.1686  0.3134
   8023SM  H18S10629   2.158   7.091   5.169 -0.3732 -0.0843  0.7583
   8023SM  H18T10630   2.269   6.959   5.143  1.1980  3.0956 -0.1087
   8023SM  H18U10631   2.231   7.004   5.315 -1.2465  2.8641  0.6152
   8023SM   C1F10632   1.868   7.058   6.677  0.3370 -0.9394 -0.3154
   8023SM    OF10633   1.948   7.150   6.698 -0.2574  0.3480 -0.3647
   8023SM   C2F10634   1.722   7.076   6.686 -0.3417  0.6530  0.3283
   8023SM   H2F10635   1.687   7.091   6.790 -0.6831 -1.4716  0.5669
   8023SM   H2G10636   1.668   6.988   6.645 -2.0628  2.2244 -0.9544
   8023SM   C3F10637   1.688   7.189   6.588 -0.2401  0.3705  0.0631
   8023SM   H3F10638   1.736   7.175   6.489 -0.9661 -1.7735 -0.0380
   8023SM   H3G10639   1.706   7.292   6.626 -0.1875  0.3423  0.1139
   8023SM   C4F10640   1.543   7.175   6.556 -0.1604 -0.0418  0.4390
   8023SM   H4F10641   1.486   7.175   6.652  0.3381 -0.5106  0.7383
   8023SM   H4G10642   1.513   7.082   6.503  0.2975 -0.6599  1.2315
   8023SM   C5F10643   1.485   7.295   6.476 -0.0942 -0.3276 -0.3487
   8023SM   H5F10644   1.537   7.293   6.378  0.1398  1.0771 -0.2660
   8023SM   H5G10645   1.493   7.391   6.531 -0.9566 -0.3257 -0.2020
   8023SM   C6F10646   1.334   7.280   6.447 -0.6413 -0.2277  0.3941
   8023SM   H6F10647   1.278   7.258   6.541 -0.8299  0.4388  0.4451
   8023SM   H6G10648   1.318   7.193   6.380  1.3684 -0.6789  0.4598
   8023SM   C7F10649   1.277   7.405   6.386 -0.0611 -0.7427  0.0045
   8023SM   H7F10650   1.322   7.496   6.431 -0.2108 -0.7217  0.1145
   8023SM   H7G10651   1.170   7.402   6.415  0.4690 -0.8083  2.1241
   8023SM   C8F10652   1.293   7.408   6.237  0.7085 -0.4806  0.2812
   8023SM   H8F10653   1.245   7.318   6.193 -1.3548 -0.0944  1.6449
   8023SM   H8G10654   1.403   7.406   6.218  0.6576  1.3508 -0.3749
   8023SM   C9F10655   1.236   7.533   6.174 -0.6038  0.1678  0.0207
   8023SM   H9F10656   1.275   7.625   6.221 -0.1037 -0.1865  0.3079
   8023SM   H9G10657   1.127   7.524   6.193 -0.4493  0.5682  1.1610
   8023SM  C10F10658   1.279   7.539   6.026 -0.2935 -0.6395  0.0839
   8023SM  H10F10659   1.253   7.442   5.978 -0.3717 -0.5337 -0.0910
   8023SM  H10G10660   1.390   7.547   6.031 -0.4240  0.9682  0.9013
   8023SM  C11F10661   1.235   7.665   5.944  0.1204  0.9663 -0.1497
   8023SM  H11F10662   1.302   7.747   5.977  1.6812 -0.4114  0.2353
   8023SM  H11G10663   1.135   7.689   5.984  0.8604  0.5005  2.0925
   8023SM  C12F10664   1.221   7.631   5.792  0.1014 -0.5411 -0.5942
   8023SM  H12F10665   1.135   7.561   5.783 -1.0806  0.9572 -1.6956
   8023SM  H12G10666   1.315   7.579   5.766  1.4332  2.0597 -1.3715
   8023SM  C13F10667   1.196   7.744   5.695  0.4434 -0.1337  0.0174
   8023SM  H13F10668   1.268   7.824   5.722  0.3405 -0.1117  0.2291
   8023SM  H13G10669   1.092   7.781   5.706  0.2998  0.1326 -1.8895
   8023SM  C14F10670   1.225   7.710   5.546  0.3339 -0.3919  0.6932
   8023SM  H14F10671   1.163   7.629   5.501 -0.9170  1.0640 -0.2897
   8023SM  H14G10672   1.334   7.685   5.540  0.4179 -0.0976  0.9629
   8023SM  C15F10673   1.213   7.831   5.446 -0.4930  0.5820  0.0547
   8023SM  H15F10674   1.260   7.924   5.486 -0.7030  0.6960  0.0419
   8023SM  H15G10675   1.106   7.855   5.425  0.1458  1.2611 -2.9236
   8023SM  C16F10676   1.283   7.811   5.312 -0.2591  0.1014  0.8354
   8023SM  H16F10677   1.385   7.772   5.331  0.1004  0.3375 -0.5184
   8023SM  H16G10678   1.290   7.908   5.258 -3.2161 -0.3896 -0.6786
   8023SM  C17F10679   1.206   7.722   5.219 -0.2831 -0.0436  0.2406
   8023SM  H17F10680   1.108   7.764   5.189 -0.4925 -1.3925 -1.1109
   8023SM  H17G10681   1.185   7.621   5.259 -0.5944  0.1402  0.5389
   8023SM  C18F10682   1.285   7.696   5.087  0.3202  0.2136 -0.4594
   8023SM  H18F10683   1.379   7.642   5.107 -0.9582 -1.8979  0.1026
   8023SM  H18G10684   1.297   7.790   5.029 -1.9695  0.1153 -1.2024
   8023SM  C19F10685   1.206   7.621   4.981  0.1199 -0.3141  0.2899
   8023SM  H19F10686   1.262   7.613   4.885  1.6895 -0.2734  1.1669
   8023SM  H19G10687   1.108   7.668   4.961  0.5027 -0.0426 -1.0585
   8023SM  C20F10688   1.182   7.475   5.019 -0.4670  0.1006 -0.8905
   8023SM  H20F10689   1.105   7.466   5.098 -0.1670 -1.7028 -0.7765
   8023SM  H20G10690   1.276   7.448   5.072 -1.3498  0.0282  0.6888
   8023SM  C21F10691   1.146   7.384   4.904 -0.6258  0.4818 -0.1262
   8023SM  H21F10692   1.140   7.276   4.928  0.6811  0.4863  0.2653
   8023SM  H21G10693   1.232   7.388   4.834 -0.9191 -0.8778 -0.5853
   8023SM  C22F10694   1.015   7.415   4.835 -0.2528  0.2492 -0.1938
   8023SM  H22F10695   1.026   7.518   4.794  1.8790  0.3922  0.6045
   8023SM  H22G10696   0.931   7.415   4.908 -0.2742  0.8464 -0.2111
   8023SM  C23F10697   0.980   7.322   4.714  0.0508 -0.3152  0.0684
   8023SM  H23F10698   1.058   7.330   4.636 -0.9117 -1.0875 -1.0056
   8023SM  H23G10699   0.877   7.341   4.675  0.3559 -0.5363 -0.8677
   8023SM  H23H10700   0.982   7.216   4.748  0.7604 -0.8537 -1.5491
   8123SM     N10701   2.777   4.333   2.688  0.4327 -0.8535  0.3360
   8123SM   C1510702   2.639   4.385   2.701  1.0855  0.6248  0.5708
   8123SM  H15A10703   2.576   4.314   2.752  3.4324 -0.8181  1.6538
   8123SM  H15B10704   2.607   4.395   2.599 -0.8462 -0.5677  1.0134
   8123SM  H15C10705   2.624   4.477   2.756 -1.0277 -0.0513  1.2153
   8123SM   C1410706   2.863   4.447   2.632 -0.5938 -0.2883 -0.9260
   8123SM  H14A10707   2.862   4.535   2.695  1.1983 -2.1569  1.9722
   8123SM  H14B10708   2.845   4.466   2.527 -0.8670  1.5696 -0.5674
   8123SM  H14C10709   2.965   4.412   2.642 -0.4339  0.8635  2.6216
   8123SM   C1310710   2.837   4.299   2.818  0.0532  0.2786 -0.1373
   8123SM  H13A10711   2.944   4.290   2.812 -0.0772 -2.4337  0.0976
   8123SM  H13B10712   2.801   4.211   2.870  1.9153 -0.2570  0.3248
   8123SM  H13C10713   2.822   4.389   2.875  3.0324  0.0806  1.1428
   8123SM   C1210714   2.797   4.203   2.607 -0.3886 -0.8216 -0.6149
   8123SM  H12A10715   2.747   4.126   2.663 -0.2045  0.6336  1.6918
   8123SM  H12B10716   2.898   4.171   2.591 -0.0771 -1.0153  1.4526
   8123SM   C1110717   2.733   4.201   2.468 -0.6230 -0.7905  0.3648
   8123SM  H11A10718   2.772   4.105   2.430 -0.9621 -1.3356  1.3500
   8123SM  H11B10719   2.772   4.275   2.394  2.1808  0.3891  2.7963
   8123SM     P10720   2.504   4.084   2.518 -0.1950 -0.1940  0.3732
   8123SM   O1310721   2.373   4.133   2.565 -0.6474  0.6490  0.4658
   8123SM   O1410722   2.513   3.974   2.417  0.0205 -0.7088  0.3776
   8123SM   O1110723   2.578   4.032   2.645  0.1042 -0.3393 -0.3747
   8123SM   O1210724   2.593   4.206   2.476  0.1048 -0.6748  0.1167
   8123SM   C1S10725   2.555   3.905   2.711  0.2585  0.0624  0.1907
   8123SM   H1S10726   2.600   3.826   2.647 -0.5898  0.0752 -0.4384
   8123SM   H1T10727   2.449   3.874   2.724  0.4010  0.2367  2.0488
   8123SM    NF10728   2.601   3.764   2.909  0.2547 -0.0607  0.2263
   8123SM   HNF10729   2.529   3.746   2.976 -0.6109  0.0293 -0.6633
   8123SM   C2S10730   2.609   3.902   2.862  1.1131  0.6608 -0.0021
   8123SM   H2S10731   2.715   3.936   2.858  1.6321 -0.9426 -2.2093
   8123SM   C3S10732   2.532   4.008   2.950  0.9991  0.0012  0.5314
   8123SM   H3S10733   2.435   3.963   2.980  0.0301  2.2283  0.9298
   8123SM    O310734   2.513   4.135   2.887 -0.1080 -0.2016 -0.5499
   8123SM   HO310735   2.514   4.114   2.793 -0.6366  0.1157 -0.6313
   8123SM   C4S10736   2.603   4.025   3.083  0.4484  0.0286  0.5357
   8123SM   H4S10737   2.592   3.937   3.148  0.0174 -0.2986  0.0237
   8123SM   C5S10738   2.704   4.112   3.117  0.6513 -1.0468 -0.7800
   8123SM   H5S10739   2.730   4.197   3.052  0.4499  0.2200  0.7492
   8123SM   C6S10740   2.778   4.107   3.247  0.0097 -0.3856 -0.0884
   8123SM   H6S10741   2.826   4.206   3.264  1.4887 -1.2948  1.2989
   8123SM   H6T10742   2.862   4.034   3.246 -0.7985 -1.3639  0.7556
   8123SM   C7S10743   2.688   4.075   3.374  0.5957  0.1970 -0.2793
   8123SM   H7S10744   2.646   3.973   3.366 -0.2672  0.3080  1.9697
   8123SM   H7T10745   2.601   4.142   3.388 -1.2566 -2.0633 -0.4943
   8123SM   C8S10746   2.774   4.097   3.499 -0.4984 -0.1589 -0.1437
   8123SM   H8S10747   2.826   4.195   3.491  2.0533 -1.2841  1.1799
   8123SM   H8T10748   2.859   4.026   3.493 -0.1792  0.1929  0.1671
   8123SM   C9S10749   2.709   4.081   3.636 -0.6981 -0.4844 -0.6416
   8123SM   H9S10750   2.674   3.978   3.655 -2.6361  0.3165  0.4557
   8123SM   H9T10751   2.614   4.138   3.633 -0.4776 -0.1045 -0.5612
   8123SM  C10S10752   2.801   4.137   3.756  0.4412  0.4565  0.0428
   8123SM  H10S10753   2.824   4.243   3.736  0.1926  0.6855  0.9472
   8123SM  H10T10754   2.900   4.089   3.742 -1.0340 -2.7864 -0.3239
   8123SM  C11S10755   2.754   4.120   3.896  0.4387 -0.1383 -0.5739
   8123SM  H11S10756   2.745   4.012   3.919  0.4292 -0.0045  0.0681
   8123SM  H11T10757   2.654   4.165   3.915 -0.2157 -2.5641  2.4882
   8123SM  C12S10758   2.846   4.190   4.003  0.2603 -0.1802  0.2478
   8123SM  H12S10759   2.866   4.294   3.971  2.4339 -1.4086 -2.8953
   8123SM  H12T10760   2.938   4.128   3.997 -0.2870 -0.8752 -2.0968
   8123SM  C13S10761   2.779   4.189   4.144 -1.1795 -0.1888  0.2911
   8123SM  H13S10762   2.778   4.079   4.164  1.8281 -0.5581 -1.0257
   8123SM  H13T10763   2.675   4.226   4.152 -0.5755  1.3459  1.5259
   8123SM  C14S10764   2.854   4.271   4.255  0.3127 -0.5533  0.0224
   8123SM  H14S10765   2.865   4.378   4.229 -0.0589 -0.2642  1.0286
   8123SM  H14T10766   2.959   4.236   4.264  0.5983  0.5646  1.2813
   8123SM  C15S10767   2.787   4.256   4.395 -0.1927 -0.8666 -0.0449
   8123SM  H15S10768   2.815   4.154   4.430  3.1245  0.0262  0.2254
   8123SM  H15T10769   2.677   4.265   4.381 -0.0644 -0.7509 -1.0189
   8123SM  C16S10770   2.849   4.356   4.496  0.3873  0.2137 -0.0022
   8123SM  H16S10771   2.766   4.390   4.561 -1.2250 -3.5013  0.0828
   8123SM  H16T10772   2.883   4.452   4.451  1.1393  0.6228  1.3789
   8123SM  C17S10773   2.974   4.303   4.571 -0.2407  0.2626  0.1424
   8123SM  H17S10774   3.020   4.380   4.635  1.1058 -0.1518 -0.2847
   8123SM  H17T10775   3.062   4.281   4.506  1.6771 -1.9545  3.1880
   8123SM  C18S10776   2.947   4.180   4.660  0.1234 -0.2859 -0.1213
   8123SM  H18S10777   2.882   4.216   4.743  0.4860  0.1115 -0.0111
   8123SM  H18T10778   3.041   4.142   4.706 -0.8946 -0.2198  2.1541
   8123SM  H18U10779   2.895   4.093   4.613 -0.0547 -1.8607  2.6875
   8123SM   C1F10780   2.692   3.672   2.870 -0.1154  0.1132 -1.1573
   8123SM    OF10781   2.785   3.708   2.801 -0.7207  0.5771  0.1306
   8123SM   C2F10782   2.665   3.530   2.910 -0.1473 -0.3848  0.2082
   8123SM   H2F10783   2.641   3.477   2.816 -0.3579  2.6882 -1.5947
   8123SM   H2G10784   2.570   3.529   2.968  0.0325  0.7389  0.5462
   8123SM   C3F10785   2.777   3.470   2.994  0.3114 -0.1488  0.0128
   8123SM   H3F10786   2.875   3.476   2.942  1.2185 -0.6922  1.5985
   8123SM   H3G10787   2.749   3.362   2.996  0.0498 -0.1146 -1.0675
   8123SM   C4F10788   2.798   3.539   3.128  0.1579  0.0374  0.0420
   8123SM   H4F10789   2.834   3.644   3.128 -2.9080  1.1905  0.8009
   8123SM   H4G10790   2.876   3.485   3.185 -0.2446 -0.6309 -0.0222
   8123SM   C5F10791   2.676   3.538   3.225  0.3652  0.1795  0.0232
   8123SM   H5F10792   2.627   3.438   3.229  0.0904  0.3372  0.8332
   8123SM   H5G10793   2.596   3.602   3.182 -1.7616 -1.5675  1.1904
   8123SM   C6F10794   2.727   3.574   3.354  0.0349 -0.3767 -0.5389
   8123SM   H6F10795   2.774   3.674   3.345 -1.1276  0.2464  0.0445
   8123SM   H6G10796   2.812   3.506   3.377  0.6116  0.6975  0.6118
   8123SM   C7F10797   2.619   3.595   3.462  0.3644 -0.1138 -0.1384
   8123SM   H7F10798   2.576   3.499   3.500  2.9719 -0.2433  2.9266
   8123SM   H7G10799   2.544   3.657   3.409  1.1661  1.2343  0.2725
   8123SM   C8F10800   2.673   3.658   3.594  0.2052 -0.1236  0.1656
   8123SM   H8F10801   2.700   3.757   3.552  0.6023 -0.5601 -0.6445
   8123SM   H8G10802   2.761   3.603   3.634  1.0544  0.0863 -1.3397
   8123SM   C9F10803   2.572   3.665   3.708 -0.3333 -0.0287  1.0545
   8123SM   H9F10804   2.559   3.559   3.736  0.8530 -0.0521  1.6053
   8123SM   H9G10805   2.484   3.717   3.665  1.1009  0.9748 -0.8864
   8123SM  C10F10806   2.627   3.744   3.825 -0.1794 -0.1025  0.6316
   8123SM  H10F10807   2.647   3.851   3.802  1.0959 -0.7855 -1.7205
   8123SM  H10G10808   2.723   3.698   3.857  1.3919  1.5027 -1.5033
   8123SM  C11F10809   2.539   3.742   3.955 -0.3905 -0.3051  0.5886
   8123SM  H11F10810   2.543   3.637   3.992 -1.5151 -0.0104  1.5960
   8123SM  H11G10811   2.435   3.760   3.921 -1.0142 -0.1069  2.4765
   8123SM  C12F10812   2.588   3.827   4.074  0.3208  0.9209  0.0162
   8123SM  H12F10813   2.602   3.928   4.032 -2.8941  1.4712  0.0513
   8123SM  H12G10814   2.681   3.778   4.111 -1.3947 -2.0758  0.7070
   8123SM  C13F10815   2.496   3.814   4.193 -1.0805 -0.1958  0.2280
   8123SM  H13F10816   2.492   3.709   4.230  2.6197  0.0759  1.7727
   8123SM  H13G10817   2.394   3.843   4.159 -0.2404 -0.1378 -2.3977
   8123SM  C14F10818   2.542   3.903   4.306  0.8282 -0.8451 -0.7413
   8123SM  H14F10819   2.540   4.007   4.266 -1.9531 -0.5343  0.0022
   8123SM  H14G10820   2.650   3.878   4.314  1.0216 -0.1210 -1.0638
   8123SM  C15F10821   2.480   3.881   4.446  0.1077  0.4525  0.3950
   8123SM  H15F10822   2.481   3.773   4.472  0.6128  0.3601  0.0239
   8123SM  H15G10823   2.375   3.916   4.443 -0.0211  0.0320 -1.6622
   8123SM  C16F10824   2.546   3.970   4.549  0.2039  0.5212  0.2342
   8123SM  H16F10825   2.529   4.077   4.522 -2.6530  0.6424  2.0189
   8123SM  H16G10826   2.655   3.950   4.553  0.5864  1.7624 -2.1226
   8123SM  C17F10827   2.489   3.968   4.693 -0.1552 -0.7031 -0.3506
   8123SM  H17F10828   2.390   4.017   4.679  1.2581  1.5095 -4.2180
   8123SM  H17G10829   2.556   4.036   4.750 -0.7928 -1.5076  1.4256
   8123SM  C18F10830   2.464   3.838   4.767 -0.0901 -1.0059 -0.0162
   8123SM  H18F10831   2.559   3.779   4.763  2.0379  2.1884 -0.7364
   8123SM  H18G10832   2.385   3.782   4.714 -1.4601 -1.5849  2.4818
   8123SM  C19F10833   2.414   3.857   4.917  0.1413 -0.0202  0.5478
   8123SM  H19F10834   2.309   3.891   4.905  0.4630  0.2624 -2.3007
   8123SM  H19G10835   2.458   3.934   4.983  2.2979 -0.4685 -0.2733
   8123SM  C20F10836   2.420   3.730   5.007 -0.1272  0.1728 -0.5469
   8123SM  H20F10837   2.398   3.641   4.943  0.4972 -0.2351 -0.2088
   8123SM  H20G10838   2.357   3.734   5.098 -0.0834 -1.3221 -0.4259
   8123SM  C21F10839   2.553   3.703   5.064  0.1727 -0.3010  0.0190
   8123SM  H21F10840   2.564   3.751   5.164 -1.6370 -1.6068  0.8898
   8123SM  H21G10841   2.636   3.729   4.995 -0.3623  2.7474  0.3807
   8123SM  C22F10842   2.571   3.548   5.097 -0.2154  0.2789  0.4283
   8123SM  H22F10843   2.667   3.540   5.152  0.2995  0.7311 -0.3739
   8123SM  H22G10844   2.587   3.500   4.998  0.0249 -0.6637  0.9106
   8123SM  C23F10845   2.463   3.479   5.183 -0.7339  0.6959 -0.4945
   8123SM  H23F10846   2.368   3.520   5.143 -0.0823 -0.0741 -3.0654
   8123SM  H23G10847   2.480   3.501   5.290  0.6613 -0.9847 -0.3371
   8123SM  H23H10848   2.482   3.370   5.172  1.1433  0.8353  0.8671
   8223SM     N10849   3.400   4.912   2.795 -0.0990 -0.6128  0.6798
   8223SM   C1510850   3.378   4.795   2.707  0.8205  0.8110  0.2743
   8223SM  H15A10851   3.413   4.811   2.606  0.4740  0.9223  0.1676
   8223SM  H15B10852   3.271   4.776   2.701  0.6836  1.7413 -0.6976
   8223SM  H15C10853   3.418   4.705   2.749 -1.9944 -0.6135  0.1238
   8223SM   C1410854   3.542   4.942   2.797  0.3202 -0.3173 -0.8036
   8223SM  H14A10855   3.564   5.028   2.859 -0.2443 -1.7390  1.4513
   8223SM  H14B10856   3.589   4.956   2.700 -0.4220  1.0840 -0.9852
   8223SM  H14C10857   3.595   4.861   2.846  0.8502  1.8311  2.5132
   8223SM   C1310858   3.333   5.028   2.727  0.4032  0.3083 -0.0641
   8223SM  H13A10859   3.329   5.111   2.796  0.3674 -0.6936  1.1770
   8223SM  H13B10860   3.229   5.005   2.712  0.4106 -0.3402  0.8053
   8223SM  H13C10861   3.380   5.058   2.635  0.1878  3.0002  0.6360
   8223SM   C1210862   3.358   4.896   2.940 -0.2191 -0.3291  0.2156
   8223SM  H12A10863   3.366   4.989   2.994 -0.2552  0.3523 -0.9227
   8223SM  H12B10864   3.422   4.819   2.981 -0.8844 -0.5531  0.8680
   8223SM   C1110865   3.208   4.854   2.962 -0.6208 -0.5345  0.0316
   8223SM  H11A10866   3.190   4.846   3.071  1.2850 -1.4293  0.3153
   8223SM  H11B10867   3.194   4.753   2.916 -0.4319 -0.1241 -0.9634
   8223SM     P10868   3.079   5.080   2.973 -0.2459 -0.1760 -0.3872
   8223SM   O1310869   3.201   5.155   2.988  0.1670 -0.8117  0.1128
   8223SM   O1410870   2.969   5.135   2.887 -0.0776 -0.9345  0.3628
   8223SM   O1110871   3.013   5.036   3.116 -0.4187  0.3318  0.2348
   8223SM   O1210872   3.111   4.938   2.903  0.1000  0.2533 -0.3168
   8223SM   C1S10873   2.919   4.933   3.115  0.5785 -0.2642  0.6110
   8223SM   H1S10874   2.964   4.839   3.077 -0.2788 -0.7484  0.7721
   8223SM   H1T10875   2.820   4.964   3.075 -0.9397 -2.2160  2.6188
   8223SM    NF10876   2.772   4.789   3.247  0.4546 -0.0769 -0.0883
   8223SM   HNF10877   2.679   4.813   3.272 -0.0430 -0.5423 -1.4232
   8223SM   C2S10878   2.874   4.889   3.259 -0.0979 -0.8165  0.1726
   8223SM   H2S10879   2.964   4.846   3.307  0.6055 -1.2019 -1.4191
   8223SM   C3S10880   2.818   5.013   3.341  0.2719  0.5135  0.2402
   8223SM   H3S10881   2.729   5.045   3.283 -0.7804 -0.2687  1.3709
   8223SM    O310882   2.905   5.123   3.339 -0.0878 -0.4171  0.0077
   8223SM   HO310883   2.964   5.116   3.264  2.0248  0.5785  1.4752
   8223SM   C4S10884   2.787   4.976   3.483  0.4641 -0.0334 -0.1378
   8223SM   H4S10885   2.862   4.911   3.531  1.7833  2.0170  0.7291
   8223SM   C5S10886   2.676   4.998   3.556 -0.1077 -0.6936 -0.1019
   8223SM   H5S10887   2.596   5.050   3.502  0.6602  1.0039  0.3379
   8223SM   C6S10888   2.661   4.945   3.698  0.2484 -0.4103 -0.3658
   8223SM   H6S10889   2.563   4.980   3.735  0.9695  1.4402 -0.1107
   8223SM   H6T10890   2.745   4.986   3.758  1.8636 -1.4234 -1.8156
   8223SM   C7S10891   2.678   4.791   3.718  0.3358 -0.0479 -0.5288
   8223SM   H7S10892   2.781   4.754   3.702  0.5313 -0.8337  2.1073
   8223SM   H7T10893   2.608   4.736   3.651 -3.1552 -0.5761  3.1400
   8223SM   C8S10894   2.643   4.737   3.859 -0.3521 -0.6445  0.5923
   8223SM   H8S10895   2.652   4.627   3.859 -1.6635 -0.7979 -0.9837
   8223SM   H8T10896   2.536   4.756   3.884 -0.5941 -0.9238 -0.2047
   8223SM   C9S10897   2.734   4.802   3.971  0.2857 -0.0893  0.5865
   8223SM   H9S10898   2.711   4.910   3.972 -0.2660 -0.1046 -2.3554
   8223SM   H9T10899   2.843   4.796   3.953  0.6228  0.6411  2.2080
   8223SM  C10S10900   2.697   4.764   4.114 -0.0056 -0.2765 -0.3711
   8223SM  H10S10901   2.721   4.656   4.126  1.9683  0.4021  3.0526
   8223SM  H10T10902   2.587   4.776   4.124  0.1243  2.4734 -1.3288
   8223SM  C11S10903   2.774   4.854   4.214 -0.4507 -0.3747  0.0114
   8223SM  H11S10904   2.733   4.957   4.225  2.2312  0.6236  1.3601
   8223SM  H11T10905   2.883   4.868   4.197 -0.5636 -0.4193 -0.7783
   8223SM  C12S10906   2.766   4.788   4.349 -0.0136  0.4985 -0.2280
   8223SM  H12S10907   2.818   4.689   4.351 -0.6233  0.1181  3.2639
   8223SM  H12T10908   2.661   4.767   4.377 -0.1917  0.7218 -0.7249
   8223SM  C13S10909   2.837   4.879   4.446 -0.4343  0.0128  0.0111
   8223SM  H13S10910   2.825   4.988   4.427  1.2201 -0.0288 -1.4324
   8223SM  H13T10911   2.946   4.865   4.431 -0.5141 -0.8628  0.1865
   8223SM  C14S10912   2.811   4.851   4.599  0.2496 -0.0420  0.8559
   8223SM  H14S10913   2.707   4.864   4.636  0.9472  1.4890  2.4120
   8223SM  H14T10914   2.871   4.923   4.659  0.8430  0.1575  0.0289
   8223SM  C15S10915   2.852   4.716   4.651 -0.1512 -0.1740  0.2994
   8223SM  H15S10916   2.958   4.689   4.635  0.2632  2.4193 -2.0855
   8223SM  H15T10917   2.793   4.632   4.609 -1.1473 -0.3762  2.0066
   8223SM  C16S10918   2.835   4.723   4.803 -0.0771  0.3004  0.0893
   8223SM  H16S10919   2.727   4.745   4.822 -0.7988 -0.1445 -2.8840
   8223SM  H16T10920   2.887   4.812   4.844  2.8283 -1.6789  0.9476
   8223SM  C17S10921   2.879   4.603   4.882 -0.5538  0.2391  0.4870
   8223SM  H17S10922   2.821   4.514   4.850  0.1292 -0.4482  1.1191
   8223SM  H17T10923   2.853   4.620   4.988 -1.4816 -1.2434  0.5246
   8223SM  C18S10924   3.026   4.570   4.862  0.0511  0.0218  0.0824
   8223SM  H18S10925   3.047   4.483   4.928 -0.2672 -0.2088 -0.1177
   8223SM  H18T10926   3.098   4.649   4.893  2.2509 -0.4989 -3.2617
   8223SM  H18U10927   3.061   4.540   4.761 -0.7471 -0.2197 -0.1302
   8223SM   C1F10928   2.794   4.662   3.218  1.0332  0.3679  0.3147
   8223SM    OF10929   2.902   4.610   3.228 -0.2543  0.5207  0.6315
   8223SM   C2F10930   2.674   4.582   3.170  0.3517  0.1177  0.3138
   8223SM   H2F10931   2.705   4.541   3.072  1.3548  2.0180 -0.2303
   8223SM   H2G10932   2.578   4.638   3.162 -0.2661 -1.2036 -3.1693
   8223SM   C3F10933   2.654   4.470   3.275  0.0339  0.0615  0.2896
   8223SM   H3F10934   2.746   4.418   3.309  0.8694  1.5625  0.4249
   8223SM   H3G10935   2.572   4.410   3.231 -0.3948  0.8643 -0.0212
   8223SM   C4F10936   2.580   4.514   3.406 -0.6595 -0.1639  0.1161
   8223SM   H4F10937   2.498   4.588   3.391  1.0819  1.4674 -1.7746
   8223SM   H4G10938   2.656   4.571   3.464 -2.5819  2.7916 -0.0468
   8223SM   C5F10939   2.526   4.393   3.491  0.7025  1.0150 -0.4192
   8223SM   H5F10940   2.612   4.323   3.492  0.5197  0.7260 -1.8589
   8223SM   H5G10941   2.434   4.341   3.457  1.0577 -0.6932  1.1159
   8223SM   C6F10942   2.518   4.458   3.637  0.4313  0.7328  0.5678
   8223SM   H6F10943   2.444   4.538   3.618  0.4347  0.4136 -0.8976
   8223SM   H6G10944   2.610   4.513   3.666  0.0676  1.8586 -0.3713
   8223SM   C7F10945   2.465   4.366   3.745  0.0585  0.1310 -0.2222
   8223SM   H7F10946   2.522   4.271   3.759  0.5655  0.1990 -1.6740
   8223SM   H7G10947   2.361   4.336   3.722 -0.7276  2.0747  0.6152
   8223SM   C8F10948   2.473   4.427   3.889  0.2995  0.1342  0.2138
   8223SM   H8F10949   2.435   4.531   3.883  2.6435  1.0033 -0.9440
   8223SM   H8G10950   2.581   4.435   3.912  0.7665 -1.6896 -1.1208
   8223SM   C9F10951   2.404   4.350   3.998 -0.1445  0.6886 -0.2074
   8223SM   H9F10952   2.450   4.249   4.007 -1.0924  0.1653 -1.0336
   8223SM   H9G10953   2.301   4.321   3.969  0.5693 -3.3252  0.7119
   8223SM  C10F10954   2.408   4.413   4.138  0.2281 -0.5884 -0.4162
   8223SM  H10F10955   2.351   4.508   4.148 -0.7600 -1.2284  0.1800
   8223SM  H10G10956   2.516   4.436   4.146 -0.0918  0.5299  1.0764
   8223SM  C11F10957   2.365   4.324   4.249 -0.3082  0.1683  1.1423
   8223SM  H11F10958   2.430   4.234   4.261 -0.3638  0.2135  1.8183
   8223SM  H11G10959   2.260   4.288   4.238  0.1855 -1.4418  1.3338
   8223SM  C12F10960   2.353   4.400   4.377  0.3220  0.0231  0.5881
   8223SM  H12F10961   2.282   4.486   4.372 -0.8141 -0.9559 -1.0315
   8223SM  H12G10962   2.447   4.453   4.402 -0.7278  1.3640  1.9460
   8223SM  C13F10963   2.314   4.315   4.496  0.2850  0.4320  0.1876
   8223SM  H13F10964   2.338   4.210   4.469  4.2726  0.6604  2.1154
   8223SM  H13G10965   2.204   4.316   4.511  0.3076  0.6691  0.3483
   8223SM  C14F10966   2.379   4.356   4.631 -0.0031  0.0306  0.1182
   8223SM  H14F10967   2.489   4.354   4.614 -0.0278  0.0903 -0.0539
   8223SM  H14G10968   2.363   4.277   4.707  0.6553 -0.8981 -0.6828
   8223SM  C15F10969   2.341   4.494   4.692  0.0009  0.0593  0.2065
   8223SM  H15F10970   2.233   4.488   4.719 -0.1761  0.4033 -0.4063
   8223SM  H15G10971   2.361   4.579   4.624 -0.0357  1.5109  1.9237
   8223SM  C16F10972   2.421   4.516   4.819 -0.1023 -0.2033 -0.3210
   8223SM  H16F10973   2.527   4.499   4.791 -0.2512 -0.8702 -0.4847
   8223SM  H16G10974   2.386   4.455   4.905 -3.3531  0.2350 -1.1921
   8223SM  C17F10975   2.411   4.663   4.870  0.1274  0.2500  0.7199
   8223SM  H17F10976   2.308   4.699   4.889  0.1470  1.0640 -0.5899
   8223SM  H17G10977   2.456   4.719   4.785  1.5156 -2.3104 -0.3643
   8223SM  C18F10978   2.475   4.678   5.009  0.8091  0.4793 -0.4968
   8223SM  H18F10979   2.580   4.642   5.003 -0.2333 -2.8600 -0.6897
   8223SM  H18G10980   2.426   4.607   5.079  0.8432  0.6241 -0.3275
   8223SM  C19F10981   2.450   4.818   5.062  0.2294 -0.7670  0.3339
   8223SM  H19F10982   2.346   4.852   5.041  1.0598  2.4359  0.9082
   8223SM  H19G10983   2.516   4.893   5.015 -1.2491  0.6507  0.4391
   8223SM  C20F10984   2.463   4.827   5.214 -0.2750 -0.7636  0.1892
   8223SM  H20F10985   2.564   4.858   5.247 -0.7096  0.2822  0.5870
   8223SM  H20G10986   2.436   4.729   5.258  1.4067 -0.8323  1.1394
   8223SM  C21F10987   2.358   4.923   5.273  0.1755  0.2164 -0.7445
   8223SM  H21F10988   2.260   4.881   5.241  0.0030 -0.6630  0.8706
   8223SM  H21G10989   2.371   5.026   5.235 -0.6948  0.3889 -0.6096
   8223SM  C22F10990   2.347   4.922   5.425 -0.3238 -0.0502 -0.3338
   8223SM  H22F10991   2.348   4.818   5.463 -0.9793  0.0887  0.0608
   8223SM  H22G10992   2.246   4.956   5.455  0.0044  1.0109 -0.3852
   8223SM  C23F10993   2.440   5.017   5.494  0.1462  0.5928  0.0767
   8223SM  H23F10994   2.420   5.113   5.442 -1.5680 -0.8104 -2.0288
   8223SM  H23G10995   2.551   5.005   5.491  0.0246 -0.5478 -0.5400
   8223SM  H23H10996   2.411   5.043   5.598  2.2232  0.1689  0.8301
   8323SM     N10997   1.996   2.699   2.248  0.0351  0.3483 -0.0606
   8323SM   C1510998   2.006   2.542   2.252  0.7360  0.0815 -0.2566
   8323SM  H15A10999   2.096   2.498   2.291  1.1809 -0.5558 -1.9137
   8323SM  H15B11000   2.003   2.512   2.148 -0.5552 -1.8958  0.3132
   8323SM  H15C11001   1.920   2.508   2.308  0.7884  0.0540 -0.1933
   8323SM   C1411002   1.870   2.745   2.175 -0.4014  0.4884 -0.2709
   8323SM  H14A11003   1.855   2.698   2.078 -1.9632  0.9593 -0.2771
   8323SM  H14B11004   1.865   2.852   2.163  0.3464  0.4501 -1.0654
   8323SM  H14C11005   1.782   2.727   2.235  0.9073 -1.7488  1.1126
   8323SM   C1311006   1.987   2.747   2.386  0.4575  0.5892  0.0675
   8323SM  H13A11007   1.976   2.855   2.390 -0.0549  0.5242  0.5108
   8323SM  H13B11008   2.077   2.730   2.442  2.2138 -1.1713 -3.0090
   8323SM  H13C11009   1.895   2.706   2.425  0.2180 -0.9540 -1.9587
   8323SM   C1211010   2.114   2.757   2.183 -0.0417  0.0007  0.1006
   8323SM  H12A11011   2.089   2.861   2.168 -3.3008 -0.6167  0.3281
   8323SM  H12B11012   2.121   2.705   2.088  2.6976  0.0155  0.2382
   8323SM   C1111013   2.252   2.744   2.255  0.0105 -0.1891  0.8528
   8323SM  H11A11014   2.333   2.744   2.179 -1.0947 -1.3780 -0.3841
   8323SM  H11B11015   2.263   2.640   2.292 -0.1957 -0.4770  0.1237
   8323SM     P11016   2.280   2.986   2.374  0.3320  0.0850 -0.5497
   8323SM   O1311017   2.366   3.031   2.265  0.0473  0.5131 -0.2456
   8323SM   O1411018   2.142   3.035   2.374 -0.4179 -0.1687  0.6636
   8323SM   O1111019   2.349   3.004   2.519  0.0233 -0.2663  0.1989
   8323SM   O1211020   2.273   2.831   2.364 -0.0327 -0.3034 -0.7254
   8323SM   C1S11021   2.277   2.959   2.629 -0.7108  0.6106 -0.3093
   8323SM   H1S11022   2.296   2.850   2.639  0.4587  0.8981  0.8477
   8323SM   H1T11023   2.169   2.986   2.620 -0.7528  0.0395 -1.7158
   8323SM    NF11024   2.268   2.962   2.879  0.3559  0.6510  0.6943
   8323SM   HNF11025   2.211   3.019   2.937 -0.9339 -1.0177  1.1166
   8323SM   C2S11026   2.320   3.026   2.761 -0.5184 -0.1622 -0.1175
   8323SM   H2S11027   2.430   3.017   2.758 -0.4993 -0.6220  1.1750
   8323SM   C3S11028   2.286   3.178   2.749  0.0125  0.8252  0.5633
   8323SM   H3S11029   2.176   3.184   2.740  0.2332  1.7054 -3.8622
   8323SM    O311030   2.333   3.254   2.635  0.2619  0.1693  0.0625
   8323SM   HO311031   2.348   3.184   2.571 -0.0198 -1.4909  1.7162
   8323SM   C4S11032   2.327   3.246   2.877  0.2941  0.2064 -0.3648
   8323SM   H4S11033   2.430   3.216   2.901  0.4509 -0.0386 -1.2664
   8323SM   C5S11034   2.261   3.326   2.956  0.0155  0.4730  0.4435
   8323SM   H5S11035   2.154   3.344   2.936  0.4167  2.0912 -0.3667
   8323SM   C6S11036   2.304   3.386   3.085 -0.0760  0.0211  0.9001
   8323SM   H6S11037   2.314   3.495   3.062  5.4706  0.1461  2.3749
   8323SM   H6T11038   2.409   3.354   3.101 -0.4353 -1.4490  0.4607
   8323SM   C7S11039   2.206   3.361   3.199  0.3899 -0.4260 -0.2472
   8323SM   H7S11040   2.180   3.254   3.213  0.4870 -0.2111  1.9296
   8323SM   H7T11041   2.108   3.404   3.169  1.5181  1.1217 -1.8997
   8323SM   C8S11042   2.253   3.442   3.320 -0.0299  0.1059 -0.4744
   8323SM   H8S11043   2.186   3.530   3.325  0.2606  0.3061 -0.0033
   8323SM   H8T11044   2.358   3.478   3.317  0.0630 -0.2007 -1.8956
   8323SM   C9S11045   2.231   3.369   3.451 -0.1658  0.0671 -0.7563
   8323SM   H9S11046   2.294   3.279   3.470 -1.2973 -0.3719  1.2373
   8323SM   H9T11047   2.122   3.346   3.447 -0.1102 -1.0600  1.6795
   8323SM  C10S11048   2.244   3.466   3.568  0.6002  0.7227 -0.7469
   8323SM  H10S11049   2.169   3.546   3.553  0.3822  0.2628 -2.3441
   8323SM  H10T11050   2.340   3.523   3.571  0.2954  1.2019  0.6995
   8323SM  C11S11051   2.231   3.395   3.706 -0.3025 -0.0658 -0.1008
   8323SM  H11S11052   2.317   3.325   3.712 -0.5117 -0.2750  0.5410
   8323SM  H11T11053   2.145   3.326   3.691  0.3576 -0.7568 -0.8140
   8323SM  C12S11054   2.225   3.494   3.820 -0.6194 -0.6319  1.1728
   8323SM  H12S11055   2.133   3.556   3.829 -0.0191  0.8733 -1.8925
   8323SM  H12T11056   2.305   3.570   3.808 -1.5405  0.7390  3.1454
   8323SM  C13S11057   2.254   3.427   3.952  0.0478  0.0894  0.2868
   8323SM  H13S11058   2.353   3.377   3.949 -0.1604 -0.3006 -0.2200
   8323SM  H13T11059   2.178   3.349   3.974 -0.5352  1.1180  2.1632
   8323SM  C14S11060   2.233   3.522   4.066 -0.6628 -0.2672  0.0874
   8323SM  H14S11061   2.134   3.570   4.054 -1.3342 -0.8795  2.6177
   8323SM  H14T11062   2.310   3.603   4.062  0.4046 -1.2790 -0.5175
   8323SM  C15S11063   2.241   3.465   4.215  0.3130 -0.6715 -0.1859
   8323SM  H15S11064   2.340   3.415   4.225  1.2714  0.9273 -1.2711
   8323SM  H15T11065   2.157   3.393   4.231 -0.0961  0.1881  1.7415
   8323SM  C16S11066   2.229   3.567   4.318  0.0959  0.7219 -0.7770
   8323SM  H16S11067   2.128   3.612   4.310  0.0139  0.1481 -4.4228
   8323SM  H16T11068   2.313   3.639   4.312  0.4101  0.1995 -3.4147
   8323SM  C17S11069   2.222   3.513   4.466 -0.2033  0.3227 -0.3429
   8323SM  H17S11070   2.315   3.460   4.495  2.0648  2.8788 -2.4094
   8323SM  H17T11071   2.141   3.438   4.481 -0.6528  1.2223  2.2210
   8323SM  C18S11072   2.207   3.619   4.569  0.1534  0.0313 -0.4254
   8323SM  H18S11073   2.113   3.677   4.557  0.1387  0.0661 -0.1346
   8323SM  H18T11074   2.288   3.695   4.561  1.9802 -1.8089 -0.2693
   8323SM  H18U11075   2.200   3.576   4.671 -0.0784 -1.9560 -1.2265
   8323SM   C1F11076   2.308   2.840   2.911  0.1706  0.1229 -0.5971
   8323SM    OF11077   2.400   2.788   2.856  0.4961 -0.5102 -0.1789
   8323SM   C2F11078   2.228   2.756   3.015  0.2281 -0.3220 -0.5671
   8323SM   H2F11079   2.185   2.666   2.966  0.1081 -0.3865 -0.3457
   8323SM   H2G11080   2.144   2.820   3.050  0.1983  0.5702 -2.1761
   8323SM   C3F11081   2.314   2.728   3.143  0.2976 -1.1311 -0.7361
   8323SM   H3F11082   2.406   2.677   3.107 -0.1570 -2.1488 -0.4889
   8323SM   H3G11083   2.258   2.657   3.207  1.3220 -2.0791 -0.8560
   8323SM   C4F11084   2.344   2.850   3.231 -0.2669 -0.5055  0.2733
   8323SM   H4F11085   2.398   2.925   3.170 -0.5863 -0.7652 -0.3347
   8323SM   H4G11086   2.416   2.819   3.311  1.4912 -0.2774 -1.1614
   8323SM   C5F11087   2.226   2.901   3.313  0.0364 -0.2872 -0.3221
   8323SM   H5F11088   2.169   2.819   3.361  1.3624  0.0519  2.0325
   8323SM   H5G11089   2.155   2.946   3.241  0.6924  0.0069 -0.7931
   8323SM   C6F11090   2.269   3.003   3.417  0.6160  0.0523  0.0268
   8323SM   H6F11091   2.188   3.073   3.449 -0.0270 -0.7899  0.2989
   8323SM   H6G11092   2.356   3.059   3.376  2.0775 -0.5607  2.1424
   8323SM   C7F11093   2.322   2.937   3.545  0.0541 -0.5572  0.2021
   8323SM   H7F11094   2.417   2.883   3.526  2.0854  2.5162  0.9768
   8323SM   H7G11095   2.250   2.856   3.569  0.4171 -0.8506  0.3113
   8323SM   C8F11096   2.321   3.034   3.660 -0.7357  0.4425 -0.0144
   8323SM   H8F11097   2.241   3.111   3.648 -0.3307  0.5663 -2.3664
   8323SM   H8G11098   2.415   3.092   3.666 -0.8410  0.5827  0.2899
   8323SM   C9F11099   2.307   2.966   3.799 -0.1801 -0.0462 -0.1621
   8323SM   H9F11100   2.404   2.914   3.813 -1.0246 -1.6656 -0.0123
   8323SM   H9G11101   2.233   2.883   3.805  0.6425 -0.9386 -1.7971
   8323SM  C10F11102   2.291   3.070   3.912  1.3079  0.3406  0.7438
   8323SM  H10F11103   2.202   3.130   3.885  1.3828  0.5501  0.9639
   8323SM  H10G11104   2.372   3.146   3.908  2.3727 -0.6404  2.5242
   8323SM  C11F11105   2.291   3.009   4.051  0.4742  0.0077  0.2011
   8323SM  H11F11106   2.382   2.947   4.070  0.3355 -0.7695 -1.4451
   8323SM  H11G11107   2.211   2.935   4.076  1.0764 -0.9621 -0.6450
   8323SM  C12F11108   2.290   3.122   4.153 -0.0877  0.4514 -0.4022
   8323SM  H12F11109   2.205   3.185   4.117 -0.9234 -1.4377 -1.9467
   8323SM  H12G11110   2.383   3.181   4.158  0.9033 -1.1974  2.4612
   8323SM  C13F11111   2.271   3.068   4.297 -0.9613  0.5627 -0.1163
   8323SM  H13F11112   2.342   2.986   4.322  1.1555  2.2581 -0.3492
   8323SM  H13G11113   2.174   3.016   4.317  0.6722 -2.6048  0.2628
   8323SM  C14F11114   2.270   3.182   4.403 -0.3121  0.2787 -0.4359
   8323SM  H14F11115   2.191   3.255   4.375  0.8304  1.3983 -0.8394
   8323SM  H14G11116   2.361   3.244   4.411 -0.0845  0.0490 -1.2002
   8323SM  C15F11117   2.245   3.133   4.545  0.3404 -0.0725 -0.3058
   8323SM  H15F11118   2.290   3.206   4.616  1.0306 -2.2639  1.6145
   8323SM  H15G11119   2.296   3.035   4.557 -0.1425 -0.4077 -0.9149
   8323SM  C16F11120   2.095   3.115   4.588 -0.7556  0.3044 -0.2361
   8323SM  H16F11121   2.063   3.028   4.528 -0.7653 -1.7298  2.5126
   8323SM  H16G11122   2.035   3.205   4.564 -0.5136  0.7369  0.7173
   8323SM  C17F11123   2.075   3.092   4.741 -0.0667  0.2334  0.1361
   8323SM  H17F11124   1.969   3.061   4.751  0.0059 -0.3653 -0.8710
   8323SM  H17G11125   2.097   3.186   4.797  0.2263  2.4890 -3.4462
   8323SM  C18F11126   2.160   2.975   4.791  0.5294 -0.0960 -0.3451
   8323SM  H18F11127   2.268   2.998   4.780 -0.4342  3.9111 -4.3107
   8323SM  H18G11128   2.131   2.881   4.740  0.1035 -0.1307 -0.0479
   8323SM  C19F11129   2.150   2.955   4.944  0.4889  0.0750  0.2033
   8323SM  H19F11130   2.043   2.940   4.971  0.2965 -0.1508 -0.6574
   8323SM  H19G11131   2.176   3.048   5.000 -0.7925  0.0349  0.9147
   8323SM  C20F11132   2.223   2.832   4.997  0.9217 -0.2462 -0.4979
   8323SM  H20F11133   2.208   2.741   4.936  0.3809  1.8228 -3.6846
   8323SM  H20G11134   2.186   2.810   5.100 -0.5248 -0.8438 -1.1284
   8323SM  C21F11135   2.380   2.854   5.016  0.5772  0.4024  0.2505
   8323SM  H21F11136   2.418   2.873   4.913 -1.2947 -1.2027 -0.8030
   8323SM  H21G11137   2.425   2.762   5.060 -2.2861 -1.3172 -0.1939
   8323SM  C22F11138   2.414   2.969   5.109 -0.6783  0.0650  0.8691
   8323SM  H22F11139   2.354   2.950   5.200 -1.2291  0.5521  0.6184
   8323SM  H22G11140   2.383   3.059   5.052  0.3803 -1.4302 -2.3730
   8323SM  C23F11141   2.560   2.986   5.146 -0.1121  0.8354  0.1324
   8323SM  H23F11142   2.621   3.004   5.055  0.1971  2.0147  0.5495
   8323SM  H23G11143   2.599   2.900   5.205 -1.1929  1.1448  1.3496
   8323SM  H23H11144   2.562   3.072   5.216 -1.2573  1.4656 -0.5849
   8423SM     N11145   3.371   1.950   2.101 -1.1310 -0.0067 -0.0970
   8423SM   C1511146   3.437   2.068   2.035  0.2531  0.0110 -0.0709
   8423SM  H15A11147   3.439   2.162   2.087  0.5157 -0.3096  0.5145
   8423SM  H15B11148   3.384   2.086   1.943 -2.6525 -1.7557  1.1202
   8423SM  H15C11149   3.543   2.048   2.026 -0.1734 -1.6093 -2.6093
   8423SM   C1411150   3.230   1.954   2.066  0.5484 -0.5706  0.1259
   8423SM  H14A11151   3.212   1.943   1.960  0.3323  0.3684  0.0610
   8423SM  H14B11152   3.191   2.049   2.099  1.7642  0.5450 -1.4740
   8423SM  H14C11153   3.182   1.875   2.121 -2.3234  0.3859 -0.8169
   8423SM   C1311154   3.428   1.830   2.034 -0.3246 -0.4467  0.7450
   8423SM  H13A11155   3.413   1.841   1.928  0.4129  1.9096  0.8336
   8423SM  H13B11156   3.386   1.733   2.055 -0.9734 -0.3314  0.0392
   8423SM  H13C11157   3.536   1.824   2.038 -0.2516 -1.5780 -1.3645
   8423SM   C1211158   3.397   1.957   2.248 -0.2867  0.1353  0.3041
   8423SM  H12A11159   3.504   1.942   2.256 -0.7291 -2.7544  2.8697
   8423SM  H12B11160   3.339   1.876   2.290 -2.6870  1.0869 -0.9585
   8423SM   C1111161   3.366   2.081   2.332  0.5066  0.4689 -0.8679
   8423SM  H11A11162   3.425   2.169   2.301  1.6530 -0.1384 -0.4806
   8423SM  H11B11163   3.383   2.045   2.436  0.5346 -0.4611 -1.1890
   8423SM     P11164   3.110   2.007   2.387 -0.2288 -0.0731 -0.0047
   8423SM   O1311165   2.978   2.022   2.320 -0.4680  0.6790 -0.0668
   8423SM   O1411166   3.165   1.870   2.397  0.1192  0.1717 -0.3883
   8423SM   O1111167   3.105   2.064   2.534  0.2190 -0.1150  0.4526
   8423SM   O1211168   3.217   2.105   2.321 -0.8001  0.1330 -0.1561
   8423SM   C1S11169   3.105   2.205   2.559 -0.6513 -0.1173 -0.3950
   8423SM   H1S11170   3.005   2.242   2.528 -0.4822 -0.4624 -1.3870
   8423SM   H1T11171   3.190   2.252   2.506  1.9109 -2.5364  1.2653
   8423SM    NF11172   3.050   2.339   2.769  0.8608  0.0719 -0.3528
   8423SM   HNF11173   3.103   2.416   2.804  0.2467  0.5807 -0.5228
   8423SM   C2S11174   3.116   2.222   2.708  0.4168  0.2897 -0.6760
   8423SM   H2S11175   3.071   2.133   2.756  0.9601 -0.6742 -1.9162
   8423SM   C3S11176   3.271   2.208   2.749 -0.7858 -0.0535  0.5249
   8423SM   H3S11177   3.325   2.292   2.699 -0.5882 -0.8204 -0.5669
   8423SM    O311178   3.335   2.087   2.702 -0.1544 -0.2934  0.4052
   8423SM   HO311179   3.277   2.045   2.638  0.6984  0.7745 -1.1330
   8423SM   C4S11180   3.292   2.223   2.901  0.3507  0.4974  0.8822
   8423SM   H4S11181   3.236   2.147   2.958  0.3185 -0.5681 -0.5105
   8423SM   C5S11182   3.350   2.323   2.977  0.8462  0.5259  0.1284
   8423SM   H5S11183   3.372   2.410   2.914 -0.5272  0.5105 -0.4063
   8423SM   C6S11184   3.376   2.315   3.125  0.0385  0.5000 -0.2506
   8423SM   H6S11185   3.468   2.369   3.157 -0.0638  0.5630 -0.0630
   8423SM   H6T11186   3.372   2.211   3.165 -1.7635  0.3204 -0.8248
   8423SM   C7S11187   3.266   2.397   3.201  0.6057  0.1840  0.1424
   8423SM   H7S11188   3.164   2.385   3.159  0.0360  1.8565  0.9607
   8423SM   H7T11189   3.297   2.503   3.192  1.4091 -0.0512  0.0873
   8423SM   C8S11190   3.282   2.355   3.350 -0.7655  0.0605  0.1590
   8423SM   H8S11191   3.388   2.369   3.378 -1.1481  5.8636 -0.0838
   8423SM   H8T11192   3.240   2.254   3.373 -1.3690  0.4793  0.9128
   8423SM   C9S11193   3.219   2.459   3.443  0.2407  0.2875  0.2225
   8423SM   H9S11194   3.118   2.467   3.398  0.0499 -2.4953 -0.0285
   8423SM   H9T11195   3.264   2.559   3.429  0.3995  0.6773  3.0592
   8423SM  C10S11196   3.226   2.433   3.588  0.0651 -0.3277  0.5433
   8423SM  H10S11197   3.334   2.437   3.612  0.4702 -1.0792 -1.0167
   8423SM  H10T11198   3.188   2.330   3.598 -1.4593  0.1398 -0.1473
   8423SM  C11S11199   3.154   2.540   3.669 -1.0807  0.3611 -0.1133
   8423SM  H11S11200   3.046   2.527   3.646 -1.6086  0.4343  2.0468
   8423SM  H11T11201   3.188   2.641   3.637  0.7462 -0.5421 -1.1968
   8423SM  C12S11202   3.188   2.520   3.822 -0.5428 -0.1734  0.8813
   8423SM  H12S11203   3.137   2.605   3.874  1.0598  0.5499  1.3592
   8423SM  H12T11204   3.298   2.535   3.831 -0.5350  2.3777 -1.8416
   8423SM  C13S11205   3.140   2.402   3.887  0.2163 -0.0922  0.0306
   8423SM  H13S11206   3.171   2.313   3.829  1.7601  0.6537 -0.3468
   8423SM  H13T11207   3.029   2.412   3.888  0.3906  2.7870  0.7653
   8423SM  C14S11208   3.185   2.382   4.032  0.5659  0.6608  0.6689
   8423SM  H14S11209   3.296   2.387   4.030  0.5519  0.9063 -0.8728
   8423SM  H14T11210   3.155   2.276   4.047 -1.2064  1.0806  0.2694
   8423SM  C15S11211   3.124   2.479   4.138 -0.4758  0.2330  0.0861
   8423SM  H15S11212   3.013   2.473   4.133 -0.5834  1.3387  0.8659
   8423SM  H15T11213   3.164   2.582   4.122 -3.1378  1.0095 -2.3623
   8423SM  C16S11214   3.168   2.423   4.279  0.0134 -0.2892 -0.0040
   8423SM  H16S11215   3.278   2.426   4.295 -0.2235 -0.1401  1.8414
   8423SM  H16T11216   3.148   2.314   4.284  0.9867 -0.4644  0.3361
   8423SM  C17S11217   3.084   2.489   4.385  0.3092  0.0742 -0.2817
   8423SM  H17S11218   3.103   2.425   4.473  1.0884  0.4703 -0.1594
   8423SM  H17T11219   2.975   2.483   4.362 -0.0304 -1.2290  1.4347
   8423SM  C18S11220   3.130   2.628   4.422  0.5628  0.5191 -0.4801
   8423SM  H18S11221   3.235   2.606   4.450  0.5926  0.6944 -0.4553
   8423SM  H18T11222   3.068   2.676   4.501  0.7307  0.8584 -0.5519
   8423SM  H18U11223   3.139   2.695   4.334  1.9172 -0.5504 -1.1911
   8423SM   C1F11224   2.919   2.365   2.757 -0.1965  0.0314  0.4890
   8423SM    OF11225   2.843   2.278   2.716  0.5922 -0.8247 -0.4066
   8423SM   C2F11226   2.868   2.499   2.762  0.2085 -0.2660  0.0771
   8423SM   H2F11227   2.820   2.523   2.665 -1.5704 -0.3029  0.9122
   8423SM   H2G11228   2.938   2.586   2.770  0.4167 -0.2292 -1.8120
   8423SM   C3F11229   2.757   2.504   2.874 -0.2260  0.2143 -0.2950
   8423SM   H3F11230   2.666   2.441   2.860 -0.1046  0.0178 -0.2036
   8423SM   H3G11231   2.712   2.605   2.862 -1.9875 -0.3600  1.0386
   8423SM   C4F11232   2.812   2.485   3.014 -0.0012 -0.3574 -0.7185
   8423SM   H4F11233   2.892   2.562   3.023 -0.7417  0.3767 -0.2053
   8423SM   H4G11234   2.855   2.383   3.018  0.3313 -0.2226 -0.7936
   8423SM   C5F11235   2.693   2.494   3.112  0.3960  0.8343 -0.2458
   8423SM   H5F11236   2.622   2.410   3.092  2.3621 -0.9687 -0.0396
   8423SM   H5G11237   2.646   2.593   3.094 -0.0478  0.7008  0.1337
   8423SM   C6F11238   2.738   2.467   3.257  0.3512 -0.4479  0.5467
   8423SM   H6F11239   2.780   2.365   3.261  0.5769 -0.3770  0.1060
   8423SM   H6G11240   2.646   2.459   3.318 -0.8135 -0.5291 -1.1584
   8423SM   C7F11241   2.827   2.570   3.309  0.4177  0.6277  0.4754
   8423SM   H7F11242   2.852   2.643   3.228  0.4671  0.0777 -0.0161
   8423SM   H7G11243   2.918   2.506   3.318 -0.1275 -0.4509 -1.1336
   8423SM   C8F11244   2.786   2.642   3.430 -0.1982 -0.9859 -0.1014
   8423SM   H8F11245   2.790   2.566   3.511 -0.0433 -2.5267 -1.5051
   8423SM   H8G11246   2.683   2.686   3.427  0.8956  2.2565  2.8247
   8423SM   C9F11247   2.875   2.754   3.473 -0.2045 -0.3278  0.7124
   8423SM   H9F11248   2.876   2.828   3.390 -2.4977  1.0334  1.7967
   8423SM   H9G11249   2.980   2.718   3.480  0.3865  0.9278 -0.8949
   8423SM  C10F11250   2.834   2.826   3.603  0.5119 -0.2051  0.3736
   8423SM  H10F11251   2.727   2.802   3.621  0.2318  0.8081  0.1280
   8423SM  H10G11252   2.838   2.937   3.605 -0.9181 -0.1410  0.5741
   8423SM  C11F11253   2.931   2.786   3.723 -0.3122 -0.1510 -0.0741
   8423SM  H11F11254   3.039   2.798   3.699 -0.3682  0.5423 -0.0043
   8423SM  H11G11255   2.912   2.679   3.744  0.1303 -0.1871  0.1479
   8423SM  C12F11256   2.895   2.872   3.846 -0.3417  0.9025 -0.6732
   8423SM  H12F11257   2.786   2.888   3.859 -0.3071 -0.6080  2.0966
   8423SM  H12G11258   2.948   2.970   3.842 -0.1384  0.8386  0.2453
   8423SM  C13F11259   2.945   2.811   3.984 -0.2338  0.0920 -0.7240
   8423SM  H13F11260   3.054   2.789   3.980 -0.3678 -0.4574 -2.2542
   8423SM  H13G11261   2.893   2.713   3.981 -1.2963  0.4901  2.1024
   8423SM  C14F11262   2.916   2.894   4.104  0.2368 -0.7430  0.5151
   8423SM  H14F11263   2.942   3.001   4.096  3.7806 -1.3426  2.1676
   8423SM  H14G11264   2.985   2.856   4.182  0.0437 -0.7574  0.6797
   8423SM  C15F11265   2.760   2.887   4.143  0.1910 -0.3123  0.6029
   8423SM  H15F11266   2.699   2.821   4.077 -1.9794  2.2139 -0.1218
   8423SM  H15G11267   2.718   2.990   4.141 -0.1040 -0.4274 -1.8152
   8423SM  C16F11268   2.751   2.833   4.285 -0.4503  0.1094 -0.3054
   8423SM  H16F11269   2.815   2.901   4.346  0.9187  0.5912 -2.1885
   8423SM  H16G11270   2.806   2.736   4.296  0.8923  0.8314 -0.4095
   8423SM  C17F11271   2.611   2.844   4.343  0.7901 -0.5195  0.5296
   8423SM  H17F11272   2.542   2.760   4.317  1.0532 -0.3538 -0.7654
   8423SM  H17G11273   2.566   2.936   4.299  1.4140 -0.2755  0.3892
   8423SM  C18F11274   2.615   2.861   4.499  0.1433  0.4404  0.8826
   8423SM  H18F11275   2.682   2.787   4.547 -1.6783 -2.7467 -1.0737
   8423SM  H18G11276   2.510   2.853   4.535 -0.2962 -0.4468 -0.5156
   8423SM  C19F11277   2.652   3.003   4.546 -0.6049 -0.2572  0.3472
   8423SM  H19F11278   2.620   3.077   4.470 -0.8859 -1.6065 -0.8853
   8423SM  H19G11279   2.763   3.015   4.547 -0.7002  1.0199 -1.0722
   8423SM  C20F11280   2.599   3.049   4.682  0.2944 -0.0078  0.7878
   8423SM  H20F11281   2.653   2.999   4.766  0.3051  0.3739  1.0115
   8423SM  H20G11282   2.496   3.007   4.694  1.3981 -3.4501 -0.5096
   8423SM  C21F11283   2.585   3.198   4.699  0.4300 -0.1656  0.7159
   8423SM  H21F11284   2.519   3.238   4.619 -2.2462 -2.7468  1.4621
   8423SM  H21G11285   2.690   3.231   4.685  0.1778  1.0885  1.6600
   8423SM  C22F11286   2.546   3.247   4.840 -0.4809 -0.6959 -0.1870
   8423SM  H22F11287   2.609   3.337   4.858 -1.0919 -0.3780  0.4034
   8423SM  H22G11288   2.573   3.174   4.919  0.3091 -0.3039 -0.0850
   8423SM  C23F11289   2.406   3.302   4.847  0.1103  0.4166  0.1356
   8423SM  H23F11290   2.338   3.214   4.841 -0.0737  0.6201 -1.1323
   8423SM  H23G11291   2.394   3.370   4.760 -0.7108  2.4570  1.7855
   8423SM  H23H11292   2.391   3.367   4.935  0.0380 -0.5140  0.8286
   8523SM     N11293   5.314   5.214   2.224 -0.1930 -0.1778  0.9801
   8523SM   C1511294   5.325   5.078   2.158 -0.4295 -0.0712 -0.2088
   8523SM  H15A11295   5.246   5.068   2.084 -1.4371 -1.0322  0.9449
   8523SM  H15B11296   5.297   5.007   2.235  3.3234 -1.1353  0.3527
   8523SM  H15C11297   5.421   5.061   2.111 -0.0452 -2.3487  1.2424
   8523SM   C1411298   5.436   5.243   2.292 -0.1166  0.2945 -0.9962
   8523SM  H14A11299   5.449   5.175   2.375  2.0384  0.4483 -1.1422
   8523SM  H14B11300   5.441   5.341   2.336  0.4330  0.2386 -0.9167
   8523SM  H14C11301   5.527   5.233   2.235  0.5954 -1.2108  0.2926
   8523SM   C1311302   5.294   5.320   2.120  0.1398 -0.2371  0.2023
   8523SM  H13A11303   5.289   5.418   2.165 -1.9471 -0.3944  0.4356
   8523SM  H13B11304   5.201   5.293   2.072  0.1342  2.6991 -1.7215
   8523SM  H13C11305   5.368   5.334   2.042  0.5350  0.7539  0.7325
   8523SM   C1211306   5.194   5.213   2.324  0.3885 -0.0196 -0.4295
   8523SM  H12A11307   5.101   5.182   2.280  0.6014 -1.3560  0.0130
   8523SM  H12B11308   5.182   5.317   2.354 -1.4863 -0.3474  0.1103
   8523SM   C1111309   5.212   5.126   2.450 -0.1162  0.1761  0.6470
   8523SM  H11A11310   5.122   5.154   2.510 -2.0211  0.2471 -2.0678
   8523SM  H11B11311   5.299   5.158   2.511  1.6472  0.7380 -1.9794
   8523SM     P11312   5.311   4.890   2.493 -0.1100 -0.2419 -0.2069
   8523SM   O1311313   5.298   4.754   2.432  0.1080  0.9428  0.9456
   8523SM   O1411314   5.447   4.945   2.490  0.5642 -0.6464  0.2671
   8523SM   O1111315   5.262   4.879   2.640 -0.4568 -0.6042  0.1863
   8523SM   O1211316   5.201   4.983   2.423  0.2310  0.0117 -0.2683
   8523SM   C1S11317   5.130   4.838   2.675  0.0435  0.1340 -0.4133
   8523SM   H1S11318   5.121   4.731   2.644  3.4032 -0.3775 -0.0128
   8523SM   H1T11319   5.053   4.902   2.627  0.2667  0.1820 -0.7150
   8523SM    NF11320   4.994   4.776   2.869  0.6227  0.4858 -0.2536
   8523SM   HNF11321   4.913   4.834   2.878 -1.7823 -2.7884  1.2230
   8523SM   C2S11322   5.115   4.847   2.827  0.9096 -0.3990 -1.0385
   8523SM   H2S11323   5.201   4.792   2.870  2.4977  1.5845 -1.5366
   8523SM   C3S11324   5.123   4.995   2.878 -0.3512 -0.0230 -0.0820
   8523SM   H3S11325   5.045   5.051   2.823 -2.3602 -1.2220  1.4259
   8523SM    O311326   5.239   5.062   2.842 -0.1221 -0.8636  0.1048
   8523SM   HO311327   5.282   5.010   2.774  0.5335  1.6998 -1.5703
   8523SM   C4S11328   5.100   5.009   3.024  0.6982  0.0085 -0.1152
   8523SM   H4S11329   4.997   5.036   3.054  1.4990  0.1165  2.7757
   8523SM   C5S11330   5.184   4.986   3.125  0.4819 -0.3502  0.7950
   8523SM   H5S11331   5.280   4.947   3.089 -0.4063 -0.9867 -0.9959
   8523SM   C6S11332   5.157   4.995   3.274 -0.2501  0.1500  0.0055
   8523SM   H6S11333   5.075   5.067   3.292 -0.8950 -0.1159 -1.6968
   8523SM   H6T11334   5.251   5.030   3.323  0.3432 -1.1979 -0.1075
   8523SM   C7S11335   5.109   4.857   3.330 -0.2967 -0.0927 -0.0654
   8523SM   H7S11336   5.179   4.778   3.294  0.9135  1.0952 -0.3953
   8523SM   H7T11337   5.005   4.835   3.297 -0.7149  0.1280  1.0589
   8523SM   C8S11338   5.118   4.863   3.486  0.6351  1.0519 -0.5589
   8523SM   H8S11339   5.216   4.897   3.524  1.0981 -0.1170 -0.6551
   8523SM   H8T11340   5.101   4.757   3.516 -0.1595  0.0073 -4.1553
   8523SM   C9S11341   5.013   4.963   3.548  0.0353 -0.0517  0.9392
   8523SM   H9S11342   4.924   4.950   3.483  1.1845  2.9865 -1.5280
   8523SM   H9T11343   5.058   5.063   3.534  0.0188  0.3834  3.5075
   8523SM  C10S11344   4.986   4.947   3.696  0.3037  0.0178 -0.5103
   8523SM  H10S11345   4.913   5.022   3.733  0.4532 -0.0975  0.0194
   8523SM  H10T11346   5.076   4.972   3.755  0.4400 -1.2400 -0.1568
   8523SM  C11S11347   4.922   4.813   3.732 -0.6153  0.1156  0.0715
   8523SM  H11S11348   5.000   4.735   3.718 -1.4934 -0.6584 -0.6797
   8523SM  H11T11349   4.835   4.785   3.669 -0.6370 -0.0772  0.1877
   8523SM  C12S11350   4.886   4.800   3.884 -0.2455 -0.0319  0.5592
   8523SM  H12S11351   4.798   4.868   3.888 -0.0598  0.2357  0.1550
   8523SM  H12T11352   4.975   4.845   3.933  0.7992 -0.1636 -1.1599
   8523SM  C13S11353   4.879   4.660   3.940  0.2598  0.5279 -0.1300
   8523SM  H13S11354   4.968   4.601   3.910 -0.5575 -0.8271  0.0276
   8523SM  H13T11355   4.790   4.600   3.912 -0.0978  0.1141  1.7982
   8523SM  C14S11356   4.873   4.664   4.092  0.0796  0.0151 -0.9463
   8523SM  H14S11357   4.781   4.706   4.140  0.8797 -2.2878  3.0613
   8523SM  H14T11358   4.948   4.740   4.124  0.7782 -0.5030 -1.3445
   8523SM  C15S11359   4.895   4.524   4.150 -0.2913 -0.6973 -0.1639
   8523SM  H15S11360   5.001   4.495   4.135 -0.3226 -0.5598 -0.6528
   8523SM  H15T11361   4.829   4.465   4.083  0.2785  0.9266 -2.2665
   8523SM  C16S11362   4.860   4.503   4.305 -0.6214  0.4377  0.4968
   8523SM  H16S11363   4.755   4.540   4.309 -1.9125 -1.8909 -4.2668
   8523SM  H16T11364   4.928   4.561   4.371  0.5198  0.2069 -0.4390
   8523SM  C17S11365   4.866   4.359   4.347 -0.3591  0.3240 -0.2788
   8523SM  H17S11366   4.863   4.364   4.458  1.2301  1.9730 -0.2583
   8523SM  H17T11367   4.953   4.295   4.321  0.8337 -0.0494  3.9011
   8523SM  C18S11368   4.745   4.274   4.299 -0.0619  0.3515  0.2435
   8523SM  H18S11369   4.735   4.285   4.188  2.1148 -2.1703 -0.2881
   8523SM  H18T11370   4.644   4.291   4.343 -0.5838  0.1324 -0.8198
   8523SM  H18U11371   4.765   4.167   4.321  0.2513  0.3121 -0.2141
   8523SM   C1F11372   4.986   4.641   2.876  0.1504 -0.1866  0.1409
   8523SM    OF11373   5.090   4.587   2.849  0.1772 -0.4877  0.0661
   8523SM   C2F11374   4.855   4.575   2.910  0.3714 -0.8186 -0.1005
   8523SM   H2F11375   4.809   4.530   2.819 -2.5257 -0.7150  1.2344
   8523SM   H2G11376   4.792   4.663   2.933  1.3492  0.1170 -0.8626
   8523SM   C3F11377   4.862   4.470   3.025  0.3574 -0.4955 -0.1625
   8523SM   H3F11378   4.925   4.381   3.001 -0.8407 -1.3455 -0.2237
   8523SM   H3G11379   4.756   4.438   3.029 -0.9801  3.4699  0.1870
   8523SM   C4F11380   4.898   4.528   3.165  0.9909  0.6202  1.3198
   8523SM   H4F11381   4.806   4.579   3.201 -0.0524  0.6057 -1.1642
   8523SM   H4G11382   4.976   4.606   3.157  0.3146  1.1585 -0.5275
   8523SM   C5F11383   4.921   4.427   3.266 -0.5337  0.1337 -0.2171
   8523SM   H5F11384   5.021   4.380   3.254 -0.8764 -0.6206 -0.1697
   8523SM   H5G11385   4.845   4.347   3.253  1.4738 -1.9446  0.0445
   8523SM   C6F11386   4.922   4.485   3.406 -0.5059 -0.6167 -0.0160
   8523SM   H6F11387   4.821   4.523   3.432  0.4459  2.0507 -0.0018
   8523SM   H6G11388   4.980   4.579   3.404 -1.1261 -0.2074  0.7218
   8523SM   C7F11389   4.969   4.387   3.514  0.0892 -0.1747  0.1029
   8523SM   H7F11390   5.057   4.324   3.487 -0.4981 -0.7920 -0.4258
   8523SM   H7G11391   4.886   4.318   3.542 -0.4730  0.1642 -0.6968
   8523SM   C8F11392   5.013   4.460   3.642  0.6285  0.3554 -0.1039
   8523SM   H8F11393   4.951   4.547   3.673  0.5728 -0.1100  1.1379
   8523SM   H8G11394   5.114   4.501   3.621  1.2740 -1.4966 -0.7989
   8523SM   C9F11395   5.020   4.360   3.759  0.0158  0.0726  0.2774
   8523SM   H9F11396   5.030   4.261   3.710  1.1739  0.6901 -0.7822
   8523SM   H9G11397   4.922   4.356   3.811 -0.2686 -2.8664 -0.3483
   8523SM  C10F11398   5.141   4.375   3.855  0.0898  0.1817 -0.3760
   8523SM  H10F11399   5.136   4.457   3.930  2.2440 -1.0538  1.2412
   8523SM  H10G11400   5.236   4.387   3.799 -0.1288  0.5867 -0.6620
   8523SM  C11F11401   5.153   4.250   3.937  0.1083 -1.0164 -0.1621
   8523SM  H11F11402   5.184   4.166   3.872 -2.9062 -2.8688  0.5860
   8523SM  H11G11403   5.058   4.216   3.984  0.8534 -0.2166  1.9983
   8523SM  C12F11404   5.258   4.280   4.045 -0.8011 -0.1547 -0.0856
   8523SM  H12F11405   5.200   4.348   4.111 -0.1264  1.2867 -0.9251
   8523SM  H12G11406   5.349   4.332   4.007  0.0020 -0.4081  1.4081
   8523SM  C13F11407   5.306   4.153   4.124  0.1028 -0.8852 -0.2954
   8523SM  H13F11408   5.359   4.093   4.048 -0.4325 -0.0344 -1.3711
   8523SM  H13G11409   5.223   4.080   4.137  0.8821 -1.4701  1.8057
   8523SM  C14F11410   5.366   4.187   4.264 -0.2626 -0.3694 -0.3597
   8523SM  H14F11411   5.362   4.091   4.320  0.4622  0.9033  1.9796
   8523SM  H14G11412   5.303   4.257   4.323 -1.4717  0.3548 -2.4131
   8523SM  C15F11413   5.512   4.236   4.255 -0.0123 -0.0217  0.3634
   8523SM  H15F11414   5.514   4.327   4.191 -1.0593  0.5098  1.0472
   8523SM  H15G11415   5.569   4.159   4.198  0.9057  1.1685 -0.3889
   8523SM  C16F11416   5.568   4.289   4.388 -0.4344 -0.2488  0.3453
   8523SM  H16F11417   5.546   4.213   4.466 -1.7132 -0.6271 -0.3469
   8523SM  H16G11418   5.497   4.371   4.413 -0.2966  0.1895 -0.6619
   8523SM  C17F11419   5.717   4.334   4.396 -0.6081 -1.4041  0.5994
   8523SM  H17F11420   5.730   4.371   4.499  1.5836  1.3237 -0.5346
   8523SM  H17G11421   5.750   4.421   4.336  3.0592 -1.8222  1.7954
   8523SM  C18F11422   5.826   4.232   4.367  0.4649  0.2765  0.2958
   8523SM  H18F11423   5.924   4.277   4.394 -0.5987  1.6458  2.1088
   8523SM  H18G11424   5.832   4.199   4.261 -0.4827  0.3829  0.2008
   8523SM  C19F11425   5.803   4.109   4.449 -0.0497  0.3015 -0.3683
   8523SM  H19F11426   5.717   4.051   4.410  1.0187 -0.7321 -1.2505
   8523SM  H19G11427   5.795   4.127   4.558 -1.0271 -0.3205 -0.3333
   8523SM  C20F11428   5.904   4.006   4.432 -0.2588  0.3330 -0.8003
   8523SM  H20F11429   6.005   4.052   4.439  0.6726 -0.9414 -3.9040
   8523SM  H20G11430   5.884   3.968   4.330 -3.0802 -0.5934  0.0081
   8523SM  C21F11431   5.889   3.881   4.534  0.0417 -0.4217 -0.5418
   8523SM  H21F11432   5.952   3.800   4.490  1.2687  0.6909 -0.9364
   8523SM  H21G11433   5.783   3.848   4.531 -0.3823  0.5356  1.9438
   8523SM  C22F11434   5.910   3.907   4.683 -0.4837 -0.2928  0.2597
   8523SM  H22F11435   5.916   3.808   4.733  0.8132 -0.6907 -0.6514
   8523SM  H22G11436   5.831   3.976   4.721 -1.0244 -1.8086  2.0329
   8523SM  C23F11437   6.038   3.992   4.715  0.1035  0.2921 -0.0194
   8523SM  H23F11438   6.043   4.090   4.663  3.7315  1.6224  2.4438
   8523SM  H23G11439   6.128   3.935   4.683  1.3122  2.8074 -1.4163
   8523SM  H23H11440   6.032   4.010   4.824 -2.8408 -0.3614 -0.0050
   8623SM     N11441   2.457   1.758   2.121  1.1805 -0.4166  0.3392
   8623SM   C1511442   2.484   1.869   2.020  0.6206  0.3800  0.3314
   8623SM  H15A11443   2.442   1.965   2.047  0.4533  0.3965  0.0271
   8623SM  H15B11444   2.444   1.839   1.924 -0.5498  2.8194 -0.0170
   8623SM  H15C11445   2.590   1.880   2.004  0.8049  2.0573  2.4164
   8623SM   C1411446   2.313   1.761   2.149  0.5921 -0.3029 -1.0898
   8623SM  H14A11447   2.258   1.740   2.059 -0.6614  0.3841 -0.5092
   8623SM  H14B11448   2.267   1.852   2.183 -1.4928 -1.7594  0.2313
   8623SM  H14C11449   2.288   1.680   2.217  1.5456 -0.0277 -0.3845
   8623SM   C1311450   2.491   1.622   2.075  0.3278 -0.1869 -0.0242
   8623SM  H13A11451   2.467   1.546   2.149  0.8818 -1.5915 -1.2360
   8623SM  H13B11452   2.596   1.612   2.055  0.3504  0.9082 -0.4877
   8623SM  H13C11453   2.432   1.589   1.990 -2.3309  2.1099  0.7625
   8623SM   C1211454   2.526   1.795   2.249  0.3217  0.0460 -1.3553
   8623SM  H12A11455   2.479   1.886   2.284 -0.5781 -0.2528 -1.7565
   8623SM  H12B11456   2.627   1.823   2.224 -0.0121  1.0987 -1.6047
   8623SM   C1111457   2.528   1.700   2.374  0.4952  0.7166 -0.0057
   8623SM  H11A11458   2.424   1.691   2.412  0.8141  0.1709  0.7619
   8623SM  H11B11459   2.582   1.760   2.450 -0.5587 -0.2570  1.5648
   8623SM     P11460   2.750   1.559   2.378 -0.0554 -0.1688 -0.5195
   8623SM   O1311461   2.786   1.419   2.363 -0.1322 -0.0386 -0.1875
   8623SM   O1411462   2.819   1.656   2.298  0.1938 -0.5170 -0.2321
   8623SM   O1111463   2.778   1.594   2.529  0.2065 -0.9012  0.0143
   8623SM   O1211464   2.591   1.570   2.352  0.0638 -0.5827  0.5611
   8623SM   C1S11465   2.676   1.551   2.625 -0.3444 -0.0077  0.4453
   8623SM   H1S11466   2.613   1.472   2.579 -0.0600  0.1525 -0.2338
   8623SM   H1T11467   2.605   1.636   2.641  0.6294  1.2857 -1.6509
   8623SM    NF11468   2.645   1.444   2.837  0.0963 -0.0406  0.0178
   8623SM   HNF11469   2.604   1.513   2.895  1.2688  0.9294 -0.2681
   8623SM   C2S11470   2.746   1.505   2.753 -0.1442  0.6221  0.1206
   8623SM   H2S11471   2.829   1.438   2.723 -1.3601 -1.3321  0.9143
   8623SM   C3S11472   2.819   1.633   2.815  0.1644 -0.0675 -0.7646
   8623SM   H3S11473   2.736   1.696   2.854  1.7293  3.2468 -2.3848
   8623SM    O311474   2.906   1.706   2.728  0.2641 -0.1386 -0.1158
   8623SM   HO311475   2.910   1.662   2.643 -2.5142  2.4546 -1.8058
   8623SM   C4S11476   2.884   1.591   2.945 -0.5561 -0.0995  1.1340
   8623SM   H4S11477   2.843   1.613   3.044  0.1661 -2.6313  2.0695
   8623SM   C5S11478   2.994   1.521   2.953 -0.0845 -0.0558  0.0234
   8623SM   H5S11479   3.021   1.465   2.863 -2.5394 -0.3403 -0.6304
   8623SM   C6S11480   3.063   1.479   3.079 -0.0632  0.3449 -0.1121
   8623SM   H6S11481   3.169   1.511   3.077  1.1421 -3.1804 -0.0437
   8623SM   H6T11482   3.062   1.368   3.081 -1.4862  0.3540  0.9432
   8623SM   C7S11483   3.008   1.529   3.218 -0.3462  0.1579 -0.2506
   8623SM   H7S11484   2.904   1.495   3.240 -0.0916  1.0410  2.7118
   8623SM   H7T11485   3.011   1.640   3.215  0.8478  0.1201 -0.8307
   8623SM   C8S11486   3.096   1.466   3.334  0.9688 -0.2702  0.6233
   8623SM   H8S11487   3.200   1.494   3.308  0.4562 -0.1481 -1.4635
   8623SM   H8T11488   3.085   1.356   3.323 -0.1123 -0.2866  1.5993
   8623SM   C9S11489   3.051   1.515   3.473  0.1032 -0.4882 -0.1439
   8623SM   H9S11490   2.940   1.520   3.474  0.1428  0.7966  1.2786
   8623SM   H9T11491   3.082   1.621   3.487 -0.5097 -0.6629  3.1541
   8623SM  C10S11492   3.114   1.423   3.570  0.2844  0.0445  0.3067
   8623SM  H10S11493   3.223   1.429   3.545  0.4862  3.1227  1.5573
   8623SM  H10T11494   3.077   1.320   3.553  1.2600 -0.3230  0.3217
   8623SM  C11S11495   3.093   1.458   3.717  0.5061 -0.2464 -0.2678
   8623SM  H11S11496   3.134   1.377   3.781  1.2137 -0.0799 -0.5023
   8623SM  H11T11497   2.984   1.461   3.741  0.0758  2.9934 -2.0753
   8623SM  C12S11498   3.143   1.595   3.768  0.0409 -1.2768 -0.0837
   8623SM  H12S11499   3.100   1.683   3.717  1.9507 -0.5227 -0.4881
   8623SM  H12T11500   3.253   1.600   3.757 -0.0221 -1.5954 -0.9152
   8623SM  C13S11501   3.127   1.610   3.921 -0.5207 -0.3330  0.3783
   8623SM  H13S11502   3.025   1.597   3.962 -0.0259 -1.1133  1.3920
   8623SM  H13T11503   3.159   1.713   3.948 -0.8082  0.7681 -2.9692
   8623SM  C14S11504   3.214   1.521   4.015 -0.7883  0.2341 -0.1044
   8623SM  H14S11505   3.320   1.547   3.996 -1.3507  1.5788 -1.6487
   8623SM  H14T11506   3.203   1.415   3.984  2.1502 -0.2102  0.0869
   8623SM  C15S11507   3.202   1.541   4.172  0.4737 -0.0114 -0.3549
   8623SM  H15S11508   3.189   1.649   4.197  0.7082  0.1289 -0.8246
   8623SM  H15T11509   3.302   1.518   4.213  0.0585  0.8321  1.1817
   8623SM  C16S11510   3.097   1.441   4.226  0.6154  0.3821  0.0750
   8623SM  H16S11511   3.131   1.336   4.224 -1.8624 -0.4880  0.0172
   8623SM  H16T11512   3.004   1.441   4.165 -0.3115  1.8434  1.4050
   8623SM  C17S11513   3.057   1.462   4.373  0.5776 -0.4550  0.3191
   8623SM  H17S11514   3.016   1.564   4.391 -0.1482 -0.9434  1.4971
   8623SM  H17T11515   3.154   1.467   4.427  0.8096 -0.0176 -0.1183
   8623SM  C18S11516   2.963   1.363   4.437 -0.1217  0.7477 -0.1076
   8623SM  H18S11517   2.975   1.347   4.547 -1.7791 -2.4610 -0.2834
   8623SM  H18T11518   2.997   1.270   4.388  2.1730  2.0012 -1.0599
   8623SM  H18U11519   2.858   1.386   4.409 -0.4340 -0.4048  0.0662
   8623SM   C1F11520   2.582   1.330   2.817  0.4840 -0.6160  0.0676
   8623SM    OF11521   2.619   1.255   2.726 -0.3611 -0.1616  0.2858
   8623SM   C2F11522   2.468   1.295   2.912  0.2938 -0.2539  0.8447
   8623SM   H2F11523   2.406   1.224   2.853  0.3055  0.6382 -0.2937
   8623SM   H2G11524   2.392   1.374   2.932 -1.9793 -2.4662  1.4795
   8623SM   C3F11525   2.515   1.238   3.051 -0.3802 -0.2985  0.5203
   8623SM   H3F11526   2.587   1.154   3.047 -0.6404 -0.4721 -0.7162
   8623SM   H3G11527   2.430   1.210   3.117  1.0569 -0.2261  2.5015
   8623SM   C4F11528   2.582   1.351   3.139  0.1319  0.1025 -0.1894
   8623SM   H4F11529   2.510   1.436   3.135  0.1006  0.0879  0.0697
   8623SM   H4G11530   2.677   1.401   3.113  0.3556  0.8299  1.8637
   8623SM   C5F11531   2.590   1.311   3.293  0.1943 -0.1860  0.6229
   8623SM   H5F11532   2.675   1.240   3.306  0.7663  0.1149 -1.1436
   8623SM   H5G11533   2.493   1.260   3.311 -0.2122  0.1738 -0.4645
   8623SM   C6F11534   2.608   1.434   3.376 -0.3785  0.3081 -0.2362
   8623SM   H6F11535   2.533   1.513   3.356 -0.2251  0.7254  0.7559
   8623SM   H6G11536   2.700   1.493   3.354 -0.3904  0.8465  1.0675
   8623SM   C7F11537   2.603   1.413   3.530 -0.3583 -0.0896 -0.0487
   8623SM   H7F11538   2.504   1.370   3.557  0.6191 -1.5571  1.4736
   8623SM   H7G11539   2.631   1.507   3.582  0.5370  0.7775 -2.0044
   8623SM   C8F11540   2.706   1.306   3.580  0.1212  0.1847  0.5776
   8623SM   H8F11541   2.806   1.335   3.542  0.5037 -2.7277 -0.9202
   8623SM   H8G11542   2.681   1.202   3.548 -3.1570  0.8503  0.6731
   8623SM   C9F11543   2.706   1.297   3.732  0.9257  0.0716 -0.2598
   8623SM   H9F11544   2.610   1.259   3.772  0.4291  1.7313  0.2051
   8623SM   H9G11545   2.728   1.395   3.779  0.5700  1.0616 -2.0352
   8623SM  C10F11546   2.808   1.198   3.785  0.7630 -0.3833 -0.0934
   8623SM  H10F11547   2.901   1.233   3.736 -1.1014 -0.1131 -3.8221
   8623SM  H10G11548   2.778   1.099   3.744 -1.3486 -0.0354  0.4766
   8623SM  C11F11549   2.827   1.186   3.935 -0.1701  0.2729 -0.1328
   8623SM  H11F11550   2.740   1.136   3.981 -0.8789  1.7375  0.1626
   8623SM  H11G11551   2.824   1.287   3.981 -0.6908  1.1545 -2.0064
   8623SM  C12F11552   2.945   1.103   3.964  0.4969 -0.5665 -0.0073
   8623SM  H12F11553   3.034   1.168   3.952 -0.5485  0.4972 -3.0427
   8623SM  H12G11554   2.949   1.017   3.894 -0.9822 -2.3850  2.0011
   8623SM  C13F11555   2.945   1.051   4.110 -0.4436 -0.9290  0.4174
   8623SM  H13F11556   2.872   0.968   4.118 -2.6637  0.7644 -1.0088
   8623SM  H13G11557   2.898   1.130   4.173  1.9887  1.3477 -0.4235
   8623SM  C14F11558   3.086   1.008   4.169 -0.8996 -0.4546  0.2232
   8623SM  H14F11559   3.159   1.084   4.132  1.4329 -2.4890  0.3533
   8623SM  H14G11560   3.120   0.912   4.124 -1.8032 -0.8976  0.4702
   8623SM  C15F11561   3.093   0.986   4.320  0.4507  0.0611  0.4473
   8623SM  H15F11562   3.099   0.878   4.346  1.3347 -0.0575 -0.2219
   8623SM  H15G11563   3.014   1.047   4.368 -0.3553  0.9388 -1.8761
   8623SM  C16F11564   3.229   1.044   4.368 -0.1416 -0.0949 -0.0780
   8623SM  H16F11565   3.235   1.155   4.368 -2.3604  0.0780  1.2201
   8623SM  H16G11566   3.314   1.012   4.304  0.1647  0.1142  0.2227
   8623SM  C17F11567   3.261   0.993   4.517 -0.3216 -0.0586 -0.1106
   8623SM  H17F11568   3.234   0.885   4.519 -2.1102  0.3351 -0.9505
   8623SM  H17G11569   3.190   1.039   4.590 -1.2283 -0.4390 -0.7284
   8623SM  C18F11570   3.403   1.022   4.553 -0.2245  0.4273 -0.6608
   8623SM  H18F11571   3.470   0.960   4.489  1.6256 -0.1566  1.7040
   8623SM  H18G11572   3.428   0.988   4.656  1.7428  1.3588 -0.7934
   8623SM  C19F11573   3.448   1.169   4.539  0.2080 -0.3627  0.0153
   8623SM  H19F11574   3.421   1.195   4.434  0.7330  0.2200  0.0120
   8623SM  H19G11575   3.558   1.184   4.552  0.3244 -0.3033 -0.9370
   8623SM  C20F11576   3.355   1.263   4.625 -0.2397  0.0589  0.0003
   8623SM  H20F11577   3.376   1.246   4.733 -0.6254 -1.1083 -0.0948
   8623SM  H20G11578   3.248   1.240   4.609 -0.0253 -1.3955  0.5051
   8623SM  C21F11579   3.386   1.414   4.595 -0.0779  0.0927 -0.2794
   8623SM  H21F11580   3.393   1.422   4.485  1.1380 -0.2827 -0.2463
   8623SM  H21G11581   3.490   1.422   4.634 -0.7380  2.7619  1.1525
   8623SM  C22F11582   3.310   1.512   4.683  0.0676  0.2849 -0.4973
   8623SM  H22F11583   3.300   1.484   4.790 -0.9343  1.1352 -0.3620
   8623SM  H22G11584   3.204   1.519   4.653 -0.0922  2.5827  0.4002
   8623SM  C23F11585   3.360   1.664   4.684 -0.4242 -0.2131 -0.2248
   8623SM  H23F11586   3.285   1.735   4.726  1.1254  2.0635 -1.1697
   8623SM  H23G11587   3.385   1.703   4.583 -1.1083  2.2204  0.4851
   8623SM  H23H11588   3.454   1.670   4.742  0.4308  0.8295 -1.6733
   8723SM     N11589   3.948   1.461   2.496 -0.3682  0.4579 -0.0099
   8723SM   C1511590   3.816   1.455   2.566  0.2683  0.3380 -0.4147
   8723SM  H15A11591   3.783   1.353   2.550  0.8317  0.4368 -2.5337
   8723SM  H15B11592   3.739   1.517   2.523 -1.0139  1.0905  2.6870
   8723SM  H15C11593   3.830   1.466   2.672 -0.6517 -1.4378 -0.0700
   8723SM   C1411594   4.032   1.344   2.536  0.4874  0.7318  0.7949
   8723SM  H14A11595   4.069   1.358   2.636  1.6293 -0.8660  0.6443
   8723SM  H14B11596   4.117   1.330   2.470  1.6094  5.3947  0.9318
   8723SM  H14C11597   3.972   1.254   2.539  1.7123 -0.0959  1.1039
   8723SM   C1311598   3.918   1.437   2.354 -0.6640 -0.3434  0.2113
   8723SM  H13A11599   4.008   1.451   2.297 -0.0867  2.3629  1.6235
   8723SM  H13B11600   3.848   1.513   2.322 -0.3765 -0.3823 -0.5217
   8723SM  H13C11601   3.872   1.342   2.332 -3.2381  0.3755  2.0379
   8723SM   C1211602   4.030   1.584   2.521 -0.7195 -0.5105  0.1130
   8723SM  H12A11603   4.115   1.580   2.455 -1.3761 -1.4230 -0.7146
   8723SM  H12B11604   4.070   1.578   2.621  1.6309 -0.8040 -0.7820
   8723SM   C1111605   3.950   1.715   2.507 -0.6690 -1.1183 -0.9361
   8723SM  H11A11606   3.999   1.811   2.530  0.4410 -2.1174  1.1679
   8723SM  H11B11607   3.879   1.719   2.592  0.3845  0.1596 -0.0875
   8723SM     P11608   3.748   1.788   2.366 -0.5605  0.1565 -0.3426
   8723SM   O1311609   3.749   1.882   2.257  0.3722 -0.0370 -0.0284
   8723SM   O1411610   3.653   1.677   2.362  0.3960 -0.1056 -0.3580
   8723SM   O1111611   3.729   1.867   2.503  0.0634 -0.6424 -0.3994
   8723SM   O1211612   3.892   1.728   2.378  0.0034  0.1022  0.6413
   8723SM   C1S11613   3.611   1.861   2.577  0.7782  0.0679  0.3900
   8723SM   H1S11614   3.576   1.756   2.588 -1.7610  0.9930  1.9541
   8723SM   H1T11615   3.537   1.922   2.522  1.8164 -1.7257 -3.2746
   8723SM    NF11616   3.531   1.866   2.800 -0.1659 -0.3698 -0.0986
   8723SM   HNF11617   3.451   1.925   2.805 -0.8585 -1.3713  2.0679
   8723SM   C2S11618   3.642   1.910   2.717  0.4910  0.0735  0.3889
   8723SM   H2S11619   3.729   1.851   2.753 -0.7547 -1.6883  0.6544
   8723SM   C3S11620   3.673   2.066   2.726 -0.5293 -0.8895 -0.1766
   8723SM   H3S11621   3.586   2.123   2.687  1.0031  0.5877 -1.6445
   8723SM    O311622   3.768   2.107   2.626  0.3157  0.2472  0.0522
   8723SM   HO311623   3.787   2.027   2.575  1.2776  1.0224 -0.8388
   8723SM   C4S11624   3.705   2.118   2.868  0.1197  0.0254  0.2464
   8723SM   H4S11625   3.621   2.098   2.937 -0.7019 -0.7237 -0.9368
   8723SM   C5S11626   3.831   2.148   2.916  0.8571 -0.0738 -0.0522
   8723SM   H5S11627   3.917   2.154   2.849  2.0155  1.4750  1.4961
   8723SM   C6S11628   3.867   2.186   3.055 -1.2283 -0.5238  0.8408
   8723SM   H6S11629   3.888   2.294   3.067 -2.0917 -0.3027  0.4334
   8723SM   H6T11630   3.960   2.131   3.077 -0.5007  0.0473 -0.6576
   8723SM   C7S11631   3.767   2.162   3.168  0.3150  0.1797 -0.0571
   8723SM   H7S11632   3.733   2.056   3.167 -3.6609  1.2929 -0.2050
   8723SM   H7T11633   3.679   2.224   3.140  1.4563  1.7364 -0.2945
   8723SM   C8S11634   3.814   2.221   3.305  0.4672 -0.1917 -0.1473
   8723SM   H8S11635   3.850   2.324   3.282  0.5204  0.3628  2.2292
   8723SM   H8T11636   3.909   2.169   3.331  0.5792  0.8682  1.7065
   8723SM   C9S11637   3.695   2.251   3.403  0.5966 -0.2458  0.2450
   8723SM   H9S11638   3.634   2.160   3.417 -2.1547  1.1112 -1.9952
   8723SM   H9T11639   3.632   2.325   3.348  0.1371 -2.1820 -2.0037
   8723SM  C10S11640   3.749   2.301   3.538 -0.2301  0.1250  0.1057
   8723SM  H10S11641   3.801   2.398   3.522  0.3581 -0.3197 -0.7730
   8723SM  H10T11642   3.811   2.215   3.572 -1.1325 -2.1422 -3.4518
   8723SM  C11S11643   3.641   2.327   3.651 -0.0238 -0.3439 -0.2983
   8723SM  H11S11644   3.583   2.233   3.656 -0.9511  0.1947 -0.6518
   8723SM  H11T11645   3.580   2.413   3.615  0.2921 -0.4879 -1.1957
   8723SM  C12S11646   3.701   2.357   3.791 -0.2831  0.4634  0.1210
   8723SM  H12S11647   3.762   2.450   3.788 -0.2673  0.4358 -0.5573
   8723SM  H12T11648   3.767   2.278   3.833 -0.5087  0.4398  0.4392
   8723SM  C13S11649   3.584   2.383   3.884 -0.1833  0.7923 -0.1148
   8723SM  H13S11650   3.532   2.285   3.887  1.0575  0.1365  2.3056
   8723SM  H13T11651   3.512   2.455   3.839 -1.4280 -0.4388 -0.1323
   8723SM  C14S11652   3.608   2.427   4.027 -0.3212 -0.3059  0.2208
   8723SM  H14S11653   3.517   2.467   4.076  0.7407 -1.1588  3.0791
   8723SM  H14T11654   3.679   2.512   4.026 -1.8644  1.0599  1.4044
   8723SM  C15S11655   3.671   2.324   4.123 -0.5001 -0.3369 -0.3800
   8723SM  H15S11656   3.776   2.299   4.096 -0.0643  0.0151  0.9332
   8723SM  H15T11657   3.608   2.232   4.124 -0.7662 -0.2172 -2.2954
   8723SM  C16S11658   3.674   2.378   4.262  0.3469 -0.3036  0.9263
   8723SM  H16S11659   3.572   2.413   4.288 -0.3986 -0.2357 -1.7559
   8723SM  H16T11660   3.741   2.466   4.275 -0.6223  0.5375  0.3934
   8723SM  C17S11661   3.714   2.268   4.361  0.3721 -0.4662  0.3279
   8723SM  H17S11662   3.817   2.225   4.356  1.1317  1.1070  1.5177
   8723SM  H17T11663   3.640   2.186   4.352  1.4652 -1.4917  0.4515
   8723SM  C18S11664   3.698   2.319   4.502 -0.1852  0.1733  0.0192
   8723SM  H18S11665   3.773   2.398   4.526 -1.0128  0.5164  1.6708
   8723SM  H18T11666   3.730   2.238   4.571  2.4849  1.7848  0.8314
   8723SM  H18U11667   3.596   2.353   4.529 -0.1582  2.4265 -2.3448
   8723SM   C1F11668   3.532   1.744   2.851  0.8188 -0.2128 -0.6254
   8723SM    OF11669   3.596   1.659   2.798  0.2454 -0.7512  0.0404
   8723SM   C2F11670   3.450   1.724   2.975 -0.0210  0.6162  0.3104
   8723SM   H2F11671   3.486   1.638   3.035  1.9745  2.5033  1.9976
   8723SM   H2G11672   3.341   1.711   2.957  0.6029 -1.0793 -2.9580
   8723SM   C3F11673   3.455   1.842   3.072  0.6166  0.1375  0.2504
   8723SM   H3F11674   3.404   1.938   3.048  0.9412  0.0589 -0.8465
   8723SM   H3G11675   3.562   1.869   3.086  1.3862 -2.2818 -0.4135
   8723SM   C4F11676   3.392   1.797   3.208 -0.2613  0.5035 -0.3390
   8723SM   H4F11677   3.449   1.708   3.242 -0.4724  0.1350 -0.9305
   8723SM   H4G11678   3.287   1.764   3.190 -0.4339  1.3569 -0.9389
   8723SM   C5F11679   3.396   1.911   3.313 -0.5545  0.9578  0.6785
   8723SM   H5F11680   3.342   2.003   3.282  1.2441  2.1459  0.8700
   8723SM   H5G11681   3.497   1.954   3.332 -0.7340  3.3361 -2.7194
   8723SM   C6F11682   3.345   1.873   3.453 -0.0765 -0.0567 -0.2112
   8723SM   H6F11683   3.399   1.781   3.487  1.8087  0.7225 -0.9557
   8723SM   H6G11684   3.238   1.843   3.451 -0.1359 -0.2145  2.1442
   8723SM   C7F11685   3.380   1.991   3.547  0.4912  0.6438 -0.2220
   8723SM   H7F11686   3.293   2.061   3.537 -1.3324 -1.6666 -1.4528
   8723SM   H7G11687   3.480   2.038   3.550 -0.6491  3.2874  3.4155
   8723SM   C8F11688   3.362   1.943   3.691  0.0569  0.2166  0.2844
   8723SM   H8F11689   3.438   1.865   3.711  2.3486  2.2950  0.1291
   8723SM   H8G11690   3.260   1.899   3.686 -0.1893  0.7057  0.9354
   8723SM   C9F11691   3.365   2.060   3.797  0.0618 -0.3270  1.1445
   8723SM   H9F11692   3.307   2.148   3.762 -0.6738 -1.1016  0.3739
   8723SM   H9G11693   3.470   2.093   3.815 -0.1543  1.1764 -0.0695
   8723SM  C10F11694   3.308   2.022   3.938 -0.5607 -0.0738  0.2090
   8723SM  H10F11695   3.210   1.970   3.939 -1.5240  1.6690 -0.5147
   8723SM  H10G11696   3.297   2.116   3.995  1.3403 -0.0883  0.6829
   8723SM  C11F11697   3.391   1.920   4.011  0.7550 -0.1788 -0.6189
   8723SM  H11F11698   3.492   1.967   4.009  0.1782  1.1159 -2.4396
   8723SM  H11G11699   3.381   1.821   3.962 -0.5294 -0.6791  0.5919
   8723SM  C12F11700   3.347   1.899   4.159 -0.1919  0.1628  0.4478
   8723SM  H12F11701   3.384   1.802   4.200 -0.6831 -0.3231 -0.2385
   8723SM  H12G11702   3.236   1.891   4.159 -0.1220 -1.0071  0.7674
   8723SM  C13F11703   3.395   2.013   4.253 -0.4819 -0.1909 -0.3350
   8723SM  H13F11704   3.351   2.111   4.227 -0.5645  0.1929  1.1639
   8723SM  H13G11705   3.504   2.036   4.252 -0.6262  0.5747  0.5787
   8723SM  C14F11706   3.376   1.983   4.396 -0.3257 -0.1908  0.0772
   8723SM  H14F11707   3.451   2.026   4.467  0.3263 -0.7737 -0.2518
   8723SM  H14G11708   3.377   1.874   4.414 -0.4573  0.0132  1.4838
   8723SM  C15F11709   3.233   2.019   4.441 -0.3633 -0.0754  0.0387
   8723SM  H15F11710   3.193   1.928   4.492  0.2912  0.6542  1.9534
   8723SM  H15G11711   3.161   2.049   4.363  1.1247  0.2029 -1.2747
   8723SM  C16F11712   3.233   2.130   4.548  0.3524 -0.4038 -0.2521
   8723SM  H16F11713   3.269   2.229   4.514  0.6749 -0.2662  0.4704
   8723SM  H16G11714   3.309   2.085   4.615 -0.3348 -1.5777 -0.2325
   8723SM  C17F11715   3.100   2.151   4.623  0.4561  0.0812 -0.5557
   8723SM  H17F11716   3.033   2.063   4.610 -1.2230  1.2410 -0.0989
   8723SM  H17G11717   3.047   2.238   4.579 -1.5183 -1.2952 -1.0409
   8723SM  C18F11718   3.108   2.204   4.767 -0.2983  0.1467 -0.0044
   8723SM  H18F11719   3.179   2.145   4.828  1.9243  2.7247  0.1107
   8723SM  H18G11720   3.005   2.181   4.801 -0.0129 -0.5457  0.4071
   8723SM  C19F11721   3.145   2.351   4.786  0.4187  0.3293  0.3860
   8723SM  H19F11722   3.238   2.363   4.726 -0.3743 -0.2440 -1.0161
   8723SM  H19G11723   3.182   2.372   4.888  0.5509  1.0660  0.1877
   8723SM  C20F11724   3.035   2.454   4.739  0.3820  0.0265  0.1819
   8723SM  H20F11725   2.979   2.426   4.647 -0.1458  2.8554 -0.4651
   8723SM  H20G11726   3.078   2.556   4.728  0.9228 -0.1140  0.8995
   8723SM  C21F11727   2.921   2.476   4.853  0.0335 -0.7259  0.5709
   8723SM  H21F11728   2.974   2.497   4.948 -0.8764  0.3134  0.8625
   8723SM  H21G11729   2.858   2.386   4.872 -2.1030  0.4725 -0.5198
   8723SM  C22F11730   2.829   2.595   4.832  0.6491  0.2050 -0.3726
   8723SM  H22F11731   2.791   2.586   4.728 -1.7165  3.9096 -0.0312
   8723SM  H22G11732   2.892   2.685   4.845  0.9278  0.1000 -0.9554
   8723SM  C23F11733   2.703   2.621   4.922 -0.5570 -0.0013 -0.1343
   8723SM  H23F11734   2.642   2.704   4.880 -1.6296 -2.1245 -3.0540
   8723SM  H23G11735   2.742   2.652   5.022 -0.1309  1.0061 -0.5940
   8723SM  H23H11736   2.640   2.530   4.928 -2.0538  0.9582 -0.7130
   8823SM     N11737   1.297   2.388   2.466 -0.0898 -0.2831  0.4165
   8823SM   C1511738   1.297   2.536   2.456 -0.2486 -0.1088  0.2560
   8823SM  H15A11739   1.396   2.578   2.447 -0.0246 -0.5404  0.6339
   8823SM  H15B11740   1.257   2.586   2.543 -2.2032  0.3375 -0.8495
   8823SM  H15C11741   1.243   2.565   2.367 -2.0554 -0.4022  1.2103
   8823SM   C1411742   1.372   2.327   2.351  0.8418  0.8292  0.3030
   8823SM  H14A11743   1.470   2.369   2.332  0.3012  1.1977 -1.9463
   8823SM  H14B11744   1.323   2.344   2.256  1.5516 -0.1329 -0.2441
   8823SM  H14C11745   1.376   2.219   2.354  0.4540  0.8341  1.1494
   8823SM   C1311746   1.387   2.364   2.589  0.7268  1.0200  0.6340
   8823SM  H13A11747   1.486   2.401   2.566  0.1628  1.1149 -1.9742
   8823SM  H13B11748   1.384   2.260   2.620 -2.4216  0.8264  0.0210
   8823SM  H13C11749   1.355   2.427   2.671  0.1956  2.9686 -0.9899
   8823SM   C1211750   1.157   2.327   2.497 -0.4693 -0.0657 -0.0917
   8823SM  H12A11751   1.125   2.351   2.597 -1.2301  1.1470 -0.5955
   8823SM  H12B11752   1.170   2.221   2.484  0.7148  0.1056 -0.4831
   8823SM   C1111753   1.037   2.372   2.402  0.8854  0.2065 -0.1012
   8823SM  H11A11754   0.950   2.309   2.431  0.2575  1.0021 -0.2278
   8823SM  H11B11755   1.068   2.360   2.296 -0.9015  3.1516 -1.0613
   8823SM     P11756   0.926   2.572   2.523  0.2549 -0.1725  0.3666
   8823SM   O1311757   0.925   2.716   2.534  0.0379 -0.6125 -0.1465
   8823SM   O1411758   0.794   2.499   2.512  0.2722 -0.9898  0.0074
   8823SM   O1111759   0.990   2.516   2.654  0.6439  0.6604 -0.1205
   8823SM   O1211760   1.017   2.513   2.412  0.1483  0.1414 -0.5649
   8823SM   C1S11761   0.927   2.514   2.782 -0.2577  0.1138 -0.8986
   8823SM   H1S11762   0.844   2.440   2.782  0.3249 -0.5579 -1.5547
   8823SM   H1T11763   0.868   2.607   2.799 -1.2567 -0.7185  0.4154
   8823SM    NF11764   0.954   2.492   3.027 -0.6059 -0.1757  0.0506
   8823SM   HNF11765   0.953   2.581   3.071  1.4746 -0.3062  0.4357
   8823SM   C2S11766   1.026   2.482   2.904 -0.3583 -0.2265 -0.2195
   8823SM   H2S11767   1.065   2.380   2.888 -1.2742 -0.6798  0.3902
   8823SM   C3S11768   1.149   2.577   2.908  0.1273  0.0411  0.7593
   8823SM   H3S11769   1.119   2.684   2.907  2.0226  0.6517  1.9428
   8823SM    O311770   1.224   2.575   2.786 -0.5996  0.3781  0.1688
   8823SM   HO311771   1.160   2.538   2.724  1.2756 -0.4571 -1.3791
   8823SM   C4S11772   1.228   2.546   3.030  0.1758 -0.3281 -0.2724
   8823SM   H4S11773   1.186   2.586   3.124 -0.3128 -1.1488 -0.1311
   8823SM   C5S11774   1.355   2.492   3.035 -0.6404  0.3614 -0.0107
   8823SM   H5S11775   1.398   2.470   2.936  0.3931 -1.1654  0.7505
   8823SM   C6S11776   1.442   2.477   3.160  1.0065  0.1893 -0.2299
   8823SM   H6S11777   1.548   2.484   3.130  1.0160 -0.0828 -0.2641
   8823SM   H6T11778   1.431   2.374   3.201 -0.7058  0.1206 -0.7797
   8823SM   C7S11779   1.417   2.587   3.281 -0.4291  0.2773  0.2171
   8823SM   H7S11780   1.316   2.553   3.314 -0.6748  0.8630  0.0668
   8823SM   H7T11781   1.412   2.686   3.231  0.0525 -0.0447 -0.4964
   8823SM   C8S11782   1.532   2.602   3.387  0.5821 -0.4162  0.5092
   8823SM   H8S11783   1.627   2.617   3.330 -0.5211  1.0172 -1.0549
   8823SM   H8T11784   1.542   2.519   3.460 -0.1136  1.3912  2.7811
   8823SM   C9S11785   1.528   2.732   3.471  0.1516  0.2152  0.2511
   8823SM   H9S11786   1.497   2.823   3.416  2.2167  1.4232  0.9432
   8823SM   H9T11787   1.634   2.752   3.499  0.3231  1.9124 -1.3601
   8823SM  C10S11788   1.452   2.715   3.606 -0.3064  0.4430  0.1733
   8823SM  H10S11789   1.456   2.605   3.624  1.8134  0.3695 -0.4163
   8823SM  H10T11790   1.348   2.750   3.590 -0.4047  0.7175  1.3279
   8823SM  C11S11791   1.499   2.794   3.729  0.6728  0.3707 -0.7561
   8823SM  H11S11792   1.404   2.800   3.787  0.6784 -4.0273  0.0794
   8823SM  H11T11793   1.532   2.898   3.707  0.6799  0.7533  0.9248
   8823SM  C12S11794   1.591   2.716   3.819 -0.4529  0.5547 -1.1116
   8823SM  H12S11795   1.694   2.724   3.780  0.7275 -2.4332  1.0538
   8823SM  H12T11796   1.560   2.609   3.822 -0.8261  0.6579 -1.1322
   8823SM  C13S11797   1.589   2.764   3.972  0.4090 -0.3114  0.0455
   8823SM  H13S11798   1.593   2.875   3.977  2.7724 -0.4168  3.0080
   8823SM  H13T11799   1.684   2.733   4.020  0.7645  2.2352  1.1564
   8823SM  C14S11800   1.476   2.709   4.054  0.1567 -0.8485  0.0369
   8823SM  H14S11801   1.479   2.598   4.052  0.8840 -0.8386  0.2876
   8823SM  H14T11802   1.373   2.742   4.033  0.1669 -1.2344 -0.6567
   8823SM  C15S11803   1.488   2.748   4.207  0.3202  0.7340 -0.1139
   8823SM  H15S11804   1.475   2.858   4.204  0.0782  0.7162  0.2407
   8823SM  H15T11805   1.593   2.719   4.228  0.0808 -0.7889 -0.9046
   8823SM  C16S11806   1.385   2.678   4.298 -0.4009  0.2555  0.6246
   8823SM  H16S11807   1.381   2.571   4.265 -0.7871  0.0175  1.4123
   8823SM  H16T11808   1.289   2.722   4.265 -0.0909  2.2662  2.2328
   8823SM  C17S11809   1.415   2.689   4.445 -0.2768 -0.8805  0.0704
   8823SM  H17S11810   1.436   2.796   4.465  1.3964 -0.7670 -1.9689
   8823SM  H17T11811   1.518   2.650   4.462  0.1728  0.4067  0.3442
   8823SM  C18S11812   1.318   2.648   4.551  0.4401  0.7207 -0.0189
   8823SM  H18S11813   1.348   2.684   4.652  1.0736 -0.8702  0.3919
   8823SM  H18T11814   1.294   2.541   4.569  0.3407  0.9822  1.5607
   8823SM  H18U11815   1.217   2.686   4.524  0.5011  0.6073 -0.4179
   8823SM   C1F11816   0.863   2.406   3.061 -0.0493  0.0391  0.4549
   8823SM    OF11817   0.867   2.297   3.013 -0.4036 -0.5654  0.0445
   8823SM   C2F11818   0.763   2.452   3.166  0.5858 -0.1632  0.5103
   8823SM   H2F11819   0.666   2.473   3.115  1.0919  1.2717  0.0663
   8823SM   H2G11820   0.803   2.547   3.207  0.1066 -0.2077  1.0923
   8823SM   C3F11821   0.736   2.347   3.280 -0.0989 -0.2690  0.0148
   8823SM   H3F11822   0.682   2.267   3.224  1.0991 -0.4429 -0.9418
   8823SM   H3G11823   0.661   2.393   3.348  0.3763 -1.3854  1.3363
   8823SM   C4F11824   0.864   2.281   3.344 -1.2122 -0.2476 -0.3785
   8823SM   H4F11825   0.949   2.289   3.274  1.3585 -1.0119  2.4481
   8823SM   H4G11826   0.849   2.173   3.367  0.7744 -0.3070  0.8241
   8823SM   C5F11827   0.911   2.358   3.475 -0.0338  1.0829  0.3655
   8823SM   H5F11828   0.991   2.296   3.521 -1.6193 -2.0502 -0.8065
   8823SM   H5G11829   0.828   2.347   3.548 -0.0340  1.5015  0.4307
   8823SM   C6F11830   0.981   2.491   3.463  0.4178 -0.0264  0.0714
   8823SM   H6F11831   0.902   2.561   3.427 -0.5382 -1.0142  0.1912
   8823SM   H6G11832   1.064   2.480   3.391 -0.9711  1.2014 -1.8215
   8823SM   C7F11833   1.014   2.550   3.602  0.8342 -0.2105 -0.4489
   8823SM   H7F11834   0.927   2.560   3.669  2.1019  1.0091  1.0941
   8823SM   H7G11835   1.046   2.656   3.597 -1.4568  0.6151  0.9837
   8823SM   C8F11836   1.128   2.487   3.675 -0.2859  0.0713 -0.5312
   8823SM   H8F11837   1.218   2.484   3.611  1.8598 -0.9790  2.3374
   8823SM   H8G11838   1.111   2.379   3.695  0.5576  0.2131  1.1257
   8823SM   C9F11839   1.159   2.543   3.818  0.5983  0.1743  0.5517
   8823SM   H9F11840   1.172   2.653   3.823 -0.5728  0.4121 -0.9328
   8823SM   H9G11841   1.264   2.515   3.839  0.0365 -1.2858  1.5491
   8823SM  C10F11842   1.067   2.496   3.929 -0.1719 -0.4707  0.4091
   8823SM  H10F11843   0.971   2.545   3.902  1.3739  1.8388 -1.2440
   8823SM  H10G11844   1.106   2.547   4.020  1.1158  0.3214 -0.5578
   8823SM  C11F11845   1.037   2.347   3.950 -0.0697  0.3108  0.2046
   8823SM  H11F11846   1.009   2.291   3.858  0.4296 -1.4834  1.0948
   8823SM  H11G11847   0.952   2.338   4.022 -0.1996 -2.6906 -0.1858
   8823SM  C12F11848   1.148   2.264   4.013 -0.2401 -0.5164 -0.2585
   8823SM  H12F11849   1.235   2.270   3.944  0.0893  2.5116  0.2802
   8823SM  H12G11850   1.115   2.158   4.015  2.3356 -1.3909  0.7995
   8823SM  C13F11851   1.202   2.286   4.157  0.1725  0.2574 -0.5230
   8823SM  H13F11852   1.252   2.385   4.166 -0.2892  0.6407 -1.9023
   8823SM  H13G11853   1.277   2.207   4.175 -2.9379 -3.1999 -1.5800
   8823SM  C14F11854   1.106   2.276   4.281 -0.2492  0.4417  0.1051
   8823SM  H14F11855   1.036   2.190   4.282 -1.5306  1.4359  0.0566
   8823SM  H14G11856   1.048   2.371   4.278 -0.1627  0.6197  2.2290
   8823SM  C15F11857   1.172   2.276   4.413 -0.3855 -0.8815  0.2829
   8823SM  H15F11858   1.226   2.371   4.436 -1.3965 -0.0491 -0.6464
   8823SM  H15G11859   1.238   2.187   4.409  0.1724 -0.4252 -1.8778
   8823SM  C16F11860   1.065   2.245   4.520 -0.7859  0.4504  1.0562
   8823SM  H16F11861   1.120   2.247   4.616  0.5765  1.8811  0.2784
   8823SM  H16G11862   1.024   2.142   4.507  1.1358 -0.7628  3.5558
   8823SM  C17F11863   0.973   2.362   4.546  0.0291 -0.3713  0.3001
   8823SM  H17F11864   0.931   2.392   4.448  1.6940  0.2246 -0.2726
   8823SM  H17G11865   1.033   2.451   4.575 -0.8393  0.1545  0.5066
   8823SM  C18F11866   0.860   2.348   4.645 -0.2714 -0.4659 -0.1091
   8823SM  H18F11867   0.795   2.437   4.653  0.2373 -0.0631 -0.3881
   8823SM  H18G11868   0.895   2.337   4.750  2.2153 -1.2678 -0.9300
   8823SM  C19F11869   0.769   2.224   4.625 -0.0778 -0.4722 -0.2023
   8823SM  H19F11870   0.819   2.126   4.611 -1.5767 -1.3017  0.1227
   8823SM  H19G11871   0.709   2.237   4.532  1.3137 -3.2329 -1.6007
   8823SM  C20F11872   0.669   2.208   4.742  0.6495  0.6309  0.5583
   8823SM  H20F11873   0.619   2.306   4.760 -2.4746 -0.3113 -1.9755
   8823SM  H20G11874   0.736   2.179   4.825  1.2519 -0.4359 -0.2807
   8823SM  C21F11875   0.566   2.099   4.722  0.3885  0.6977 -0.1106
   8823SM  H21F11876   0.615   1.999   4.723  0.2125  0.4852 -2.9694
   8823SM  H21G11877   0.512   2.099   4.624 -0.4581 -1.6496  0.2701
   8823SM  C22F11878   0.454   2.086   4.829 -0.6616 -0.8415  0.1427
   8823SM  H22F11879   0.420   2.189   4.854  0.9264 -0.5440  1.2343
   8823SM  H22G11880   0.495   2.049   4.925 -2.2087 -0.3113  1.0584
   8823SM  C23F11881   0.343   1.985   4.797  0.0893  0.2340  0.2590
   8823SM  H23F11882   0.396   1.888   4.790  0.0050 -0.0533  2.7767
   8823SM  H23G11883   0.297   2.008   4.699 -1.0410  2.9326  1.3227
   8823SM  H23H11884   0.262   1.984   4.873  0.9880 -2.2432  1.2985
   8923SM     N11885   3.490   2.660   2.001 -0.6500  0.2105 -0.3463
   8923SM   C1511886   3.547   2.522   1.992 -0.0878  0.5976 -0.0142
   8923SM  H15A11887   3.626   2.502   2.063 -0.0201 -3.2384 -0.9563
   8923SM  H15B11888   3.583   2.508   1.892 -0.0307 -1.5477  0.2547
   8923SM  H15C11889   3.478   2.443   2.020  1.4582  0.1846  3.0425
   8923SM   C1411890   3.588   2.766   1.976 -0.9510 -0.1476  0.0545
   8923SM  H14A11891   3.659   2.761   2.057 -0.3025 -0.4911 -0.5226
   8923SM  H14B11892   3.546   2.865   1.967 -0.5198 -0.1245 -2.1373
   8923SM  H14C11893   3.635   2.745   1.881 -2.2688  1.4990 -1.0090
   8923SM   C1311894   3.374   2.680   1.910 -0.3010 -0.1500 -0.4046
   8923SM  H13A11895   3.339   2.783   1.913 -0.1164 -0.0925 -0.2245
   8923SM  H13B11896   3.293   2.619   1.947 -1.3756 -0.0564 -2.4606
   8923SM  H13C11897   3.401   2.658   1.808 -0.0022 -0.9053 -0.1645
   8923SM   C1211898   3.449   2.670   2.149 -0.4082 -0.2047  0.1927
   8923SM  H12A11899   3.527   2.628   2.211 -0.3063  0.5391  0.5799
   8923SM  H12B11900   3.369   2.598   2.153  2.2875 -3.6074 -1.4411
   8923SM   C1111901   3.423   2.818   2.204 -0.4432 -0.4566  0.0430
   8923SM  H11A11902   3.386   2.804   2.308 -2.2673  0.4489 -0.4367
   8923SM  H11B11903   3.344   2.848   2.131  0.5159  1.9024 -0.1109
   8923SM     P11904   3.500   3.064   2.234  0.1663  0.3539 -0.0174
   8923SM   O1311905   3.612   3.146   2.192 -0.3157  0.2601  0.1973
   8923SM   O1411906   3.366   3.106   2.180 -0.0815  0.4161 -0.5302
   8923SM   O1111907   3.497   3.066   2.391  0.2261 -0.2700  0.0453
   8923SM   O1211908   3.530   2.916   2.196  0.3477  0.1469  0.1236
   8923SM   C1S11909   3.601   3.115   2.466 -0.6586 -0.9217  0.0177
   8923SM   H1S11910   3.637   3.213   2.430 -0.5146 -0.6154  0.9788
   8923SM   H1T11911   3.690   3.049   2.463 -0.4384 -0.6767  0.8649
   8923SM    NF11912   3.648   3.249   2.667  0.1667  0.0342 -0.2425
   8923SM   HNF11913   3.720   3.215   2.727 -0.0468 -0.3779 -0.2161
   8923SM   C2S11914   3.559   3.151   2.611 -0.6015  0.0148  0.2056
   8923SM   H2S11915   3.457   3.195   2.609 -0.1952  0.9782  0.0586
   8923SM   C3S11916   3.553   3.018   2.693  0.7807  0.0288 -0.6107
   8923SM   H3S11917   3.652   2.967   2.683  1.1127  0.5668 -0.1219
   8923SM    O311918   3.458   2.922   2.642  0.5422 -0.4445 -0.0349
   8923SM   HO311919   3.422   2.971   2.568  2.3640  0.3166 -0.4848
   8923SM   C4S11920   3.516   3.038   2.838 -0.8214  0.1560  0.7521
   8923SM   H4S11921   3.432   3.106   2.858 -2.0848 -1.3344  0.6971
   8923SM   C5S11922   3.579   2.992   2.951  0.2439 -0.6034 -0.1721
   8923SM   H5S11923   3.671   2.932   2.945  0.9988  0.4555  0.6617
   8923SM   C6S11924   3.525   3.024   3.084  0.1038  0.3065 -0.0362
   8923SM   H6S11925   3.502   2.928   3.137 -0.3694  0.5486  0.2061
   8923SM   H6T11926   3.423   3.068   3.087 -0.7915 -1.4896 -1.8573
   8923SM   C7S11927   3.613   3.108   3.178 -0.5429  0.6311 -0.0232
   8923SM   H7S11928   3.652   3.202   3.133 -0.9451  0.1373 -1.4423
   8923SM   H7T11929   3.710   3.054   3.188 -0.6753  0.1858 -0.9884
   8923SM   C8S11930   3.553   3.127   3.317  0.5778  0.1904 -0.3966
   8923SM   H8S11931   3.492   3.037   3.340 -1.2171  1.1499 -1.1667
   8923SM   H8T11932   3.478   3.209   3.307  0.8744  0.6215  0.7673
   8923SM   C9S11933   3.656   3.157   3.425 -0.3060  0.4397 -0.4094
   8923SM   H9S11934   3.714   3.247   3.393 -0.7284  0.5937 -0.7543
   8923SM   H9T11935   3.734   3.078   3.422  0.2600  0.9618  0.2688
   8923SM  C10S11936   3.614   3.164   3.568  0.0232 -0.2520  0.3294
   8923SM  H10S11937   3.554   3.080   3.609 -1.6362 -0.0428 -1.5305
   8923SM  H10T11938   3.534   3.239   3.587 -0.1596 -0.7718  1.8361
   8923SM  C11S11939   3.728   3.201   3.666 -0.0932 -0.1160  1.0303
   8923SM  H11S11940   3.762   3.301   3.629  0.7396 -0.5911  0.4730
   8923SM  H11T11941   3.808   3.124   3.664  1.2580  1.1957  2.0376
   8923SM  C12S11942   3.669   3.216   3.812  0.2893 -0.5546 -0.2097
   8923SM  H12S11943   3.621   3.122   3.846  1.0999 -1.0218 -0.3346
   8923SM  H12T11944   3.599   3.303   3.814 -1.2885 -1.7964  1.2273
   8923SM  C13S11945   3.768   3.265   3.913  0.6020  0.1218 -0.0215
   8923SM  H13S11946   3.800   3.366   3.880  0.2998  0.8166  1.6754
   8923SM  H13T11947   3.865   3.211   3.914  1.1863  1.1148  1.0066
   8923SM  C14S11948   3.717   3.260   4.056  0.0982  0.1171  0.0202
   8923SM  H14S11949   3.676   3.157   4.059  0.2317  0.0603  2.4249
   8923SM  H14T11950   3.632   3.331   4.071  0.7420  0.9206 -0.0439
   8923SM  C15S11951   3.836   3.277   4.153  0.1750  0.8602 -0.6634
   8923SM  H15S11952   3.863   3.385   4.145  0.8092  0.6325 -1.7127
   8923SM  H15T11953   3.923   3.229   4.104  0.7295  0.7404  0.4146
   8923SM  C16S11954   3.814   3.229   4.302  0.1352 -0.4375  0.3818
   8923SM  H16S11955   3.711   3.252   4.336  0.4121  0.6176  0.5265
   8923SM  H16T11956   3.883   3.280   4.373  0.4544  0.2387 -0.4048
   8923SM  C17S11957   3.819   3.072   4.299  0.2722  0.1930 -0.1560
   8923SM  H17S11958   3.925   3.044   4.284  1.0364  2.6192  0.2178
   8923SM  H17T11959   3.759   3.042   4.210 -0.9413  1.0217  0.3511
   8923SM  C18S11960   3.760   3.013   4.435  0.0933 -0.8354 -0.6053
   8923SM  H18S11961   3.765   2.902   4.435 -0.4071 -0.8643  0.1718
   8923SM  H18T11962   3.653   3.037   4.447 -0.0226 -0.9554 -1.3117
   8923SM  H18U11963   3.819   3.056   4.518 -1.4266  2.7419 -1.2221
   8923SM   C1F11964   3.640   3.373   2.635  0.1967 -0.6962  0.0065
   8923SM    OF11965   3.553   3.416   2.557  0.0694  0.1297 -0.0339
   8923SM   C2F11966   3.752   3.461   2.675 -0.6095 -0.2932  0.0923
   8923SM   H2F11967   3.815   3.476   2.585 -0.1318  4.1529  0.9585
   8923SM   H2G11968   3.817   3.422   2.757 -1.4200 -0.2126  0.7867
   8923SM   C3F11969   3.709   3.595   2.725  0.1523  0.2298 -0.4725
   8923SM   H3F11970   3.664   3.662   2.649  0.2248  1.1630  0.2993
   8923SM   H3G11971   3.810   3.634   2.749  0.8278 -1.0047 -1.1906
   8923SM   C4F11972   3.617   3.609   2.856  0.1608  0.1263  0.4482
   8923SM   H4F11973   3.511   3.612   2.823  0.1205 -1.8475  0.2429
   8923SM   H4G11974   3.649   3.711   2.885 -1.0206  2.3960 -4.9100
   8923SM   C5F11975   3.638   3.513   2.973 -0.3907 -0.6886 -0.5942
   8923SM   H5F11976   3.749   3.517   2.977 -0.4130  1.9175 -0.8192
   8923SM   H5G11977   3.606   3.412   2.940 -0.7526 -0.6864 -0.2464
   8923SM   C6F11978   3.560   3.579   3.099 -1.0889 -0.2732  0.2508
   8923SM   H6F11979   3.454   3.571   3.066 -0.8770  1.2062 -0.9345
   8923SM   H6G11980   3.581   3.688   3.111 -3.6560  0.0614  2.7724
   8923SM   C7F11981   3.594   3.513   3.237  0.0209 -0.7843  0.0122
   8923SM   H7F11982   3.704   3.505   3.250 -0.1523  0.3370  2.8894
   8923SM   H7G11983   3.551   3.411   3.248  0.5573 -1.1708 -1.3161
   8923SM   C8F11984   3.553   3.614   3.346 -0.1182 -0.3191  0.0458
   8923SM   H8F11985   3.448   3.649   3.339  0.2257  1.2383  1.8158
   8923SM   H8G11986   3.615   3.706   3.336  0.2156 -0.4959  0.4402
   8923SM   C9F11987   3.560   3.552   3.485 -0.5698  0.6413  0.4056
   8923SM   H9F11988   3.661   3.505   3.487 -0.4854  0.8389  1.0603
   8923SM   H9G11989   3.491   3.465   3.483 -0.4212  0.3252  3.6258
   8923SM  C10F11990   3.525   3.645   3.604  1.1606  0.1461  0.3812
   8923SM  H10F11991   3.423   3.682   3.582  1.1404 -0.0246  0.1864
   8923SM  H10G11992   3.588   3.736   3.610 -0.9319  1.6714  0.1460
   8923SM  C11F11993   3.520   3.571   3.738  0.2839  0.0741  0.2115
   8923SM  H11F11994   3.610   3.506   3.748  1.1740  1.2277 -0.1077
   8923SM  H11G11995   3.428   3.509   3.737  1.6497 -2.0612 -0.8210
   8923SM  C12F11996   3.491   3.657   3.859 -0.3109 -0.1700  0.1876
   8923SM  H12F11997   3.388   3.698   3.859 -0.7274 -1.0604 -2.2066
   8923SM  H12G11998   3.564   3.741   3.868  0.8964 -1.2372  0.6663
   8923SM  C13F11999   3.515   3.575   3.989 -0.2471 -0.4853 -0.0486
   8923SM  H13F12000   3.624   3.553   3.992 -0.4194 -1.2353  1.4448
   8923SM  H13G12001   3.484   3.469   3.981  0.7536 -0.8522  0.6358
   8923SM  C14F12002   3.450   3.623   4.120 -0.3180  0.1559 -0.1272
   8923SM  H14F12003   3.340   3.615   4.109 -0.4679 -1.6203  2.0030
   8923SM  H14G12004   3.469   3.730   4.143 -3.0523  0.6753  0.0617
   8923SM  C15F12005   3.485   3.534   4.241  0.7297 -0.1952  0.3909
   8923SM  H15F12006   3.594   3.547   4.257  0.6574  0.4030  0.4009
   8923SM  H15G12007   3.468   3.430   4.203 -2.4608  0.7257 -1.0616
   8923SM  C16F12008   3.413   3.573   4.374 -0.1649  0.6130  0.2417
   8923SM  H16F12009   3.307   3.579   4.343 -0.7692 -0.0245  2.0394
   8923SM  H16G12010   3.442   3.677   4.400  2.0506  0.9989 -3.1183
   8923SM  C17F12011   3.433   3.477   4.490  0.3295  0.0315 -0.8635
   8923SM  H17F12012   3.407   3.373   4.462  0.1072  0.0100 -0.5887
   8923SM  H17G12013   3.350   3.513   4.555  0.4391 -1.0082 -0.1285
   8923SM  C18F12014   3.562   3.480   4.572 -0.1800  0.4190 -0.0179
   8923SM  H18F12015   3.598   3.579   4.607  2.5119 -1.2735  2.4749
   8923SM  H18G12016   3.646   3.421   4.528 -0.4096 -1.8696  2.3354
   8923SM  C19F12017   3.537   3.409   4.715 -0.2959  0.3001 -0.1606
   8923SM  H19F12018   3.631   3.412   4.773 -0.1791  2.1455 -0.3834
   8923SM  H19G12019   3.503   3.306   4.689  0.5021  0.0122 -0.0964
   8923SM  C20F12020   3.440   3.491   4.803  0.0333 -0.6014 -0.4342
   8923SM  H20F12021   3.343   3.502   4.750  0.7633 -0.4547 -1.7857
   8923SM  H20G12022   3.480   3.595   4.802  1.8659 -1.2822 -1.7632
   8923SM  C21F12023   3.426   3.432   4.943  0.6274  0.4787  0.3083
   8923SM  H21F12024   3.346   3.493   4.991 -1.5358 -0.4924 -1.8491
   8923SM  H21G12025   3.517   3.446   5.006  1.2357 -2.1446  0.1287
   8923SM  C22F12026   3.381   3.289   4.966 -0.5303 -0.2916 -0.0558
   8923SM  H22F12027   3.469   3.222   4.953  1.8803  2.5163  0.7617
   8923SM  H22G12028   3.312   3.266   4.882  0.8990 -2.0076 -0.8460
   8923SM  C23F12029   3.321   3.263   5.105  0.3996  0.1640  0.0459
   8923SM  H23F12030   3.298   3.158   5.131 -0.5205  1.0867  3.5381
   8923SM  H23G12031   3.238   3.336   5.119 -1.3665 -1.4751 -1.3861
   8923SM  H23H12032   3.402   3.287   5.178  1.9088 -3.7516 -0.1294
   9023SM     N12033   4.646   2.688   2.343 -0.4691  0.1031  0.0808
   9023SM   C1512034   4.721   2.603   2.243  0.0910  0.4182  0.3679
   9023SM  H15A12035   4.654   2.531   2.197 -0.4302  1.1612 -0.0598
   9023SM  H15B12036   4.802   2.559   2.299 -0.5652  1.0950  1.9238
   9023SM  H15C12037   4.754   2.664   2.161 -0.1024  0.7774  0.5494
   9023SM   C1412038   4.513   2.718   2.288 -0.0659 -0.1490  0.1941
   9023SM  H14A12039   4.455   2.771   2.362  0.0277 -0.9861  0.8807
   9023SM  H14B12040   4.453   2.629   2.274 -1.2504  0.9167 -2.4479
   9023SM  H14C12041   4.522   2.765   2.191 -0.7048 -3.8993 -1.8791
   9023SM   C1312042   4.623   2.611   2.468  1.0377  0.2085  0.0923
   9023SM  H13A12043   4.711   2.581   2.524  1.3607 -1.7991 -1.3848
   9023SM  H13B12044   4.561   2.526   2.448  1.1976  0.2128 -0.4259
   9023SM  H13C12045   4.562   2.676   2.530  1.1082  0.2214  0.1493
   9023SM   C1212046   4.716   2.821   2.374  0.3456 -0.1171  0.0994
   9023SM  H12A12047   4.730   2.870   2.279 -0.3724 -0.2033 -0.0563
   9023SM  H12B12048   4.811   2.798   2.420  0.3085  0.7753  0.6654
   9023SM   C1112049   4.641   2.917   2.470  0.0801  0.2484 -0.3780
   9023SM  H11A12050   4.712   3.001   2.489 -0.6532  1.5600 -3.0023
   9023SM  H11B12051   4.620   2.856   2.561 -3.0640  1.8004  0.0881
   9023SM     P12052   4.485   3.112   2.369  0.0879 -0.1642  0.0442
   9023SM   O1312053   4.613   3.176   2.332 -0.3906  0.4199 -0.2361
   9023SM   O1412054   4.365   3.115   2.282 -0.0900  0.3718 -0.0121
   9023SM   O1112055   4.444   3.173   2.506  0.0174  0.2661 -0.2880
   9023SM   O1212056   4.519   2.963   2.410  0.9307 -0.0480 -0.9411
   9023SM   C1S12057   4.343   3.131   2.591  0.2990 -0.0920  0.2204
   9023SM   H1S12058   4.269   3.057   2.554  0.3944  0.4129 -1.0079
   9023SM   H1T12059   4.288   3.225   2.609  1.1984  0.9692 -2.2137
   9023SM    NF12060   4.295   3.026   2.817 -0.3950  0.5163 -0.3371
   9023SM   HNF12061   4.255   3.088   2.884  0.0181 -1.2690  1.6672
   9023SM   C2S12062   4.403   3.082   2.726  0.5614 -0.4453 -0.6840
   9023SM   H2S12063   4.485   3.011   2.701  0.3666 -0.8245 -0.2586
   9023SM   C3S12064   4.490   3.200   2.794 -0.3819 -1.1239  0.1640
   9023SM   H3S12065   4.432   3.295   2.793  0.4568 -0.5775 -1.9845
   9023SM    O312066   4.611   3.233   2.719 -0.2935 -0.6275 -0.3345
   9023SM   HO312067   4.584   3.235   2.627  2.0890  0.5354 -1.0948
   9023SM   C4S12068   4.530   3.168   2.936  0.0094  1.0829  0.4956
   9023SM   H4S12069   4.463   3.213   3.011 -0.6326  1.1059 -0.0874
   9023SM   C5S12070   4.644   3.099   2.976  0.3567 -0.0147  0.2207
   9023SM   H5S12071   4.702   3.063   2.890  1.3757  0.5850  0.6454
   9023SM   C6S12072   4.686   3.057   3.111  0.5021 -0.1913 -0.0099
   9023SM   H6S12073   4.768   3.123   3.147  2.6753 -2.1436 -1.0798
   9023SM   H6T12074   4.718   2.953   3.088 -1.3602 -0.4548 -1.7238
   9023SM   C7S12075   4.564   3.050   3.213 -0.1102  0.7943 -0.3276
   9023SM   H7S12076   4.478   2.986   3.184  0.6983 -1.5906  2.1103
   9023SM   H7T12077   4.528   3.155   3.221 -1.3030  0.5806 -2.1939
   9023SM   C8S12078   4.625   3.005   3.349  0.4322 -0.8597  0.0521
   9023SM   H8S12079   4.716   3.066   3.367 -0.1512 -0.3325  1.3071
   9023SM   H8T12080   4.660   2.901   3.335 -0.7531 -1.1080 -1.3159
   9023SM   C9S12081   4.518   3.010   3.460  0.2949  0.5187 -0.6856
   9023SM   H9S12082   4.428   2.955   3.424 -0.1611  0.7544  0.0531
   9023SM   H9T12083   4.489   3.117   3.474 -0.9613  0.1368 -0.2508
   9023SM  C10S12084   4.565   2.936   3.586 -0.6880 -1.0124 -0.5168
   9023SM  H10S12085   4.651   2.986   3.635 -0.7847  2.0377 -3.1258
   9023SM  H10T12086   4.587   2.830   3.564 -1.3477 -0.9040 -1.7820
   9023SM  C11S12087   4.454   2.939   3.701 -0.0785  0.1735  1.2909
   9023SM  H11S12088   4.369   2.875   3.668  0.7121 -0.7777  1.0374
   9023SM  H11T12089   4.407   3.039   3.714 -1.7248 -0.4268  0.1509
   9023SM  C12S12090   4.502   2.895   3.834 -0.5702  0.2659 -0.7240
   9023SM  H12S12091   4.589   2.951   3.872  0.5179 -0.6798 -1.7400
   9023SM  H12T12092   4.533   2.788   3.834 -0.5889  0.2541  0.2733
   9023SM  C13S12093   4.399   2.913   3.952 -0.2154 -1.7867 -0.0614
   9023SM  H13S12094   4.314   2.846   3.928  0.4096 -2.2782 -0.9417
   9023SM  H13T12095   4.358   3.016   3.949  1.2807 -1.1458  0.5613
   9023SM  C14S12096   4.440   2.875   4.093 -0.0492  0.0196  0.7100
   9023SM  H14S12097   4.351   2.879   4.159  0.1766  0.6325  0.9832
   9023SM  H14T12098   4.523   2.933   4.139  1.0866 -1.5737  0.7752
   9023SM  C15S12099   4.496   2.737   4.096  0.4386 -0.2473 -0.3672
   9023SM  H15S12100   4.588   2.749   4.035  0.4035  1.8019 -0.1076
   9023SM  H15T12101   4.432   2.660   4.047 -0.6528 -0.2901  1.0445
   9023SM  C16S12102   4.528   2.697   4.238 -0.0016 -0.1700  0.4536
   9023SM  H16S12103   4.435   2.722   4.295  0.6530 -0.9653  1.9311
   9023SM  H16T12104   4.613   2.755   4.279 -0.1930  1.8268 -1.7263
   9023SM  C17S12105   4.560   2.555   4.252 -0.3316 -0.5095 -0.7654
   9023SM  H17S12106   4.644   2.532   4.183 -0.7008 -1.3483 -0.9548
   9023SM  H17T12107   4.485   2.475   4.233  1.3401 -2.0078 -1.3984
   9023SM  C18S12108   4.615   2.524   4.387 -0.2699 -0.6607 -0.0668
   9023SM  H18S12109   4.702   2.590   4.407 -0.8762  0.6430 -1.5054
   9023SM  H18T12110   4.664   2.425   4.387  1.8772  0.3512  0.1133
   9023SM  H18U12111   4.537   2.535   4.465 -1.9773 -1.0079 -1.6388
   9023SM   C1F12112   4.227   2.918   2.788  0.8573  0.6172 -0.4119
   9023SM    OF12113   4.254   2.858   2.688 -0.4819 -0.4179  0.6205
   9023SM   C2F12114   4.113   2.867   2.873 -0.0274 -0.2119  0.1021
   9023SM   H2F12115   4.024   2.829   2.820  0.2308 -1.1526  0.3240
   9023SM   H2G12116   4.078   2.955   2.932 -1.7756 -1.1075  0.4549
   9023SM   C3F12117   4.165   2.755   2.965 -0.2942  0.9689 -0.1552
   9023SM   H3F12118   4.206   2.677   2.896  0.5124 -0.1083  1.4644
   9023SM   H3G12119   4.086   2.700   3.021  0.4957  0.2963  0.3246
   9023SM   C4F12120   4.271   2.790   3.067 -0.2986 -0.1352  0.5646
   9023SM   H4F12121   4.346   2.854   3.015  0.6951 -0.3729  1.6543
   9023SM   H4G12122   4.326   2.696   3.091  2.4461  1.0910 -0.4448
   9023SM   C5F12123   4.236   2.843   3.199  0.7447  0.0754 -0.3161
   9023SM   H5F12124   4.164   2.928   3.191 -1.4939 -1.4421  2.0290
   9023SM   H5G12125   4.331   2.871   3.248  1.7992 -1.7806 -1.2116
   9023SM   C6F12126   4.173   2.724   3.281  0.0146 -0.4082  0.6032
   9023SM   H6F12127   4.233   2.630   3.276  1.6459  0.6377 -2.1071
   9023SM   H6G12128   4.074   2.707   3.234  0.3209  2.5861 -1.4056
   9023SM   C7F12129   4.157   2.760   3.430 -0.8790  0.0333  0.4620
   9023SM   H7F12130   4.239   2.817   3.478 -1.2203 -0.5562  1.7834
   9023SM   H7G12131   4.149   2.663   3.484  1.7567  0.1716  1.2519
   9023SM   C8F12132   4.021   2.831   3.450 -0.5518  0.4868  0.3389
   9023SM   H8F12133   3.951   2.788   3.376 -0.1714 -1.0573  0.8293
   9023SM   H8G12134   4.033   2.939   3.428  1.0982  0.3920  0.5995
   9023SM   C9F12135   3.961   2.818   3.590  0.1148 -0.3282  0.7576
   9023SM   H9F12136   3.962   2.709   3.614  1.9423 -0.5611 -0.1739
   9023SM   H9G12137   3.858   2.859   3.593 -0.0392 -0.7421  2.5214
   9023SM  C10F12138   4.047   2.897   3.688  0.0044 -0.4816 -0.2227
   9023SM  H10F12139   4.053   3.001   3.649 -0.2383 -0.4731 -0.2364
   9023SM  H10G12140   4.147   2.848   3.687 -0.3882 -1.3047 -1.0559
   9023SM  C11F12141   3.994   2.909   3.826  0.1744  0.5220 -0.0961
   9023SM  H11F12142   3.891   2.949   3.812 -0.2836 -0.4889  0.3456
   9023SM  H11G12143   4.041   2.995   3.879  0.2728 -0.1017  0.8517
   9023SM  C12F12144   4.002   2.780   3.906  0.5143  0.2431 -0.0623
   9023SM  H12F12145   4.103   2.734   3.911 -0.6460 -2.4468  0.8732
   9023SM  H12G12146   3.944   2.699   3.857 -1.5655  0.4251  1.9363
   9023SM  C13F12147   3.953   2.806   4.043  0.7589 -0.4197 -0.6302
   9023SM  H13F12148   3.850   2.846   4.035  1.9166  3.2735  0.8585
   9023SM  H13G12149   4.019   2.880   4.093  1.1630 -0.9919 -0.3057
   9023SM  C14F12150   3.958   2.685   4.141 -0.1637 -0.0981  0.2937
   9023SM  H14F12151   4.058   2.639   4.126 -0.1970 -0.8390  2.1226
   9023SM  H14G12152   3.873   2.622   4.108 -0.5157 -0.1956  1.3578
   9023SM  C15F12153   3.936   2.724   4.284  0.4116  0.4749  0.8137
   9023SM  H15F12154   3.826   2.736   4.295  0.6144  2.1212  1.3807
   9023SM  H15G12155   3.977   2.825   4.306  1.7632 -0.3940  2.4795
   9023SM  C16F12156   3.995   2.630   4.391  1.1200 -0.5468  0.8688
   9023SM  H16F12157   4.104   2.616   4.374  1.0718  0.3977 -0.3141
   9023SM  H16G12158   3.960   2.524   4.381 -0.3310 -0.2696  2.4743
   9023SM  C17F12159   3.969   2.675   4.538  0.8019 -0.4868 -0.1446
   9023SM  H17F12160   3.864   2.701   4.561  1.1499 -0.2736  1.2524
   9023SM  H17G12161   4.035   2.764   4.549  0.6313 -0.1577 -1.5598
   9023SM  C18F12162   4.006   2.566   4.635 -0.0005 -0.4056 -0.2452
   9023SM  H18F12163   4.112   2.534   4.624 -0.2079 -1.5700  0.8197
   9023SM  H18G12164   3.957   2.468   4.617 -0.8346 -0.4851  2.0837
   9023SM  C19F12165   3.964   2.585   4.777 -0.3322 -0.2162  0.6172
   9023SM  H19F12166   3.881   2.657   4.765  0.5832  0.5649 -1.5030
   9023SM  H19G12167   4.045   2.637   4.833 -0.5899  0.6256  0.2295
   9023SM  C20F12168   3.923   2.459   4.867 -0.5284  0.4818 -0.4173
   9023SM  H20F12169   3.995   2.375   4.873 -0.7932  0.1577 -1.6475
   9023SM  H20G12170   3.825   2.423   4.829  0.2231 -2.4962  0.1828
   9023SM  C21F12171   3.911   2.515   5.011  0.0111 -0.5303 -0.0514
   9023SM  H21F12172   3.861   2.614   5.002  2.8428  1.0180  0.0858
   9023SM  H21G12173   4.016   2.524   5.044 -0.2813  0.5296  0.6517
   9023SM  C22F12174   3.833   2.413   5.099 -0.5873 -0.5475 -0.4952
   9023SM  H22F12175   3.896   2.322   5.096  0.1844 -0.0100 -0.9193
   9023SM  H22G12176   3.736   2.379   5.057  0.8641 -1.4315 -3.3958
   9023SM  C23F12177   3.816   2.468   5.241 -0.2248 -0.0105 -0.2830
   9023SM  H23F12178   3.794   2.390   5.316  1.1195  0.2849  0.4397
   9023SM  H23G12179   3.726   2.533   5.252 -0.9684 -1.1092  0.2633
   9023SM  H23H12180   3.906   2.520   5.279  0.2054  0.0444 -1.3437
   9123SM     N12181   4.867   4.804   2.301 -0.7770 -0.5820 -0.4078
   9123SM   C1512182   4.991   4.861   2.256 -0.4139  0.0923 -0.5518
   9123SM  H15A12183   4.992   4.969   2.254 -1.4052  0.0958 -1.1213
   9123SM  H15B12184   5.020   4.829   2.157  1.2003  1.9869 -0.7608
   9123SM  H15C12185   5.067   4.846   2.331 -1.4595  0.7081  0.6713
   9123SM   C1412186   4.760   4.829   2.198  0.1444  0.0245 -0.6632
   9123SM  H14A12187   4.663   4.834   2.245  1.0486 -2.4871  1.7832
   9123SM  H14B12188   4.764   4.746   2.128 -1.2892 -0.4329 -0.2423
   9123SM  H14C12189   4.779   4.923   2.149  2.6286  0.0916  0.3021
   9123SM   C1312190   4.890   4.657   2.302  0.3906  0.3865  0.2163
   9123SM  H13A12191   4.965   4.620   2.370  0.8190 -1.1789 -1.0427
   9123SM  H13B12192   4.914   4.626   2.201  1.7612  0.8682  0.3730
   9123SM  H13C12193   4.806   4.603   2.343  2.6619 -1.5607  2.6082
   9123SM   C1212194   4.830   4.865   2.438  0.0093  0.1848 -0.1533
   9123SM  H12A12195   4.835   4.973   2.438 -2.0388  0.3385  0.9524
   9123SM  H12B12196   4.908   4.834   2.506 -0.6479 -0.6179  0.2443
   9123SM   C1112197   4.701   4.817   2.509  0.1514  0.1497 -0.0281
   9123SM  H11A12198   4.623   4.838   2.433 -0.5286  0.0291  0.6218
   9123SM  H11B12199   4.674   4.876   2.599 -1.4400  0.7166 -0.8315
   9123SM     P12200   4.597   4.577   2.587 -0.1800 -0.0082  0.5894
   9123SM   O1312201   4.503   4.556   2.476 -0.2239  0.1638  0.4163
   9123SM   O1412202   4.665   4.457   2.637  0.0671 -0.2041 -0.9636
   9123SM   O1112203   4.516   4.653   2.701  0.1155  0.3676  0.4671
   9123SM   O1212204   4.712   4.677   2.534 -0.2848  0.2532  0.3267
   9123SM   C1S12205   4.399   4.601   2.760 -0.3808  0.4158 -0.0634
   9123SM   H1S12206   4.347   4.521   2.702 -0.8193  1.6731 -1.4426
   9123SM   H1T12207   4.329   4.686   2.767 -0.0362  0.7734 -0.8652
   9123SM    NF12208   4.293   4.490   2.961  0.0625  0.5629  0.2184
   9123SM   HNF12209   4.225   4.539   3.016 -1.3507 -0.0923 -0.8656
   9123SM   C2S12210   4.413   4.558   2.910  0.2235 -0.2163 -0.1706
   9123SM   H2S12211   4.496   4.484   2.923 -1.2595 -2.3039 -1.7958
   9123SM   C3S12212   4.449   4.691   2.998  0.2022  0.1580  0.3406
   9123SM   H3S12213   4.373   4.770   2.982 -0.7483 -0.7185  0.4532
   9123SM    O312214   4.565   4.758   2.953 -0.8562  0.2951 -0.0795
   9123SM   HO312215   4.566   4.736   2.859 -2.4729 -1.0087  0.1710
   9123SM   C4S12216   4.455   4.652   3.139  0.3745  0.1690 -0.1896
   9123SM   H4S12217   4.536   4.585   3.171 -0.5727 -1.1794 -0.5137
   9123SM   C5S12218   4.377   4.699   3.235  0.1236 -0.1145 -0.0413
   9123SM   H5S12219   4.294   4.766   3.208  0.5625  0.0092 -1.1026
   9123SM   C6S12220   4.389   4.658   3.380 -0.5270  0.7568  0.6582
   9123SM   H6S12221   4.324   4.568   3.391 -0.9597  1.0924  0.8764
   9123SM   H6T12222   4.345   4.729   3.453 -0.4403  0.8351  0.6345
   9123SM   C7S12223   4.529   4.617   3.448  0.4307  0.0759  0.0230
   9123SM   H7S12224   4.603   4.698   3.436 -0.5475  1.4755  2.7671
   9123SM   H7T12225   4.571   4.523   3.404  0.4810  0.2300 -0.2645
   9123SM   C8S12226   4.527   4.597   3.599 -0.3850 -0.5156 -0.9678
   9123SM   H8S12227   4.632   4.575   3.628 -0.3219  1.3851  0.4833
   9123SM   H8T12228   4.460   4.512   3.624 -1.7380  0.9335  0.6954
   9123SM   C9S12229   4.481   4.715   3.679  0.4516  0.2234 -0.5955
   9123SM   H9S12230   4.373   4.716   3.655  0.4873 -0.8644 -0.8311
   9123SM   H9T12231   4.532   4.808   3.647  1.7459 -1.1648 -2.7908
   9123SM  C10S12232   4.487   4.695   3.830 -0.2432 -0.0144 -0.3100
   9123SM  H10S12233   4.435   4.781   3.878 -0.3886  0.2828 -0.9808
   9123SM  H10T12234   4.592   4.699   3.866  0.0941 -3.6250 -0.5344
   9123SM  C11S12235   4.432   4.566   3.899  0.8544 -0.6741 -0.3719
   9123SM  H11S12236   4.494   4.479   3.869  1.0007 -0.6684 -0.0879
   9123SM  H11T12237   4.326   4.540   3.875  0.9719 -1.1525 -0.3807
   9123SM  C12S12238   4.432   4.590   4.054  0.1772  0.2883 -0.2047
   9123SM  H12S12239   4.362   4.667   4.093  1.8209  1.2481  0.9738
   9123SM  H12T12240   4.534   4.619   4.087  0.3185 -2.2903  2.0185
   9123SM  C13S12241   4.395   4.463   4.132  0.4211  0.6989  0.1477
   9123SM  H13S12242   4.471   4.384   4.114 -0.2064 -0.3979  2.0222
   9123SM  H13T12243   4.294   4.425   4.106  0.0111  0.3863  2.0287
   9123SM  C14S12244   4.378   4.497   4.276  0.0976 -0.4639 -0.3506
   9123SM  H14S12245   4.297   4.571   4.289 -2.6137 -3.3982  1.0445
   9123SM  H14T12246   4.478   4.534   4.305 -0.3668  0.4495  0.1067
   9123SM  C15S12247   4.353   4.374   4.361 -0.2220 -0.1312  0.5951
   9123SM  H15S12248   4.351   4.398   4.469 -0.0941 -0.5741  0.7004
   9123SM  H15T12249   4.427   4.292   4.343 -0.7324 -0.1157 -1.9137
   9123SM  C16S12250   4.217   4.302   4.326 -0.3380 -0.5659 -0.1705
   9123SM  H16S12251   4.211   4.252   4.227 -1.8171  1.3758 -1.1388
   9123SM  H16T12252   4.142   4.384   4.327 -1.6196 -1.6808 -1.4711
   9123SM  C17S12253   4.197   4.201   4.440 -0.3202 -0.4356  0.4204
   9123SM  H17S12254   4.203   4.247   4.541 -3.4134 -1.3992  1.1470
   9123SM  H17T12255   4.292   4.142   4.436  0.7209  0.8782  3.0962
   9123SM  C18S12256   4.070   4.119   4.432 -0.4177  0.1049  0.2298
   9123SM  H18S12257   4.069   4.041   4.511 -1.1104 -0.3285 -0.1988
   9123SM  H18T12258   4.065   4.059   4.338  0.5127  0.5086 -0.0908
   9123SM  H18U12259   3.976   4.178   4.424 -0.5344 -0.1732 -0.5636
   9123SM   C1F12260   4.251   4.376   2.905 -0.5840  0.4422  0.8265
   9123SM    OF12261   4.322   4.298   2.842 -0.0401 -0.4082  0.2847
   9123SM   C2F12262   4.108   4.344   2.900  0.0038 -0.1321  0.2086
   9123SM   H2F12263   4.094   4.257   2.833 -2.1506 -2.0933  2.9584
   9123SM   H2G12264   4.051   4.434   2.868 -0.3182 -0.3738  0.0993
   9123SM   C3F12265   4.066   4.301   3.041 -0.0470 -0.2609  0.3146
   9123SM   H3F12266   4.087   4.386   3.109  1.0138  0.3744 -0.7760
   9123SM   H3G12267   4.108   4.202   3.068  0.6853 -0.5817 -1.7882
   9123SM   C4F12268   3.911   4.303   3.038  0.2328  0.1321 -0.9718
   9123SM   H4F12269   3.887   4.250   2.943  2.6937  0.4591 -1.8761
   9123SM   H4G12270   3.875   4.408   3.040 -0.3856 -0.0730  0.8918
   9123SM   C5F12271   3.847   4.231   3.155  0.0503 -0.6441 -0.1021
   9123SM   H5F12272   3.881   4.294   3.241  2.3667  1.1253 -2.1467
   9123SM   H5G12273   3.892   4.130   3.165  1.0584 -0.1448  0.5605
   9123SM   C6F12274   3.694   4.237   3.148  0.2198  0.0147 -0.2036
   9123SM   H6F12275   3.642   4.166   3.216 -1.3664  0.3337 -1.0361
   9123SM   H6G12276   3.673   4.210   3.043  2.4040 -2.3783 -0.1081
   9123SM   C7F12277   3.639   4.373   3.189 -0.4164  0.6974  0.1111
   9123SM   H7F12278   3.535   4.370   3.149  0.2027  0.1706 -1.5198
   9123SM   H7G12279   3.684   4.456   3.130 -1.5498  0.4365 -1.1919
   9123SM   C8F12280   3.654   4.413   3.338  0.0781  0.4791  0.6883
   9123SM   H8F12281   3.754   4.381   3.372 -0.8154  0.8340  3.9664
   9123SM   H8G12282   3.582   4.360   3.404 -0.1076  0.7440  0.6997
   9123SM   C9F12283   3.621   4.562   3.363  0.2603 -0.8876 -0.1601
   9123SM   H9F12284   3.513   4.586   3.351  0.2379 -1.6825 -1.9056
   9123SM   H9G12285   3.667   4.624   3.284 -0.1948 -1.2309 -0.7011
   9123SM  C10F12286   3.670   4.616   3.502  0.4580 -0.3691  0.0124
   9123SM  H10F12287   3.691   4.725   3.507 -0.7179 -0.0808 -0.9267
   9123SM  H10G12288   3.761   4.565   3.542 -0.5008 -0.7042  1.8770
   9123SM  C11F12289   3.564   4.584   3.606  0.4097  0.4987  0.2879
   9123SM  H11F12290   3.538   4.479   3.580  0.8900 -0.1618  2.2701
   9123SM  H11G12291   3.466   4.634   3.596 -0.4127 -1.1822 -0.4140
   9123SM  C12F12292   3.612   4.581   3.750 -0.1444 -0.0918 -1.3480
   9123SM  H12F12293   3.663   4.680   3.759 -2.3036  1.1258 -1.7225
   9123SM  H12G12294   3.682   4.496   3.762  1.1996  0.9001 -1.8178
   9123SM  C13F12295   3.505   4.586   3.861 -0.6708 -0.3633 -0.2130
   9123SM  H13F12296   3.434   4.501   3.853 -1.2183 -0.1347  1.7898
   9123SM  H13G12297   3.448   4.681   3.855  0.5979  0.4141 -0.2403
   9123SM  C14F12298   3.564   4.574   3.999  0.0047  0.2848  0.1558
   9123SM  H14F12299   3.595   4.470   4.022  1.2139  0.9955  2.0009
   9123SM  H14G12300   3.492   4.619   4.070  0.8065  1.8232  0.0313
   9123SM  C15F12301   3.698   4.658   4.029  0.4198 -0.1499  0.5575
   9123SM  H15F12302   3.673   4.754   3.980 -1.6700 -0.2934  1.2670
   9123SM  H15G12303   3.782   4.606   3.978 -0.8369  0.4430 -2.3476
   9123SM  C16F12304   3.730   4.681   4.182 -0.2254 -0.3005  0.4512
   9123SM  H16F12305   3.664   4.765   4.211  1.3074  1.5593 -1.1506
   9123SM  H16G12306   3.836   4.714   4.186 -0.9476  2.7377 -1.9120
   9123SM  C17F12307   3.703   4.555   4.259  0.0045 -0.3681  0.2316
   9123SM  H17F12308   3.755   4.465   4.219  1.8276  0.7571 -0.0334
   9123SM  H17G12309   3.595   4.530   4.270 -0.0683 -0.6555 -0.9342
   9123SM  C18F12310   3.751   4.569   4.404 -0.1707  0.0427 -0.3214
   9123SM  H18F12311   3.667   4.615   4.461 -2.8031 -0.6687 -3.3260
   9123SM  H18G12312   3.842   4.632   4.408  1.1320 -1.7135 -1.1640
   9123SM  C19F12313   3.782   4.433   4.471  0.3833  0.5572 -0.2312
   9123SM  H19F12314   3.871   4.383   4.426 -0.7599  0.8653 -3.0199
   9123SM  H19G12315   3.699   4.360   4.458  1.4191 -0.7556  0.2426
   9123SM  C20F12316   3.789   4.445   4.628 -0.1393 -0.3769  0.0693
   9123SM  H20F12317   3.697   4.485   4.676 -0.6287  0.6884 -1.6731
   9123SM  H20G12318   3.866   4.518   4.660 -1.1297  0.3369  0.8910
   9123SM  C21F12319   3.825   4.307   4.699  0.7197 -0.2281 -0.7848
   9123SM  H21F12320   3.919   4.268   4.656  0.0220 -2.9615 -0.0073
   9123SM  H21G12321   3.750   4.230   4.672  1.1989 -0.2399 -2.1321
   9123SM  C22F12322   3.842   4.325   4.853  0.0503 -0.9926  0.0794
   9123SM  H22F12323   3.896   4.422   4.869 -2.3816  0.0327  3.0644
   9123SM  H22G12324   3.916   4.249   4.886  1.7660 -0.4974 -2.3229
   9123SM  C23F12325   3.710   4.332   4.937 -0.7458  0.0152 -0.0692
   9123SM  H23F12326   3.655   4.418   4.895 -3.0412 -0.8807  0.9585
   9123SM  H23G12327   3.719   4.354   5.045 -0.9593  1.3925 -0.3163
   9123SM  H23H12328   3.661   4.232   4.933 -3.0208  1.0247  1.0715
   9223SM     N12329   2.646   2.778   2.461 -1.0424 -0.1948 -0.1120
   9223SM   C1512330   2.567   2.711   2.362 -0.3940  0.4559  0.0029
   9223SM  H15A12331   2.465   2.745   2.367 -0.7630 -0.3358 -1.4951
   9223SM  H15B12332   2.573   2.603   2.366 -0.9843  0.3933 -0.6707
   9223SM  H15C12333   2.606   2.740   2.265 -1.8049 -1.6032 -1.2710
   9223SM   C1412334   2.633   2.924   2.439  0.4897 -0.4502 -0.6873
   9223SM  H14A12335   2.732   2.966   2.453  0.4583 -0.2359 -1.0987
   9223SM  H14B12336   2.566   2.957   2.517 -1.6635  1.9043 -3.3203
   9223SM  H14C12337   2.598   2.959   2.343  0.1326  0.2532 -0.3091
   9223SM   C1312338   2.594   2.760   2.606 -0.3028 -0.3496  0.0662
   9223SM  H13A12339   2.611   2.851   2.660 -2.4518  2.3164 -3.3277
   9223SM  H13B12340   2.638   2.671   2.649 -0.6522 -0.1901  0.7556
   9223SM  H13C12341   2.490   2.732   2.619 -0.2810 -0.0774  0.8214
   9223SM   C1212342   2.792   2.737   2.457  0.4681  0.5794  0.2387
   9223SM  H12A12343   2.811   2.638   2.496  0.0110  0.1559 -0.5804
   9223SM  H12B12344   2.846   2.801   2.525 -2.8054 -1.0316  4.8188
   9223SM   C1112345   2.854   2.746   2.316 -0.6077 -0.2190  0.1559
   9223SM  H11A12346   2.861   2.851   2.281 -0.2526  0.1911  1.3988
   9223SM  H11B12347   2.799   2.697   2.233 -1.1896 -0.0736  0.4491
   9223SM     P12348   3.027   2.537   2.325  0.6360 -0.1615  0.1671
   9223SM   O1312349   2.926   2.467   2.407  0.4777  0.2100  0.0545
   9223SM   O1412350   3.063   2.483   2.196 -0.1409 -0.0689 -0.3039
   9223SM   O1112351   3.161   2.532   2.404 -0.3071 -0.3799  0.2969
   9223SM   O1212352   2.989   2.689   2.322 -0.0158  0.1042  0.6912
   9223SM   C1S12353   3.175   2.626   2.508  0.4922 -0.9407  0.0074
   9223SM   H1S12354   3.082   2.630   2.568 -2.1569  0.7238 -3.8078
   9223SM   H1T12355   3.191   2.727   2.465  0.6715 -0.2772  1.5571
   9223SM    NF12356   3.306   2.687   2.701 -0.7166  0.1484  0.7617
   9223SM   HNF12357   3.361   2.768   2.682  2.0169 -0.7909  3.7932
   9223SM   C2S12358   3.295   2.592   2.591  0.2952  0.0778  0.0401
   9223SM   H2S12359   3.272   2.492   2.634 -0.8038  0.0742 -0.5072
   9223SM   C3S12360   3.427   2.591   2.511  0.5891 -0.1409  0.2162
   9223SM   H3S12361   3.445   2.696   2.483  1.5676 -0.4560 -0.3549
   9223SM    O312362   3.419   2.515   2.395  0.2914 -0.1438  0.6803
   9223SM   HO312363   3.325   2.518   2.373  0.6640  1.8828 -0.9704
   9223SM   C4S12364   3.540   2.539   2.601  0.0080 -0.5210  0.3721
   9223SM   H4S12365   3.541   2.429   2.593 -0.0447 -0.4586 -0.7034
   9223SM   C5S12366   3.636   2.616   2.649  0.0700  0.1588  0.4740
   9223SM   H5S12367   3.643   2.725   2.636  0.1959 -0.0368 -1.5836
   9223SM   C6S12368   3.766   2.557   2.706  0.2094  0.1965  0.3810
   9223SM   H6S12369   3.848   2.572   2.631  0.2417  0.5354  0.4835
   9223SM   H6T12370   3.758   2.450   2.733 -2.2503  0.2851  0.1591
   9223SM   C7S12371   3.808   2.624   2.838  0.1643  0.2438  0.8467
   9223SM   H7S12372   3.819   2.730   2.808 -0.4884  0.4441  1.2758
   9223SM   H7T12373   3.908   2.590   2.872 -0.6152 -0.7562  2.3047
   9223SM   C8S12374   3.713   2.596   2.958 -0.7487  0.2508 -0.1533
   9223SM   H8S12375   3.704   2.485   2.949  1.3639 -0.2631  2.6104
   9223SM   H8T12376   3.610   2.637   2.953 -0.9278 -0.1866 -0.1794
   9223SM   C9S12377   3.768   2.641   3.093  0.4338 -0.1746  0.0986
   9223SM   H9S12378   3.795   2.748   3.088  1.9509 -0.5592 -0.7452
   9223SM   H9T12379   3.855   2.583   3.130 -0.2284  0.0569  2.1339
   9223SM  C10S12380   3.666   2.614   3.196  0.9088 -0.0523 -0.4129
   9223SM  H10S12381   3.651   2.506   3.219 -1.0014  0.1818 -0.3643
   9223SM  H10T12382   3.568   2.653   3.163 -0.4999 -1.6130  1.6269
   9223SM  C11S12383   3.680   2.700   3.327 -0.6835  0.0266 -0.0331
   9223SM  H11S12384   3.673   2.810   3.313  2.2153  0.6010  1.9930
   9223SM  H11T12385   3.782   2.696   3.371 -0.8155  0.7240  0.3404
   9223SM  C12S12386   3.572   2.663   3.431  0.0520 -0.0076  0.1204
   9223SM  H12S12387   3.579   2.555   3.457  4.2134  0.1722  0.2811
   9223SM  H12T12388   3.469   2.689   3.398  0.0299  0.5608  0.6101
   9223SM  C13S12389   3.600   2.739   3.561 -0.1151 -0.3409  0.4971
   9223SM  H13S12390   3.611   2.847   3.534 -0.7356 -0.7683 -1.7173
   9223SM  H13T12391   3.696   2.694   3.594  0.0111  0.1859  0.8564
   9223SM  C14S12392   3.500   2.713   3.674 -0.2351 -0.0764  0.3005
   9223SM  H14S12393   3.489   2.603   3.684 -1.8694 -0.0866 -1.2076
   9223SM  H14T12394   3.409   2.773   3.658 -0.3384  0.0646  1.3223
   9223SM  C15S12395   3.549   2.780   3.803  0.7170  0.3368  0.3087
   9223SM  H15S12396   3.572   2.888   3.792  2.0088  0.2270  1.5360
   9223SM  H15T12397   3.646   2.736   3.835  0.7982  0.9431  0.9271
   9223SM  C16S12398   3.441   2.759   3.904  0.6336  0.5251  0.0052
   9223SM  H16S12399   3.427   2.649   3.915  1.9426  0.2122 -1.1144
   9223SM  H16T12400   3.352   2.808   3.859 -0.8695 -1.3555  0.7983
   9223SM  C17S12401   3.474   2.831   4.034  0.5908  0.2713  0.2613
   9223SM  H17S12402   3.484   2.940   4.015  0.4274  0.2352 -0.0372
   9223SM  H17T12403   3.571   2.789   4.067 -0.6506 -1.4015  2.0496
   9223SM  C18S12404   3.370   2.799   4.141 -0.4402  0.2663  0.3140
   9223SM  H18S12405   3.269   2.832   4.109  0.3399  2.7235  0.1956
   9223SM  H18T12406   3.391   2.849   4.238 -0.3530  1.6690 -0.4133
   9223SM  H18U12407   3.357   2.689   4.153 -1.3772  0.3614  0.2328
   9223SM   C1F12408   3.229   2.680   2.806  0.2008  0.2589  0.3087
   9223SM    OF12409   3.183   2.570   2.838 -0.1166 -0.2116  0.6501
   9223SM   C2F12410   3.212   2.803   2.892  0.7830  0.8256 -0.2798
   9223SM   H2F12411   3.128   2.862   2.850  0.6731 -0.3166 -1.7770
   9223SM   H2G12412   3.300   2.866   2.866  1.8582 -0.7452 -0.5956
   9223SM   C3F12413   3.203   2.772   3.043  0.2751 -0.3872 -0.2215
   9223SM   H3F12414   3.300   2.733   3.081 -0.4344 -1.4816  0.5193
   9223SM   H3G12415   3.127   2.692   3.055 -0.9081  0.5491 -1.1890
   9223SM   C4F12416   3.167   2.889   3.132  0.4261 -0.4560  0.1823
   9223SM   H4F12417   3.060   2.919   3.122  1.1782  2.0515 -1.2138
   9223SM   H4G12418   3.225   2.976   3.093 -0.1437 -0.9995 -2.0391
   9223SM   C5F12419   3.199   2.863   3.281 -0.1584 -0.3965 -0.1468
   9223SM   H5F12420   3.308   2.841   3.290 -0.2371  0.1042  4.0414
   9223SM   H5G12421   3.142   2.777   3.321  0.0998 -0.2619  0.5325
   9223SM   C6F12422   3.162   2.994   3.354 -0.6638 -0.4805  0.7018
   9223SM   H6F12423   3.051   2.998   3.345 -0.9573 -1.0939  3.2215
   9223SM   H6G12424   3.217   3.080   3.309 -2.5872  0.8971  0.8320
   9223SM   C7F12425   3.198   2.989   3.501 -0.1629 -0.4024 -0.0664
   9223SM   H7F12426   3.305   2.963   3.514 -0.0369  0.8315  1.7484
   9223SM   H7G12427   3.130   2.910   3.541 -0.1217 -0.6256 -0.4407
   9223SM   C8F12428   3.191   3.126   3.573  0.5976 -0.6867  0.4503
   9223SM   H8F12429   3.088   3.166   3.561  0.0823 -1.9958  0.2812
   9223SM   H8G12430   3.269   3.194   3.533  1.6477 -2.0094  0.1648
   9223SM   C9F12431   3.214   3.100   3.728 -0.2636 -0.9394  0.4206
   9223SM   H9F12432   3.312   3.049   3.732 -0.2072 -0.8007  0.9821
   9223SM   H9G12433   3.141   3.030   3.773  0.3114 -1.7809  0.0633
   9223SM  C10F12434   3.219   3.234   3.801 -0.0461  0.3562  0.2173
   9223SM  H10F12435   3.129   3.297   3.789  0.1518  0.7169  0.5648
   9223SM  H10G12436   3.292   3.309   3.763 -0.0227  0.6963  0.8996
   9223SM  C11F12437   3.218   3.209   3.952  1.3221 -1.0101  0.5630
   9223SM  H11F12438   3.321   3.174   3.972  1.7967  0.5276  0.9650
   9223SM  H11G12439   3.146   3.128   3.976 -1.0276  0.7317 -0.2327
   9223SM  C12F12440   3.174   3.335   4.025 -0.2922 -0.3397  0.2510
   9223SM  H12F12441   3.070   3.342   3.985  0.5963 -0.1488 -2.2149
   9223SM  H12G12442   3.222   3.432   3.998 -1.3545 -0.0725 -0.7716
   9223SM  C13F12443   3.188   3.331   4.187  0.6680 -0.8933 -0.0752
   9223SM  H13F12444   3.156   3.428   4.231  0.6980 -0.8834 -0.0752
   9223SM  H13G12445   3.296   3.324   4.210  0.4447 -0.1696  1.2829
   9223SM  C14F12446   3.115   3.217   4.255 -0.0161 -0.0614 -0.1410
   9223SM  H14F12447   3.134   3.128   4.191 -1.0086  0.8697 -1.8076
   9223SM  H14G12448   3.005   3.230   4.244 -0.2758 -2.0908 -0.2580
   9223SM  C15F12449   3.143   3.198   4.402 -0.4531 -0.2298  0.2846
   9223SM  H15F12450   3.118   3.286   4.465 -0.2605 -0.0804  0.1577
   9223SM  H15G12451   3.252   3.183   4.418 -0.0795  2.4868  0.7700
   9223SM  C16F12452   3.066   3.075   4.457 -0.2501  0.2981  0.0184
   9223SM  H16F12453   3.095   2.988   4.394 -0.4170  0.1043  0.2117
   9223SM  H16G12454   2.958   3.097   4.449 -0.5277 -0.9238  0.3103
   9223SM  C17F12455   3.088   3.029   4.604 -0.3368  0.2889  0.8949
   9223SM  H17F12456   3.003   2.967   4.641 -1.1791  0.5892 -0.4461
   9223SM  H17G12457   3.089   3.121   4.666 -2.3249  1.0823 -0.1347
   9223SM  C18F12458   3.214   2.942   4.616 -0.2870 -0.4801  0.2062
   9223SM  H18F12459   3.308   3.002   4.616  0.3874 -1.4997  0.3958
   9223SM  H18G12460   3.221   2.872   4.530 -3.1546 -1.8690  1.0154
   9223SM  C19F12461   3.218   2.833   4.727  0.3755 -0.6999 -0.3342
   9223SM  H19F12462   3.119   2.783   4.733  1.1195 -2.2535 -0.7168
   9223SM  H19G12463   3.239   2.889   4.820 -0.8740  0.4515 -0.7092
   9223SM  C20F12464   3.334   2.735   4.700 -0.0430 -0.4682 -0.2149
   9223SM  H20F12465   3.335   2.716   4.591 -0.0532 -0.8504 -0.1495
   9223SM  H20G12466   3.313   2.637   4.748 -1.3681  0.1320  0.4684
   9223SM  C21F12467   3.467   2.798   4.743 -0.3497  0.4437 -0.0640
   9223SM  H21F12468   3.467   2.824   4.851 -0.8355  1.8788 -0.3868
   9223SM  H21G12469   3.482   2.895   4.692 -0.3906  0.0165 -0.9070
   9223SM  C22F12470   3.586   2.706   4.704  0.0305  0.2723 -0.0094
   9223SM  H22F12471   3.604   2.619   4.771  0.1752 -0.6453 -1.2158
   9223SM  H22G12472   3.673   2.774   4.699  1.0345 -0.9620  0.2195
   9223SM  C23F12473   3.574   2.642   4.563  0.4670  0.0759 -0.7292
   9223SM  H23F12474   3.490   2.569   4.570  0.5837  0.0940  1.2425
   9223SM  H23G12475   3.666   2.585   4.537 -0.3252 -0.9168 -1.4338
   9223SM  H23H12476   3.558   2.708   4.475 -0.6901 -1.7329 -1.9436
   9323SM     N12477   6.081   4.304   2.446 -0.3613 -0.6689 -1.1069
   9323SM   C1512478   6.188   4.238   2.366  0.4261  0.7658  0.8052
   9323SM  H15A12479   6.201   4.132   2.386 -1.2633  0.2802 -0.4151
   9323SM  H15B12480   6.286   4.275   2.389  0.2981  1.5922  0.0686
   9323SM  H15C12481   6.165   4.248   2.261  2.3454  2.0471  0.4677
   9323SM   C1412482   6.126   4.307   2.596  0.4856  0.6874  0.5840
   9323SM  H14A12483   6.145   4.207   2.633  0.4022  0.3806 -0.1816
   9323SM  H14B12484   6.038   4.344   2.648 -0.5801 -0.8871 -0.0109
   9323SM  H14C12485   6.215   4.367   2.601 -0.3959  1.9551  2.0097
   9323SM   C1312486   6.076   4.447   2.401  0.2927 -0.6882 -0.1147
   9323SM  H13A12487   6.176   4.484   2.419  0.1538 -1.7948  3.7029
   9323SM  H13B12488   6.005   4.494   2.468  1.2245 -0.7131  0.9220
   9323SM  H13C12489   6.046   4.453   2.298 -1.3146  0.5974  0.3875
   9323SM   C1212490   5.949   4.229   2.437 -0.1039 -0.2322  0.2067
   9323SM  H12A12491   5.977   4.127   2.418 -0.5701 -0.4717  0.7821
   9323SM  H12B12492   5.901   4.263   2.346  1.1867 -3.1452 -1.7265
   9323SM   C1112493   5.847   4.256   2.545 -0.5552  0.3145 -0.7859
   9323SM  H11A12494   5.839   4.365   2.562 -0.1973  0.2203  0.0510
   9323SM  H11B12495   5.878   4.220   2.646  0.2303  1.4945 -0.5849
   9323SM     P12496   5.680   4.057   2.527 -0.0048  0.0809 -0.2616
   9323SM   O1312497   5.569   4.025   2.433  0.1372  0.4355 -0.3440
   9323SM   O1412498   5.798   3.973   2.520 -0.7330  0.4774  0.0727
   9323SM   O1112499   5.624   4.067   2.676  0.1893  0.5912 -0.0810
   9323SM   O1212500   5.725   4.208   2.502  0.2436  0.3490 -0.2731
   9323SM   C1S12501   5.598   4.181   2.752  0.3403 -0.1039  0.3660
   9323SM   H1S12502   5.503   4.225   2.714  0.1845 -0.4694  0.3296
   9323SM   H1T12503   5.667   4.268   2.747 -1.2030  1.1755  0.2680
   9323SM    NF12504   5.529   4.255   2.984  0.0125  0.5295 -0.1562
   9323SM   HNF12505   5.581   4.311   3.049  1.1098 -2.2376  1.5367
   9323SM   C2S12506   5.588   4.147   2.907 -0.0057  0.1165 -0.0750
   9323SM   H2S12507   5.519   4.060   2.907 -1.5420  1.2737  0.6232
   9323SM   C3S12508   5.725   4.102   2.963 -0.4896  0.6863  0.1303
   9323SM   H3S12509   5.797   4.187   2.969 -2.7498  2.6426  3.3358
   9323SM    O312510   5.791   4.010   2.879 -0.1415 -0.2137  0.3533
   9323SM   HO312511   5.730   4.009   2.805 -1.2897 -2.2225  1.2449
   9323SM   C4S12512   5.707   4.064   3.106  0.4325  0.2795  0.6837
   9323SM   H4S12513   5.696   4.148   3.176  0.7971 -0.2887  1.4464
   9323SM   C5S12514   5.683   3.937   3.150  0.5646  0.2377  0.0521
   9323SM   H5S12515   5.691   3.854   3.078 -0.7275  0.6272 -0.5593
   9323SM   C6S12516   5.649   3.897   3.291  0.7008 -0.7942  0.3819
   9323SM   H6S12517   5.556   3.837   3.277  0.2978  0.1635 -1.2272
   9323SM   H6T12518   5.616   3.975   3.364 -1.7899 -1.3323 -0.0776
   9323SM   C7S12519   5.759   3.796   3.337 -0.4599 -0.4773  0.4430
   9323SM   H7S12520   5.848   3.858   3.362  1.2507 -2.0604 -1.2789
   9323SM   H7T12521   5.792   3.732   3.252  1.0669 -0.2015  0.7949
   9323SM   C8S12522   5.702   3.707   3.446  0.0609  0.3550 -0.0460
   9323SM   H8S12523   5.771   3.623   3.472  1.4977  1.9458  1.5385
   9323SM   H8T12524   5.605   3.666   3.412  1.5119 -2.4366 -1.1853
   9323SM   C9S12525   5.683   3.779   3.578  0.0990 -0.3229 -0.3929
   9323SM   H9S12526   5.609   3.862   3.583 -0.6723 -1.0849  1.8920
   9323SM   H9T12527   5.777   3.831   3.608 -0.0368 -1.0395  1.3681
   9323SM  C10S12528   5.624   3.686   3.685  0.0032 -0.2380 -0.1988
   9323SM  H10S12529   5.696   3.609   3.719 -2.4878 -1.9357  1.6665
   9323SM  H10T12530   5.538   3.629   3.644  0.2547 -0.9839  0.2948
   9323SM  C11S12531   5.591   3.759   3.812  0.4436  0.5593 -0.8847
   9323SM  H11S12532   5.530   3.850   3.796  0.8769  0.5823 -2.5248
   9323SM  H11T12533   5.686   3.796   3.857 -0.1870  0.8198  0.2763
   9323SM  C12S12534   5.533   3.669   3.922 -0.4892  0.5292 -0.3054
   9323SM  H12S12535   5.602   3.582   3.925 -0.7561  0.2496 -1.8849
   9323SM  H12T12536   5.438   3.626   3.883  0.7138 -1.5455 -1.1205
   9323SM  C13S12537   5.516   3.740   4.060 -0.4538 -0.1235  0.2552
   9323SM  H13S12538   5.460   3.834   4.043 -0.5593 -0.2533 -0.1411
   9323SM  H13T12539   5.614   3.769   4.104 -0.4848 -0.9730  0.9098
   9323SM  C14S12540   5.454   3.665   4.173  0.5026  0.1903 -0.3290
   9323SM  H14S12541   5.508   3.569   4.188  0.5191  0.4059  1.0785
   9323SM  H14T12542   5.349   3.633   4.156  0.2175 -0.4222  2.2268
   9323SM  C15S12543   5.461   3.724   4.313 -0.5339  0.1424 -0.3154
   9323SM  H15S12544   5.562   3.767   4.326 -0.3500 -0.1111 -0.8533
   9323SM  H15T12545   5.397   3.814   4.329  0.3355  0.9008 -0.9590
   9323SM  C16S12546   5.445   3.616   4.413 -0.1882 -0.1750 -0.0661
   9323SM  H16S12547   5.524   3.539   4.397 -0.9761 -0.9209 -0.3940
   9323SM  H16T12548   5.354   3.557   4.392  0.8285 -1.8336 -0.0370
   9323SM  C17S12549   5.445   3.674   4.559  0.6748  0.3752  1.1868
   9323SM  H17S12550   5.366   3.752   4.562 -0.5546 -0.5392 -2.0857
   9323SM  H17T12551   5.539   3.729   4.579 -0.2270  2.9390 -1.0274
   9323SM  C18S12552   5.427   3.564   4.663  0.4192 -0.0702  0.1986
   9323SM  H18S12553   5.503   3.483   4.653 -1.8265 -2.0519 -2.3952
   9323SM  H18T12554   5.334   3.505   4.647  0.3665 -0.7675  2.5792
   9323SM  H18U12555   5.422   3.606   4.766 -0.5017 -1.6941  0.8603
   9323SM   C1F12556   5.401   4.299   2.982 -0.3789 -0.3675  0.5579
   9323SM    OF12557   5.320   4.250   2.898 -0.6251 -0.2696 -0.1936
   9323SM   C2F12558   5.362   4.411   3.078  0.4313 -0.0381  0.1629
   9323SM   H2F12559   5.294   4.472   3.015  0.7806  0.0775 -0.1063
   9323SM   H2G12560   5.451   4.471   3.107  0.0433 -0.1525  1.6968
   9323SM   C3F12561   5.299   4.359   3.210  0.2852  0.2319  0.6025
   9323SM   H3F12562   5.225   4.279   3.190  0.2326  0.6221 -0.8957
   9323SM   H3G12563   5.250   4.449   3.253  0.7702  0.3288  0.9734
   9323SM   C4F12564   5.407   4.310   3.311  0.5904  0.4166  0.3968
   9323SM   H4F12565   5.468   4.396   3.345 -1.1938  1.6432  0.6475
   9323SM   H4G12566   5.476   4.236   3.266  0.3554 -0.2658  1.1366
   9323SM   C5F12567   5.341   4.249   3.442 -0.3106  0.7080  0.8089
   9323SM   H5F12568   5.280   4.159   3.421  0.2808  0.5377 -0.2244
   9323SM   H5G12569   5.272   4.321   3.491  0.5141  1.3210  1.1153
   9323SM   C6F12570   5.451   4.211   3.544  0.1054 -0.0423 -0.0615
   9323SM   H6F12571   5.494   4.311   3.565 -0.9025  0.5852 -0.9200
   9323SM   H6G12572   5.538   4.147   3.519  0.1187  0.3995 -1.1800
   9323SM   C7F12573   5.399   4.151   3.674 -0.0608  0.5980 -0.0095
   9323SM   H7F12574   5.420   4.042   3.669  3.2738  1.0952  0.8035
   9323SM   H7G12575   5.290   4.170   3.674 -0.2303 -0.2711 -1.2846
   9323SM   C8F12576   5.483   4.197   3.791  0.0112  0.0768 -0.0603
   9323SM   H8F12577   5.462   4.129   3.876  1.8767  2.6641  2.7190
   9323SM   H8G12578   5.481   4.304   3.823  2.2845  0.2887 -0.4422
   9323SM   C9F12579   5.635   4.175   3.783 -1.0063 -0.4014  0.7653
   9323SM   H9F12580   5.682   4.248   3.714 -0.1803 -1.3044  0.3354
   9323SM   H9G12581   5.661   4.077   3.736  2.2505  0.0831  1.2952
   9323SM  C10F12582   5.708   4.182   3.916  0.0912 -0.7104  0.4069
   9323SM  H10F12583   5.669   4.094   3.972 -0.4555 -1.7209 -1.4657
   9323SM  H10G12584   5.680   4.275   3.970  0.7920 -1.1013  1.4788
   9323SM  C11F12585   5.853   4.163   3.888  0.1834  0.4746  0.7513
   9323SM  H11F12586   5.881   4.248   3.822 -1.6704 -0.4544 -1.3840
   9323SM  H11G12587   5.866   4.069   3.829 -0.9271 -0.3875  1.8433
   9323SM  C12F12588   5.941   4.167   4.013 -0.0629  0.0682  0.5232
   9323SM  H12F12589   5.905   4.075   4.064  2.5687 -0.3166  1.8468
   9323SM  H12G12590   5.908   4.250   4.078 -1.6130  1.6667 -2.1271
   9323SM  C13F12591   6.092   4.165   3.984 -0.1666 -0.0270  0.1615
   9323SM  H13F12592   6.113   4.257   3.926 -2.7711  0.7356  0.3071
   9323SM  H13G12593   6.122   4.072   3.931  1.5748 -0.4006  1.6693
   9323SM  C14F12594   6.168   4.166   4.117 -0.0068 -0.0031 -0.0803
   9323SM  H14F12595   6.270   4.125   4.102 -0.2366  0.0573 -2.0464
   9323SM  H14G12596   6.125   4.085   4.180  1.1979 -0.7985 -0.2322
   9323SM  C15F12597   6.196   4.299   4.187 -0.2230  0.0714 -0.8724
   9323SM  H15F12598   6.109   4.355   4.226  0.7693  0.3419  1.0617
   9323SM  H15G12599   6.254   4.373   4.128 -0.8639  1.6936  0.4670
   9323SM  C16F12600   6.283   4.280   4.312  0.0366  0.1255 -0.4046
   9323SM  H16F12601   6.381   4.241   4.279  0.7210  2.5157 -1.3792
   9323SM  H16G12602   6.235   4.200   4.374 -0.2356  2.3113  2.4195
   9323SM  C17F12603   6.307   4.414   4.385  1.0042  0.3627 -0.3795
   9323SM  H17F12604   6.311   4.495   4.309  1.7244 -0.6342 -1.4531
   9323SM  H17G12605   6.405   4.422   4.436  1.0936 -3.0466  0.2291
   9323SM  C18F12606   6.191   4.450   4.487  0.0425  0.3209  1.2697
   9323SM  H18F12607   6.164   4.367   4.555 -0.3275 -0.0427  0.6867
   9323SM  H18G12608   6.101   4.478   4.428 -0.2355  0.1757  1.6253
   9323SM  C19F12609   6.220   4.584   4.560 -0.2217 -0.6223 -0.9157
   9323SM  H19F12610   6.243   4.664   4.487  0.3825  3.2804  3.1071
   9323SM  H19G12611   6.311   4.576   4.623  0.2978  0.9322 -1.4314
   9323SM  C20F12612   6.093   4.642   4.635  0.4012  0.1109  0.3307
   9323SM  H20F12613   6.026   4.570   4.687  0.2146  1.8696  2.6677
   9323SM  H20G12614   6.029   4.675   4.550  0.6940 -0.7199 -0.2231
   9323SM  C21F12615   6.138   4.752   4.726  0.3654 -0.2330  0.3755
   9323SM  H21F12616   6.221   4.820   4.697  1.4665 -1.0650  1.5110
   9323SM  H21G12617   6.186   4.696   4.809  0.4264  1.2477  1.3858
   9323SM  C22F12618   6.035   4.842   4.798 -0.0545 -0.0096 -0.1840
   9323SM  H22F12619   5.963   4.767   4.836  1.2161 -0.9752  0.3539
   9323SM  H22G12620   5.986   4.920   4.735  2.2957  2.0781  0.3754
   9323SM  C23F12621   6.096   4.927   4.922 -0.5633  0.2340  0.1257
   9323SM  H23F12622   6.030   5.008   4.960  0.4675  1.4449 -0.5886
   9323SM  H23G12623   6.190   4.967   4.879  0.1230 -1.9515 -0.5272
   9323SM  H23H12624   6.122   4.859   5.006  0.2476  1.1874  0.6600
   9423SM     N12625   6.198   0.175   2.525 -0.4618  0.5096 -0.9126
   9423SM   C1512626   6.246   0.040   2.571 -1.4423 -0.1530 -0.4512
   9423SM  H15A12627   6.353   0.037   2.553 -1.2593  0.8535  0.3595
   9423SM  H15B12628   6.197  -0.033   2.508 -3.2561  1.7437 -1.3457
   9423SM  H15C12629   6.228   0.019   2.675 -3.1280 -0.5356 -0.7880
   9423SM   C1412630   6.204   0.184   2.377  0.8034  0.3304 -0.1820
   9423SM  H14A12631   6.167   0.279   2.341  2.4096  0.8488 -0.5458
   9423SM  H14B12632   6.140   0.112   2.329  0.8680 -0.3273  0.6994
   9423SM  H14C12633   6.303   0.179   2.334  1.3077 -1.5933  1.1202
   9423SM   C1312634   6.050   0.188   2.557  0.4320 -0.8505 -0.2577
   9423SM  H13A12635   5.981   0.164   2.477  1.3001  1.1788 -1.7305
   9423SM  H13B12636   6.030   0.284   2.601 -0.3320 -1.8193  1.6008
   9423SM  H13C12637   6.020   0.125   2.639  0.8575  2.7845  2.9316
   9423SM   C1212638   6.282   0.284   2.586  0.2760 -0.0232  0.7030
   9423SM  H12A12639   6.265   0.377   2.533  1.0854  0.2049  0.8379
   9423SM  H12B12640   6.383   0.251   2.567 -0.1441 -1.3937  0.7609
   9423SM   C1112641   6.284   0.319   2.738  0.5451  0.9845  0.0682
   9423SM  H11A12642   6.184   0.350   2.775  0.6272  0.5132  0.7075
   9423SM  H11B12643   6.349   0.405   2.762  1.3997  0.6662 -0.9980
   9423SM     P12644   6.477   0.160   2.818 -0.2959 -0.4685 -0.5174
   9423SM   O1312645   6.482   0.027   2.878  0.6561 -0.4536 -0.0084
   9423SM   O1412646   6.553   0.185   2.689  0.2869 -0.2731 -0.6625
   9423SM   O1112647   6.535   0.264   2.924 -0.9720  0.1652  0.1036
   9423SM   O1212648   6.326   0.202   2.802  0.1942  0.3392 -0.6179
   9423SM   C1S12649   6.463   0.339   3.009  0.4844 -0.1746 -0.3411
   9423SM   H1S12650   6.354   0.320   3.005  0.0796  1.5030  1.3454
   9423SM   H1T12651   6.482   0.447   2.992  1.6355 -0.2669  0.2807
   9423SM    NF12652   6.434   0.406   3.250  0.2371 -0.4085 -0.3055
   9423SM   HNF12653   6.484   0.486   3.282 -1.6858  1.0722 -0.8053
   9423SM   C2S12654   6.504   0.318   3.159 -0.5264  0.5864 -0.2363
   9423SM   H2S12655   6.468   0.217   3.188 -3.2108  2.0142  1.8757
   9423SM   C3S12656   6.662   0.308   3.177 -0.3072 -0.7433  0.3629
   9423SM   H3S12657   6.697   0.411   3.154 -1.2207 -0.0646  1.8340
   9423SM    O312658   6.744   0.248   3.082 -0.4103  0.5074  0.6536
   9423SM   HO312659   6.693   0.236   3.002  1.7678 -1.8518 -0.5335
   9423SM   C4S12660   6.706   0.276   3.314 -0.7270 -0.2056 -0.2862
   9423SM   H4S12661   6.705   0.357   3.388 -0.6641 -0.9099  0.4973
   9423SM   C5S12662   6.737   0.155   3.357 -0.4359  0.6485 -0.7810
   9423SM   H5S12663   6.736   0.065   3.294  1.0836  1.6104 -2.2644
   9423SM   C6S12664   6.790   0.117   3.499 -0.0730 -0.0002 -0.0766
   9423SM   H6S12665   6.885   0.066   3.471 -0.8492 -0.4496 -2.0157
   9423SM   H6T12666   6.722   0.047   3.552 -0.3380  0.2893 -0.0364
   9423SM   C7S12667   6.820   0.236   3.595 -0.4931  0.3213 -0.6064
   9423SM   H7S12668   6.735   0.293   3.636 -0.0963 -1.0487  2.4266
   9423SM   H7T12669   6.882   0.297   3.526  0.2579  0.2700  0.0090
   9423SM   C8S12670   6.900   0.176   3.711 -0.3077  0.5189  0.0022
   9423SM   H8S12671   6.933   0.265   3.769  0.5019  0.3508 -0.1927
   9423SM   H8T12672   6.994   0.127   3.678 -1.1993 -1.2465 -0.0471
   9423SM   C9S12673   6.825   0.098   3.819  0.0409  0.0687  0.0739
   9423SM   H9S12674   6.757   0.023   3.773 -0.7658  1.3513 -0.8639
   9423SM   H9T12675   6.751   0.165   3.866  1.0503  2.3969 -1.5034
   9423SM  C10S12676   6.913   0.040   3.927  0.6090  0.7199  0.4751
   9423SM  H10S12677   6.986   0.112   3.969 -0.5430  1.3306  1.5149
   9423SM  H10T12678   6.963  -0.052   3.891 -1.3786  0.1601 -1.0448
   9423SM  C11S12679   6.827  -0.018   4.045  0.7366 -0.1164  0.4479
   9423SM  H11S12680   6.783  -0.111   4.003  2.6986 -0.0554 -1.9957
   9423SM  H11T12681   6.736   0.042   4.063 -0.2761 -1.8383  1.3582
   9423SM  C12S12682   6.909  -0.040   4.168 -0.1538  0.1588 -1.1338
   9423SM  H12S12683   6.967   0.050   4.196  0.3126 -1.1454  2.5978
   9423SM  H12T12684   6.996  -0.107   4.152  1.2709  1.5960  0.2009
   9423SM  C13S12685   6.833  -0.070   4.302  0.5987 -0.3368  0.7954
   9423SM  H13S12686   6.768  -0.160   4.292  1.0082 -0.4245 -1.7411
   9423SM  H13T12687   6.769   0.020   4.316  0.5728 -0.0050 -1.2068
   9423SM  C14S12688   6.936  -0.094   4.415 -0.0626  0.7389 -0.2539
   9423SM  H14S12689   6.885  -0.097   4.514  0.8770 -1.2626  0.2237
   9423SM  H14T12690   7.020  -0.022   4.406 -0.9072  1.6640 -0.9700
   9423SM  C15S12691   6.999  -0.240   4.419 -0.2424 -0.4204  0.0590
   9423SM  H15S12692   7.072  -0.241   4.335 -0.2338  0.8229  0.0430
   9423SM  H15T12693   6.934  -0.324   4.384  0.9882 -1.2249 -0.3958
   9423SM  C16S12694   7.040  -0.287   4.560  0.3762  0.2889 -0.6216
   9423SM  H16S12695   6.955  -0.308   4.629  1.5538 -1.5646  0.3415
   9423SM  H16T12696   7.094  -0.202   4.606  1.2145 -0.1182 -0.8407
   9423SM  C17S12697   7.123  -0.416   4.562  0.2087 -0.1138 -0.2635
   9423SM  H17S12698   7.223  -0.405   4.514 -0.0812 -1.5370 -1.2650
   9423SM  H17T12699   7.067  -0.487   4.497  1.1679  0.8334 -2.2330
   9423SM  C18S12700   7.139  -0.486   4.694 -0.2794  0.2268 -0.2087
   9423SM  H18S12701   7.039  -0.497   4.741 -1.1251  2.7228 -1.2366
   9423SM  H18T12702   7.201  -0.430   4.767  0.9152 -0.1262 -0.9387
   9423SM  H18U12703   7.194  -0.580   4.676 -1.6421 -0.3395 -1.6263
   9423SM   C1F12704   6.303   0.390   3.270  0.4184  0.9605  0.6690
   9423SM    OF12705   6.251   0.286   3.242 -0.2473  0.4409  0.4419
   9423SM   C2F12706   6.224   0.516   3.318 -0.2523 -0.3462 -0.3937
   9423SM   H2F12707   6.141   0.532   3.246 -1.2721 -0.9520  0.6028
   9423SM   H2G12708   6.296   0.600   3.311  0.3347 -0.7500  0.6152
   9423SM   C3F12709   6.172   0.516   3.460  0.4012  0.3179  0.2827
   9423SM   H3F12710   6.101   0.434   3.480  0.0012  0.6736  0.3293
   9423SM   H3G12711   6.112   0.608   3.473  0.9750  1.0392 -1.8373
   9423SM   C4F12712   6.271   0.514   3.573  0.1245  0.2058 -0.5782
   9423SM   H4F12713   6.338   0.426   3.562  1.0504  0.9884 -1.5494
   9423SM   H4G12714   6.221   0.512   3.672  0.7020 -2.0532 -0.2856
   9423SM   C5F12715   6.368   0.629   3.578 -0.0118 -0.0187  0.3569
   9423SM   H5F12716   6.302   0.719   3.577 -0.2228 -0.1633 -1.2329
   9423SM   H5G12717   6.438   0.626   3.492  0.0097 -1.8185  0.3941
   9423SM   C6F12718   6.457   0.622   3.701 -0.1420  0.3341  0.1267
   9423SM   H6F12719   6.394   0.615   3.792  1.2122 -1.5158  0.9762
   9423SM   H6G12720   6.492   0.727   3.705 -1.1749  0.8105 -1.7549
   9423SM   C7F12721   6.572   0.519   3.706  0.1616  0.3197  1.0112
   9423SM   H7F12722   6.633   0.520   3.614 -0.3120 -1.0605  0.6727
   9423SM   H7G12723   6.522   0.421   3.710  1.0033 -0.1678  0.0638
   9423SM   C8F12724   6.681   0.529   3.814 -0.1540 -0.6652 -0.1550
   9423SM   H8F12725   6.711   0.636   3.827  0.6783 -1.0175  0.8823
   9423SM   H8G12726   6.767   0.463   3.793 -0.7793 -0.9258 -2.1389
   9423SM   C9F12727   6.621   0.491   3.944  0.4935  0.0424 -0.3919
   9423SM   H9F12728   6.577   0.389   3.943 -0.3000  0.3689 -2.3182
   9423SM   H9G12729   6.542   0.565   3.969  0.2431 -0.6714  1.0885
   9423SM  C10F12730   6.723   0.506   4.059 -0.2670  0.0806 -0.5720
   9423SM  H10F12731   6.759   0.612   4.061 -1.0919  0.3605  0.3016
   9423SM  H10G12732   6.813   0.444   4.035 -0.5856 -0.8307  0.4987
   9423SM  C11F12733   6.659   0.482   4.195 -0.4205  0.6785 -0.9106
   9423SM  H11F12734   6.554   0.517   4.189 -0.3124  2.0211  2.5499
   9423SM  H11G12735   6.706   0.554   4.265 -0.8809 -1.3447  1.6464
   9423SM  C12F12736   6.673   0.336   4.236 -0.0967 -0.2432  0.2861
   9423SM  H12F12737   6.776   0.302   4.212  0.8528  1.1259  2.1918
   9423SM  H12G12738   6.609   0.274   4.170 -0.2523 -0.6226  0.7892
   9423SM  C13F12739   6.639   0.308   4.377 -0.3762 -0.4611  0.3602
   9423SM  H13F12740   6.644   0.198   4.392  1.9818 -0.9326 -2.8348
   9423SM  H13G12741   6.532   0.339   4.378 -0.0635  0.6800  1.7412
   9423SM  C14F12742   6.736   0.369   4.479  0.6243 -0.5003  0.1070
   9423SM  H14F12743   6.686   0.349   4.576 -2.3409  1.6416 -0.8204
   9423SM  H14G12744   6.748   0.480   4.483  1.5964 -0.5578 -0.7027
   9423SM  C15F12745   6.877   0.308   4.477 -0.0240  0.1689  0.3202
   9423SM  H15F12746   6.945   0.367   4.412  1.7434 -3.2326 -1.1540
   9423SM  H15G12747   6.884   0.203   4.440  1.0709  0.3364  0.0233
   9423SM  C16F12748   6.948   0.301   4.615  0.1547 -0.5720 -0.4689
   9423SM  H16F12749   7.032   0.228   4.608  0.1227 -0.6355 -0.1991
   9423SM  H16G12750   6.886   0.247   4.690  0.2764  0.7075  0.5835
   9423SM  C17F12751   6.978   0.431   4.687 -0.2540  0.9139  0.2605
   9423SM  H17F12752   6.889   0.494   4.706 -0.6196  0.2651  0.7147
   9423SM  H17G12753   7.047   0.496   4.629  1.4484 -0.6314  0.4550
   9423SM  C18F12754   7.034   0.403   4.828 -0.6468 -0.1302  0.4204
   9423SM  H18F12755   7.139   0.367   4.822 -0.3424  0.3646  2.0808
   9423SM  H18G12756   6.983   0.319   4.880  0.6319 -0.8578  0.5404
   9423SM  C19F12757   7.039   0.531   4.903  0.1879 -0.2909 -0.1239
   9423SM  H19F12758   7.075   0.602   4.826 -1.4982  0.6243 -0.1191
   9423SM  H19G12759   7.117   0.516   4.981 -0.3423  0.9644  0.6757
   9423SM  C20F12760   6.903   0.580   4.954  0.1746  1.0504  0.4693
   9423SM  H20F12761   6.856   0.511   5.028 -0.8693 -0.4733 -1.5388
   9423SM  H20G12762   6.828   0.606   4.877  0.3095  0.1396  0.0136
   9423SM  C21F12763   6.922   0.709   5.034 -0.1978  0.8070 -0.2824
   9423SM  H21F12764   6.988   0.781   4.980  0.8996  1.0304  1.3024
   9423SM  H21G12765   6.975   0.682   5.128  1.4281  0.4275 -1.2735
   9423SM  C22F12766   6.794   0.785   5.061  0.3737  0.5807  0.4150
   9423SM  H22F12767   6.725   0.715   5.114 -0.5452 -0.0910 -1.5605
   9423SM  H22G12768   6.745   0.829   4.971 -0.0677  2.7050  1.6267
   9423SM  C23F12769   6.802   0.906   5.148 -0.0106 -0.0846 -0.3024
   9423SM  H23F12770   6.835   0.889   5.253 -1.5982 -0.3298  0.1716
   9423SM  H23G12771   6.702   0.954   5.153 -2.1408 -3.5832 -3.6492
   9423SM  H23H12772   6.875   0.971   5.095 -0.8335  1.6769  0.6427
   9523SM     N12773   1.662   1.682   2.387  0.0026  0.0326 -0.6187
   9523SM   C1512774   1.618   1.546   2.412  0.1473  0.2538 -0.0958
   9523SM  H15A12775   1.688   1.497   2.479  2.0117  1.9464 -0.7059
   9523SM  H15B12776   1.614   1.494   2.317  2.0325 -1.2305  0.5660
   9523SM  H15C12777   1.523   1.556   2.462 -0.1664 -1.9779 -0.1325
   9523SM   C1412778   1.808   1.674   2.366  0.2263  0.6441  0.3125
   9523SM  H14A12779   1.860   1.762   2.332  0.4518  0.9563  1.4227
   9523SM  H14B12780   1.819   1.590   2.299 -0.6650  0.5564  0.2714
   9523SM  H14C12781   1.864   1.643   2.453 -1.9748 -0.1198  1.5302
   9523SM   C1312782   1.597   1.740   2.264  0.5855  0.2343 -0.5112
   9523SM  H13A12783   1.620   1.682   2.176 -3.7182 -1.3438 -0.8155
   9523SM  H13B12784   1.615   1.845   2.247  2.4443 -0.1677 -1.3203
   9523SM  H13C12785   1.491   1.732   2.282  0.7112 -1.3365 -0.3577
   9523SM   C1212786   1.644   1.766   2.513 -0.2324 -0.5606 -0.7027
   9523SM  H12A12787   1.672   1.868   2.490  0.1228 -0.6577 -0.7103
   9523SM  H12B12788   1.702   1.729   2.596 -0.8734 -3.1675 -1.3178
   9523SM   C1112789   1.509   1.764   2.588 -0.4293  0.2127 -0.0344
   9523SM  H11A12790   1.529   1.831   2.674  0.6758 -1.3016  0.9603
   9523SM  H11B12791   1.495   1.670   2.646 -1.6825  0.9148  0.8372
   9523SM     P12792   1.357   1.953   2.484 -0.0324  0.0981  0.2909
   9523SM   O1312793   1.471   2.030   2.427  0.1260 -0.3847  0.4961
   9523SM   O1412794   1.227   1.962   2.406 -0.3407 -0.0312  0.1194
   9523SM   O1112795   1.323   2.004   2.627 -0.0108 -0.0953  0.5039
   9523SM   O1212796   1.389   1.800   2.513 -0.2221  0.0470 -0.5613
   9523SM   C1S12797   1.204   1.952   2.688  0.2922  0.5367  0.9424
   9523SM   H1S12798   1.189   1.844   2.669 -0.3819  0.0964  3.4771
   9523SM   H1T12799   1.112   1.998   2.645 -1.3790 -2.3800  1.1286
   9523SM    NF12800   1.071   1.915   2.896 -0.0568 -0.1650 -0.1584
   9523SM   HNF12801   0.992   1.974   2.907 -0.9383 -1.3095 -0.1726
   9523SM   C2S12802   1.197   1.973   2.846  0.3425  0.0064  0.3133
   9523SM   H2S12803   1.278   1.912   2.891  0.4739 -0.6275 -0.7418
   9523SM   C3S12804   1.227   2.120   2.886 -0.0519 -0.5236  0.1686
   9523SM   H3S12805   1.167   2.192   2.827 -0.6356 -2.2764 -1.4608
   9523SM    O312806   1.363   2.155   2.855 -0.0639  0.4419 -0.0978
   9523SM   HO312807   1.388   2.094   2.785  2.7742  0.3557  0.8746
   9523SM   C4S12808   1.185   2.150   3.031 -0.7182  0.6102 -0.8581
   9523SM   H4S12809   1.094   2.211   3.040 -0.8928  0.0449  2.2673
   9523SM   C5S12810   1.248   2.110   3.143 -0.2036  0.2962  0.2238
   9523SM   H5S12811   1.349   2.067   3.144 -0.9204 -1.5659  2.5764
   9523SM   C6S12812   1.209   2.139   3.283  0.0795  0.0428 -0.2860
   9523SM   H6S12813   1.147   2.060   3.332 -1.0283  1.8930  1.4703
   9523SM   H6T12814   1.157   2.236   3.300  1.0406  0.9069 -2.0345
   9523SM   C7S12815   1.336   2.138   3.384  0.1498 -0.1838 -0.4435
   9523SM   H7S12816   1.420   2.194   3.337 -0.4784  2.7307  1.6246
   9523SM   H7T12817   1.370   2.033   3.396 -2.2588 -0.9488  0.2373
   9523SM   C8S12818   1.315   2.211   3.515 -1.1098 -0.1151  0.1591
   9523SM   H8S12819   1.222   2.172   3.560 -0.3835 -0.1374  1.6791
   9523SM   H8T12820   1.303   2.321   3.500  0.6628  0.6454  3.4011
   9523SM   C9S12821   1.434   2.182   3.603  0.4456 -0.0442  0.2004
   9523SM   H9S12822   1.532   2.192   3.552  1.3879 -0.5556  1.8031
   9523SM   H9T12823   1.431   2.074   3.630 -2.3629 -0.4521 -1.3954
   9523SM  C10S12824   1.445   2.277   3.724 -0.4958 -0.1333 -0.1095
   9523SM  H10S12825   1.357   2.271   3.791 -0.3668 -0.6162  0.0197
   9523SM  H10T12826   1.461   2.384   3.699  0.8164 -0.2264  0.2457
   9523SM  C11S12827   1.577   2.242   3.807 -0.0256  0.2623  0.3090
   9523SM  H11S12828   1.671   2.270   3.754  0.7418 -0.4714  1.2397
   9523SM  H11T12829   1.568   2.132   3.817  0.4735  0.3464  1.9303
   9523SM  C12S12830   1.583   2.299   3.946 -0.1588 -0.6174 -0.2060
   9523SM  H12S12831   1.496   2.260   4.004 -0.8671 -0.6597 -1.2688
   9523SM  H12T12832   1.561   2.407   3.958 -3.0517 -1.1725  0.3298
   9523SM  C13S12833   1.710   2.264   4.025  0.3145 -0.4233 -0.5982
   9523SM  H13S12834   1.797   2.300   3.967  0.7418 -1.7649 -0.8213
   9523SM  H13T12835   1.715   2.155   4.045 -3.5805 -0.3061  2.1206
   9523SM  C14S12836   1.712   2.335   4.167  0.0393  0.3554 -0.0211
   9523SM  H14S12837   1.677   2.440   4.157  0.0503  0.2661 -1.0274
   9523SM  H14T12838   1.818   2.344   4.202 -1.3586  2.3008  4.4608
   9523SM  C15S12839   1.625   2.265   4.266  0.7436 -0.4352 -0.4097
   9523SM  H15S12840   1.649   2.157   4.280  1.2453 -0.2820 -0.0598
   9523SM  H15T12841   1.526   2.279   4.218 -0.5554 -0.2362  2.1838
   9523SM  C16S12842   1.626   2.346   4.404 -0.3849  1.0683 -0.0729
   9523SM  H16S12843   1.583   2.446   4.381 -1.0601  0.8830  0.3688
   9523SM  H16T12844   1.735   2.359   4.422 -0.3468  2.3279 -1.0942
   9523SM  C17S12845   1.543   2.264   4.511 -0.6548 -0.2259 -0.8019
   9523SM  H17S12846   1.580   2.159   4.509 -0.4477 -0.1483 -1.4418
   9523SM  H17T12847   1.440   2.258   4.470 -0.3321 -1.4716 -1.4967
   9523SM  C18S12848   1.552   2.320   4.661 -0.2509 -0.5220  0.1413
   9523SM  H18S12849   1.660   2.330   4.685 -0.2595 -0.8683  0.3338
   9523SM  H18T12850   1.491   2.256   4.727 -2.9141  1.9199  0.2002
   9523SM  H18U12851   1.520   2.426   4.659  0.7060 -0.2205 -1.1857
   9523SM   C1F12852   1.049   1.785   2.906 -0.0346  0.1654 -0.5453
   9523SM    OF12853   1.114   1.695   2.844  0.1798 -0.0869 -0.5443
   9523SM   C2F12854   0.927   1.742   2.985  0.7630  0.3691  0.4578
   9523SM   H2F12855   0.925   1.631   2.986  0.7678  0.3677  1.1258
   9523SM   H2G12856   0.837   1.781   2.933 -0.6949 -1.3695  1.5110
   9523SM   C3F12857   0.916   1.791   3.131  1.0607 -0.1237  0.3518
   9523SM   H3F12858   0.830   1.732   3.169 -0.6300  0.5823 -2.1255
   9523SM   H3G12859   0.894   1.900   3.126 -0.0017 -0.2478  1.8387
   9523SM   C4F12860   1.042   1.768   3.214 -0.1708  0.6152  0.0806
   9523SM   H4F12861   1.128   1.832   3.184 -0.3760  0.0801 -1.7971
   9523SM   H4G12862   1.052   1.658   3.202  1.9540  0.8734 -1.0432
   9523SM   C5F12863   1.015   1.789   3.363  0.1190  0.0046  0.1632
   9523SM   H5F12864   0.924   1.732   3.389 -1.4574  1.3555 -2.0755
   9523SM   H5G12865   1.000   1.894   3.396 -1.1817  0.3008 -1.2488
   9523SM   C6F12866   1.134   1.743   3.446  0.0871 -0.4929 -0.0356
   9523SM   H6F12867   1.225   1.795   3.409 -3.3900  4.9827 -2.0584
   9523SM   H6G12868   1.141   1.634   3.423  0.4991 -0.6689  0.8871
   9523SM   C7F12869   1.114   1.753   3.603 -0.0650  0.5813  0.3141
   9523SM   H7F12870   1.187   1.691   3.659  0.0342  0.2784 -0.1455
   9523SM   H7G12871   1.021   1.694   3.620  0.4849 -0.3357  0.1837
   9523SM   C8F12872   1.107   1.895   3.652  0.3373  0.1382 -0.1960
   9523SM   H8F12873   1.039   1.961   3.593  1.8711  2.4234  0.4343
   9523SM   H8G12874   1.207   1.942   3.649  0.5215 -0.2081  0.4339
   9523SM   C9F12875   1.055   1.902   3.801 -0.0090 -0.6055 -0.4040
   9523SM   H9F12876   0.958   1.846   3.806  0.0659 -0.6622  0.5517
   9523SM   H9G12877   1.031   2.010   3.812  1.3948 -0.1330 -1.7017
   9523SM  C10F12878   1.157   1.862   3.909 -0.2084  0.3713 -0.6261
   9523SM  H10F12879   1.238   1.938   3.910  0.0329  0.1156  0.6916
   9523SM  H10G12880   1.213   1.767   3.897  0.9359  0.8468  0.6848
   9523SM  C11F12881   1.093   1.858   4.053 -0.3864 -0.0969  0.5755
   9523SM  H11F12882   1.021   1.774   4.063 -2.7307  1.7261 -0.0982
   9523SM  H11G12883   1.033   1.952   4.049  1.4849  1.1069 -0.5750
   9523SM  C12F12884   1.199   1.857   4.166  0.2891  0.6354 -0.1745
   9523SM  H12F12885   1.255   1.953   4.170 -0.9406  1.3367  2.4428
   9523SM  H12G12886   1.268   1.775   4.137 -0.1478 -0.1094  0.8448
   9523SM  C13F12887   1.149   1.838   4.304  0.1839 -0.4845  0.1502
   9523SM  H13F12888   1.091   1.744   4.314  0.2106 -0.4771  0.3705
   9523SM  H13G12889   1.082   1.922   4.333 -1.5585 -1.7472 -0.0867
   9523SM  C14F12890   1.254   1.837   4.415  0.2194 -0.4930  0.6890
   9523SM  H14F12891   1.297   1.938   4.426 -2.4589  0.7373  0.5429
   9523SM  H14G12892   1.340   1.770   4.394 -1.5202 -2.0099 -2.5145
   9523SM  C15F12893   1.187   1.785   4.542  0.3387  0.2800  0.5854
   9523SM  H15F12894   1.156   1.682   4.512 -2.4391  1.1569  0.1918
   9523SM  H15G12895   1.096   1.845   4.558 -0.8908 -1.0158 -1.1794
   9523SM  C16F12896   1.275   1.773   4.669 -0.1769  0.5586 -0.0185
   9523SM  H16F12897   1.370   1.719   4.646 -0.8464 -0.3740 -0.6717
   9523SM  H16G12898   1.222   1.723   4.752  0.0334 -0.6526 -0.5930
   9523SM  C17F12899   1.302   1.920   4.725 -0.5205  0.1264 -0.3649
   9523SM  H17F12900   1.221   1.973   4.780 -0.0584  1.5804 -1.0141
   9523SM  H17G12901   1.331   1.979   4.635  0.8500  1.9602  1.1947
   9523SM  C18F12902   1.437   1.917   4.800  0.9115 -0.3068 -0.3554
   9523SM  H18F12903   1.478   2.017   4.823  1.2952 -0.3528 -0.8304
   9523SM  H18G12904   1.518   1.876   4.737  0.7462  0.0688 -0.8179
   9523SM  C19F12905   1.425   1.834   4.931 -0.1317 -0.0066  0.5339
   9523SM  H19F12906   1.409   1.725   4.921 -0.4484 -0.3506  3.7652
   9523SM  H19G12907   1.335   1.883   4.974 -0.5270  0.1430 -0.4446
   9523SM  C20F12908   1.546   1.862   5.033 -0.0336 -0.1146  0.0451
   9523SM  H20F12909   1.555   1.972   5.049 -1.2325  0.4248 -2.3671
   9523SM  H20G12910   1.641   1.833   4.984 -0.0881  1.4157 -1.0510
   9523SM  C21F12911   1.541   1.776   5.155  0.0936 -0.3832 -0.0522
   9523SM  H21F12912   1.454   1.806   5.218  0.8508 -0.9564  1.3182
   9523SM  H21G12913   1.635   1.797   5.211 -0.0174  0.9775 -0.3546
   9523SM  C22F12914   1.523   1.624   5.130  0.2346 -1.1545  0.5292
   9523SM  H22F12915   1.418   1.603   5.102  0.1026 -0.2635  0.3319
   9523SM  H22G12916   1.546   1.580   5.229  0.7571  1.9861  1.9064
   9523SM  C23F12917   1.617   1.571   5.021  0.1122  0.1244 -0.0595
   9523SM  H23F12918   1.638   1.463   5.032 -0.4354  0.1530  1.4434
   9523SM  H23G12919   1.720   1.608   5.038  0.1960 -0.8981  1.9466
   9523SM  H23H12920   1.582   1.604   4.920 -0.5872 -2.1480 -0.6271
   9623SM     N12921   4.312   5.146   2.777 -0.1920 -0.6725 -0.5925
   9623SM   C1512922   4.416   5.251   2.812  0.0451 -0.2339 -0.3817
   9623SM  H15A12923   4.383   5.309   2.897  0.9241 -0.1800 -0.0630
   9623SM  H15B12924   4.452   5.308   2.727  0.6724 -1.0343 -0.6807
   9623SM  H15C12925   4.497   5.208   2.869 -0.4363  1.1756  1.4514
   9623SM   C1412926   4.209   5.215   2.695 -0.1435  0.4783  0.1712
   9623SM  H14A12927   4.136   5.141   2.664 -0.3297  0.7515 -0.0427
   9623SM  H14B12928   4.246   5.235   2.596 -0.2151  2.4740  0.5122
   9623SM  H14C12929   4.161   5.297   2.747  0.6106  1.4395 -0.6298
   9623SM   C1312930   4.386   5.045   2.697 -0.2136  0.5506 -0.4600
   9623SM  H13A12931   4.324   4.994   2.625 -0.4913 -0.5896  0.5473
   9623SM  H13B12932   4.445   4.982   2.762 -1.0864  2.1906  2.0824
   9623SM  H13C12933   4.454   5.100   2.634 -0.8196  2.0274  0.1101
   9623SM   C1212934   4.250   5.083   2.898 -0.4165  0.4523 -0.2395
   9623SM  H12A12935   4.177   5.155   2.933  0.3058  0.3304  1.6655
   9623SM  H12B12936   4.326   5.068   2.974 -0.9774 -1.8193 -0.0602
   9623SM   C1112937   4.181   4.945   2.884 -0.0816 -0.0360 -0.1703
   9623SM  H11A12938   4.144   4.922   2.986 -3.2044  0.7619 -1.0198
   9623SM  H11B12939   4.262   4.873   2.860  0.1307  0.2639 -0.3682
   9623SM     P12940   4.013   4.805   2.743  0.0824 -0.1020 -0.0333
   9623SM   O1312941   3.900   4.830   2.651 -0.4239  0.2116 -0.3132
   9623SM   O1412942   4.120   4.717   2.695 -0.0306 -0.9775  0.0813
   9623SM   O1112943   3.954   4.747   2.872  0.8795 -0.4650  0.0584
   9623SM   O1212944   4.075   4.949   2.792 -0.8805  0.0467 -0.0247
   9623SM   C1S12945   3.877   4.822   2.967 -0.2939 -0.1284  0.5749
   9623SM   H1S12946   3.772   4.835   2.932  0.4782  1.9952 -1.2496
   9623SM   H1T12947   3.909   4.928   2.976  0.0356 -0.1670 -0.0957
   9623SM    NF12948   3.791   4.838   3.208  0.2000 -0.3346  0.1830
   9623SM   HNF12949   3.832   4.896   3.278  1.1580 -1.1264  0.3052
   9623SM   C2S12950   3.876   4.758   3.114 -0.1720 -0.6091  0.1581
   9623SM   H2S12951   3.817   4.665   3.098 -0.4012 -0.2322 -1.3604
   9623SM   C3S12952   4.013   4.729   3.169 -0.6141 -0.1386 -0.3453
   9623SM   H3S12953   4.074   4.822   3.181 -0.9814  1.1460 -5.9975
   9623SM    O312954   4.081   4.639   3.073 -0.0304  0.4858 -0.7272
   9623SM   HO312955   4.045   4.655   2.986 -0.8554  0.9769 -0.3141
   9623SM   C4S12956   4.004   4.647   3.298  0.1224  0.0595  0.3460
   9623SM   H4S12957   3.977   4.541   3.285  1.7620 -0.2059 -1.4295
   9623SM   C5S12958   4.061   4.684   3.412  0.2348  0.4513  0.3474
   9623SM   H5S12959   4.131   4.769   3.411  0.9602 -0.1392  0.6361
   9623SM   C6S12960   4.072   4.592   3.529 -0.1627  0.2732  0.1051
   9623SM   H6S12961   4.001   4.632   3.605 -1.1705 -2.0553  0.4649
   9623SM   H6T12962   4.172   4.603   3.578 -0.5438 -1.9780  1.5364
   9623SM   C7S12963   4.061   4.442   3.501  0.0234 -0.0735 -0.5814
   9623SM   H7S12964   4.131   4.401   3.425  2.4612  0.4596  1.2694
   9623SM   H7T12965   3.958   4.422   3.466 -1.1722  1.7212  1.6201
   9623SM   C8S12966   4.088   4.359   3.633  0.1257  0.0178 -0.2582
   9623SM   H8S12967   4.188   4.385   3.674 -0.2460 -1.3671  1.6592
   9623SM   H8T12968   4.096   4.251   3.611  0.0012 -0.2436  0.8962
   9623SM   C9S12969   3.987   4.382   3.744  0.8790  0.5072 -0.5851
   9623SM   H9S12970   3.888   4.354   3.701  1.6532 -2.7556 -0.5528
   9623SM   H9T12971   3.993   4.488   3.775 -2.8065  0.3905  1.1683
   9623SM  C10S12972   4.010   4.277   3.858 -0.2600 -0.0739  0.5862
   9623SM  H10S12973   4.107   4.287   3.912  1.4568 -3.2676 -1.6171
   9623SM  H10T12974   4.030   4.179   3.810 -0.6811  0.3408 -0.4782
   9623SM  C11S12975   3.896   4.276   3.961  0.1663  0.3667 -0.4302
   9623SM  H11S12976   3.804   4.297   3.903 -0.1096  2.0597  0.5532
   9623SM  H11T12977   3.902   4.356   4.038 -0.7510 -1.8566  2.1061
   9623SM  C12S12978   3.883   4.150   4.044 -0.7847 -0.0947 -0.4096
   9623SM  H12S12979   3.977   4.139   4.101  0.2610  0.8972 -1.8843
   9623SM  H12T12980   3.875   4.056   3.985 -1.2908 -0.0212 -0.4687
   9623SM  C13S12981   3.766   4.170   4.144 -0.0001 -0.7179  0.6546
   9623SM  H13S12982   3.677   4.194   4.082  0.9108  2.0895  0.3141
   9623SM  H13T12983   3.789   4.260   4.204 -0.4708 -0.1276 -0.0331
   9623SM  C14S12984   3.746   4.056   4.236  0.1065  0.2546  0.1885
   9623SM  H14S12985   3.845   4.041   4.284 -0.2491  1.5698  1.4176
   9623SM  H14T12986   3.715   3.966   4.179 -2.3617 -0.1542  1.9872
   9623SM  C15S12987   3.635   4.084   4.341  0.2288  0.7308  0.5120
   9623SM  H15S12988   3.553   4.133   4.285  2.4053  2.0548 -1.7473
   9623SM  H15T12989   3.675   4.145   4.425  1.7544  1.9349 -0.9990
   9623SM  C16S12990   3.571   3.951   4.388  0.2214 -0.0052 -0.4068
   9623SM  H16S12991   3.521   3.896   4.306  1.0319 -1.2650 -0.0818
   9623SM  H16T12992   3.483   3.964   4.454 -1.7317  0.3254 -2.9331
   9623SM  C17S12993   3.668   3.858   4.451 -0.7854  0.0350 -0.0762
   9623SM  H17S12994   3.743   3.814   4.381 -1.3607 -0.7324 -0.2168
   9623SM  H17T12995   3.618   3.764   4.485 -1.3161 -0.7461 -2.7656
   9623SM  C18S12996   3.744   3.924   4.572 -0.4014 -0.1062 -0.2204
   9623SM  H18S12997   3.663   3.963   4.638  0.1642  2.1075 -0.7393
   9623SM  H18T12998   3.814   4.005   4.541  0.7219 -0.1939  1.8757
   9623SM  H18U12999   3.800   3.842   4.622 -0.3831  0.8791  1.4725
   9623SM   C1F13000   3.660   4.870   3.191 -0.5797 -0.5608  0.5746
   9623SM    OF13001   3.587   4.841   3.094  0.4117 -0.0829  0.0533
   9623SM   C2F13002   3.614   4.965   3.300 -0.3596 -0.1907 -0.0210
   9623SM   H2F13003   3.655   5.067   3.290  1.5936 -1.1104 -2.3706
   9623SM   H2G13004   3.654   4.927   3.396 -0.9163 -1.8432 -0.4083
   9623SM   C3F13005   3.463   4.989   3.301 -0.3174  0.1523 -0.2927
   9623SM   H3F13006   3.419   5.010   3.201  1.8117 -0.7117 -1.4754
   9623SM   H3G13007   3.449   5.083   3.357 -0.1166 -0.1110  0.2030
   9623SM   C4F13008   3.382   4.870   3.358 -0.0426 -0.4522 -0.2418
   9623SM   H4F13009   3.424   4.849   3.458 -0.8028  0.7669  0.3463
   9623SM   H4G13010   3.386   4.783   3.289 -1.7993 -0.3336 -0.5478
   9623SM   C5F13011   3.232   4.895   3.382 -0.4362 -0.1905  0.0465
   9623SM   H5F13012   3.185   4.795   3.385 -2.9408  0.9361  2.3590
   9623SM   H5G13013   3.198   4.951   3.292  0.7013  1.0543  0.3521
   9623SM   C6F13014   3.186   4.979   3.497 -0.5115 -0.6170  1.1137
   9623SM   H6F13015   3.083   5.017   3.482  0.0094  0.5858  0.4904
   9623SM   H6G13016   3.257   5.063   3.484  0.2115 -1.4645 -0.7286
   9623SM   C7F13017   3.194   4.907   3.632 -0.1056  0.0583  0.1435
   9623SM   H7F13018   3.298   4.883   3.661  0.3821  0.0525 -1.5171
   9623SM   H7G13019   3.151   4.805   3.630  1.5133 -0.7271  2.5420
   9623SM   C8F13020   3.127   4.986   3.745  0.1178  0.0569 -0.2855
   9623SM   H8F13021   3.021   5.013   3.724  0.4314  0.2651 -1.6955
   9623SM   H8G13022   3.190   5.077   3.738  1.2191 -0.6198  0.4653
   9623SM   C9F13023   3.140   4.920   3.877  0.0113  0.0172  0.3309
   9623SM   H9F13024   3.245   4.885   3.878  0.0859  0.1269 -1.3734
   9623SM   H9G13025   3.072   4.833   3.890  0.6468 -0.8901 -1.9567
   9623SM  C10F13026   3.146   5.013   4.002 -1.1678  0.8286  0.0442
   9623SM  H10F13027   3.045   5.053   4.024 -2.3010 -1.0854 -1.3632
   9623SM  H10G13028   3.208   5.103   3.983  0.1593  0.2606  1.4424
   9623SM  C11F13029   3.202   4.942   4.125 -0.1443 -0.3957  0.1179
   9623SM  H11F13030   3.301   4.894   4.111  0.0172  0.0009 -0.1317
   9623SM  H11G13031   3.134   4.860   4.154 -0.1950  0.2559  2.0309
   9623SM  C12F13032   3.187   5.037   4.242 -0.4117 -0.3495 -0.5315
   9623SM  H12F13033   3.085   5.080   4.252 -0.1297 -0.1219  2.3542
   9623SM  H12G13034   3.259   5.121   4.232 -2.1124  1.2196 -0.2147
   9623SM  C13F13035   3.212   4.970   4.374 -0.2422 -0.4434  0.4857
   9623SM  H13F13036   3.308   4.913   4.376 -0.7211 -1.2975 -0.0467
   9623SM  H13G13037   3.141   4.884   4.380  0.9193 -1.3851  1.2733
   9623SM  C14F13038   3.182   5.073   4.479  0.3202 -0.1478 -0.0802
   9623SM  H14F13039   3.073   5.091   4.488  0.6555  1.3230  1.5318
   9623SM  H14G13040   3.232   5.167   4.449 -0.8885  0.0498 -1.6508
   9623SM  C15F13041   3.232   5.028   4.621  0.2570 -0.4296  0.5011
   9623SM  H15F13042   3.334   4.986   4.607  0.4833  0.1780  0.2840
   9623SM  H15G13043   3.153   4.956   4.648 -0.3687 -0.9176 -2.2630
   9623SM  C16F13044   3.233   5.149   4.716 -0.3410 -0.2488  0.0137
   9623SM  H16F13045   3.294   5.226   4.663 -1.3906  3.0640  3.1966
   9623SM  H16G13046   3.278   5.132   4.817 -0.0999  0.6046  0.0561
   9623SM  C17F13047   3.095   5.213   4.735 -0.3608 -0.0814  0.0646
   9623SM  H17F13048   3.038   5.135   4.789  0.5581 -1.2201 -0.5819
   9623SM  H17G13049   3.047   5.248   4.640 -0.8160  1.7267  0.9107
   9623SM  C18F13050   3.077   5.344   4.826  0.5615  0.3757  0.3607
   9623SM  H18F13051   2.972   5.379   4.834  0.2941 -0.3024 -0.1090
   9623SM  H18G13052   3.130   5.425   4.772  0.5328  0.4609  0.4590
   9623SM  C19F13053   3.145   5.325   4.958 -0.3963  0.0273  0.0135
   9623SM  H19F13054   3.253   5.299   4.946  0.1923 -0.3520  4.3697
   9623SM  H19G13055   3.112   5.233   5.012  0.8346 -0.5388 -0.1576
   9623SM  C20F13056   3.133   5.448   5.051 -0.7504 -0.1994  0.4952
   9623SM  H20F13057   3.035   5.500   5.048 -0.7608  0.0223  2.7148
   9623SM  H20G13058   3.216   5.515   5.021 -0.2619 -1.2025 -0.4754
   9623SM  C21F13059   3.159   5.399   5.191 -0.2935  0.0898 -0.4817
   9623SM  H21F13060   3.081   5.325   5.218 -0.1603 -0.0738 -0.5399
   9623SM  H21G13061   3.145   5.485   5.260  2.4169  0.1316  0.1402
   9623SM  C22F13062   3.298   5.327   5.204 -0.4387 -0.1528  0.5491
   9623SM  H22F13063   3.379   5.400   5.183 -0.2905 -1.2718 -3.8375
   9623SM  H22G13064   3.310   5.243   5.132  0.0343  0.3761 -0.0033
   9623SM  C23F13065   3.330   5.266   5.343  0.4525  0.7803  0.1276
   9623SM  H23F13066   3.344   5.349   5.416  0.0617  0.8106  0.1718
   9623SM  H23G13067   3.427   5.212   5.342 -0.5276 -1.0550 -0.8206
   9623SM  H23H13068   3.248   5.197   5.371  1.1125 -0.6540 -1.2963
   9723SM     N13069   4.761   1.914   2.247 -0.2785  0.3055  0.1310
   9723SM   C1513070   4.877   1.989   2.185 -0.0667 -0.3232  0.0436
   9723SM  H15A13071   4.953   1.925   2.143  0.9051  1.9252 -1.7874
   9723SM  H15B13072   4.929   2.052   2.257 -1.1297  0.3322  0.2516
   9723SM  H15C13073   4.849   2.066   2.115  1.7164  0.7327  0.4076
   9723SM   C1413074   4.669   2.010   2.308  0.1252 -0.3301 -0.1508
   9723SM  H14A13075   4.728   2.061   2.383  0.9209  0.6103 -1.3648
   9723SM  H14B13076   4.585   1.957   2.350  0.5417 -0.4927  0.4923
   9723SM  H14C13077   4.632   2.080   2.234  1.6655  2.1689  1.2986
   9723SM   C1313078   4.701   1.835   2.134 -0.0360 -0.0755 -0.4716
   9723SM  H13A13079   4.662   1.895   2.053  2.1995 -0.9283 -2.2821
   9723SM  H13B13080   4.628   1.764   2.171  1.4134 -0.3332  2.1355
   9723SM  H13C13081   4.781   1.782   2.085 -1.1138 -0.9843 -1.3241
   9723SM   C1213082   4.810   1.807   2.345  0.2872 -0.4898  0.0680
   9723SM  H12A13083   4.896   1.838   2.402  0.2872 -1.0070  0.3567
   9723SM  H12B13084   4.829   1.719   2.286 -0.3233  0.7838 -2.1485
   9723SM   C1113085   4.703   1.760   2.453  0.7607  0.1246  0.0151
   9723SM  H11A13086   4.662   1.849   2.505  0.2020 -0.4143  0.5118
   9723SM  H11B13087   4.756   1.702   2.532  0.4985  0.7934  0.6947
   9723SM     P13088   4.449   1.694   2.397 -0.3813 -0.1329  0.3176
   9723SM   O1313089   4.409   1.719   2.256  0.2239  0.0832  0.2541
   9723SM   O1413090   4.397   1.575   2.459 -0.2047  0.5496 -0.2543
   9723SM   O1113091   4.436   1.827   2.483 -0.2342  0.1396  0.4251
   9723SM   O1213092   4.610   1.670   2.396  0.5678  0.2283  0.3372
   9723SM   C1S13093   4.324   1.851   2.570 -0.1657 -0.1138 -0.7454
   9723SM   H1S13094   4.245   1.774   2.559 -1.0057  0.8243 -1.4897
   9723SM   H1T13095   4.285   1.951   2.542  2.6641  0.9488 -1.2356
   9723SM    NF13096   4.269   1.857   2.813 -0.1224  0.2575  0.0584
   9723SM   HNF13097   4.267   1.911   2.897 -3.0570 -1.1219  1.0066
   9723SM   C2S13098   4.374   1.852   2.718 -0.0748  0.6161 -0.5745
   9723SM   H2S13099   4.421   1.752   2.727  0.2672  0.5217 -2.7482
   9723SM   C3S13100   4.478   1.961   2.750  0.5072 -0.3144 -0.2447
   9723SM   H3S13101   4.412   2.046   2.777 -0.5626 -1.2160  0.0776
   9723SM    O313102   4.549   2.020   2.644 -0.4765  0.6945  0.0284
   9723SM   HO313103   4.513   1.964   2.574 -0.1229 -0.8995  1.0486
   9723SM   C4S13104   4.555   1.926   2.868 -0.5934  0.1193 -0.3226
   9723SM   H4S13105   4.518   1.970   2.962 -0.3206  0.9613 -0.6023
   9723SM   C5S13106   4.667   1.861   2.860 -0.9489 -0.1506  0.0862
   9723SM   H5S13107   4.715   1.841   2.764  0.5809 -0.3082  0.8537
   9723SM   C6S13108   4.751   1.829   2.981  0.4950 -0.0588  0.3559
   9723SM   H6S13109   4.857   1.860   2.966  0.0191  1.1362 -0.7629
   9723SM   H6T13110   4.746   1.722   3.009 -1.0570  0.0949  0.7622
   9723SM   C7S13111   4.698   1.905   3.106  0.4171 -0.2001 -0.3762
   9723SM   H7S13112   4.599   1.868   3.138 -0.0040  2.0219  1.0749
   9723SM   H7T13113   4.692   2.014   3.082  0.3182 -0.0912  0.1483
   9723SM   C8S13114   4.781   1.874   3.231  0.0194  0.2116 -0.0711
   9723SM   H8S13115   4.877   1.930   3.228 -1.4019  2.7668 -0.7603
   9723SM   H8T13116   4.798   1.765   3.244 -1.0767  0.0997  0.5619
   9723SM   C9S13117   4.708   1.923   3.357  0.0204 -0.2880  0.1882
   9723SM   H9S13118   4.602   1.891   3.368 -0.3615  1.5207  2.4954
   9723SM   H9T13119   4.708   2.034   3.349 -0.3330 -0.3305 -0.4232
   9723SM  C10S13120   4.782   1.883   3.487 -0.4406  0.1123 -0.1048
   9723SM  H10S13121   4.891   1.904   3.480 -0.0810 -1.5909  0.0874
   9723SM  H10T13122   4.781   1.772   3.491 -1.6083 -0.0357 -2.5978
   9723SM  C11S13123   4.746   1.955   3.625 -1.1313  0.1324 -0.4301
   9723SM  H11S13124   4.732   2.063   3.604 -1.2881  0.7155  2.3753
   9723SM  H11T13125   4.829   1.950   3.698 -0.8325 -4.3559 -0.7860
   9723SM  C12S13126   4.614   1.910   3.692 -0.7668 -0.1912  0.0296
   9723SM  H12S13127   4.539   1.875   3.618  0.1635  0.0415 -1.0412
   9723SM  H12T13128   4.562   1.994   3.745 -0.7357  1.3389 -2.2232
   9723SM  C13S13129   4.627   1.805   3.806 -0.6894 -0.9469  0.3120
   9723SM  H13S13130   4.708   1.843   3.872  0.5952 -0.6565 -1.3580
   9723SM  H13T13131   4.670   1.707   3.777  1.8375  0.4315 -1.0531
   9723SM  C14S13132   4.501   1.779   3.886  0.3497 -1.0267  0.4757
   9723SM  H14S13133   4.425   1.741   3.814  1.2079  1.3217 -1.8258
   9723SM  H14T13134   4.450   1.865   3.934  1.8901 -0.5280  1.2816
   9723SM  C15S13135   4.524   1.678   3.996  0.4556  0.5928  0.3262
   9723SM  H15S13136   4.599   1.717   4.068  0.2148  3.6281 -0.9137
   9723SM  H15T13137   4.569   1.589   3.946  0.4340  0.6315  0.2372
   9723SM  C16S13138   4.395   1.626   4.059 -0.0178  0.0580  0.4409
   9723SM  H16S13139   4.415   1.551   4.138 -0.8897 -0.4194  0.2285
   9723SM  H16T13140   4.336   1.565   3.987  0.8411 -1.7864  1.2400
   9723SM  C17S13141   4.316   1.742   4.130  0.2834  0.1731 -0.1968
   9723SM  H17S13142   4.270   1.786   4.040 -0.2807  2.1801  1.0052
   9723SM  H17T13143   4.377   1.818   4.185  0.0487  0.6845 -0.6395
   9723SM  C18S13144   4.217   1.681   4.231  0.0990  0.2376  0.0315
   9723SM  H18S13145   4.154   1.612   4.170 -0.1074  0.2073  0.2757
   9723SM  H18T13146   4.152   1.749   4.291  0.3927 -1.6089  2.5895
   9723SM  H18U13147   4.267   1.613   4.303  1.2428  0.2890 -0.6863
   9723SM   C1F13148   4.184   1.758   2.820  0.8268  0.2477 -0.0283
   9723SM    OF13149   4.209   1.645   2.770  0.0569  0.2401  0.1457
   9723SM   C2F13150   4.063   1.792   2.902 -0.2810 -1.4816 -0.2052
   9723SM   H2F13151   4.007   1.876   2.857 -0.5631 -2.7655 -2.3952
   9723SM   H2G13152   4.101   1.816   3.004 -1.4854  1.0709 -0.2853
   9723SM   C3F13153   3.955   1.682   2.914 -0.2040 -0.2911 -0.1130
   9723SM   H3F13154   4.007   1.592   2.952 -2.3830 -2.3191 -1.6528
   9723SM   H3G13155   3.921   1.660   2.810  2.2563  0.4823 -1.1619
   9723SM   C4F13156   3.851   1.720   3.016  0.0635 -0.8802  0.2731
   9723SM   H4F13157   3.765   1.649   3.012  0.4786 -1.5700  2.4967
   9723SM   H4G13158   3.804   1.814   2.982  0.5367 -1.3149 -1.6952
   9723SM   C5F13159   3.902   1.715   3.164 -0.2632 -0.5408  0.6003
   9723SM   H5F13160   3.986   1.787   3.177  1.4043 -2.4045  0.6441
   9723SM   H5G13161   3.951   1.616   3.176 -0.5003 -0.8766 -0.9228
   9723SM   C6F13162   3.796   1.755   3.260 -0.2600  0.4827  1.0093
   9723SM   H6F13163   3.713   1.681   3.258  0.2190 -0.0749 -2.0897
   9723SM   H6G13164   3.753   1.845   3.211  0.6110  0.9685  1.1088
   9723SM   C7F13165   3.845   1.781   3.401 -0.1033 -0.0022  0.1273
   9723SM   H7F13166   3.925   1.857   3.387 -0.3070  0.0121 -1.0732
   9723SM   H7G13167   3.890   1.686   3.437 -2.7313 -1.6868 -0.8170
   9723SM   C8F13168   3.737   1.835   3.489 -0.0062  0.0667  0.0581
   9723SM   H8F13169   3.648   1.770   3.481 -2.3039  2.6594  2.3689
   9723SM   H8G13170   3.699   1.927   3.439  0.5086 -0.5102 -1.4585
   9723SM   C9F13171   3.778   1.844   3.631  0.1650  0.1340  0.0120
   9723SM   H9F13172   3.852   1.764   3.649 -0.8941 -0.8655  0.0898
   9723SM   H9G13173   3.688   1.818   3.691  1.8935 -0.8484  2.3006
   9723SM  C10F13174   3.823   1.982   3.686  0.4105 -0.2275 -0.0966
   9723SM  H10F13175   3.744   2.034   3.628  0.1099 -0.7698 -0.1819
   9723SM  H10G13176   3.923   2.018   3.653  0.1985  1.6090  1.0926
   9723SM  C11F13177   3.793   1.999   3.832  0.4340 -0.8446  0.8990
   9723SM  H11F13178   3.690   2.038   3.848 -0.1498 -1.7608 -0.4125
   9723SM  H11G13179   3.841   2.091   3.872  0.4444  0.2883 -1.5135
   9723SM  C12F13180   3.804   1.879   3.925 -0.0033 -0.3905  1.1563
   9723SM  H12F13181   3.901   1.829   3.908  0.0179 -0.2901  0.9816
   9723SM  H12G13182   3.726   1.802   3.906 -1.0396  1.2728 -2.0654
   9723SM  C13F13183   3.789   1.931   4.068 -0.2734  0.5330  0.0596
   9723SM  H13F13184   3.692   1.984   4.068 -1.0570 -0.8316 -0.4894
   9723SM  H13G13185   3.875   1.996   4.095  2.0302 -1.1115 -2.7238
   9723SM  C14F13186   3.784   1.823   4.177 -0.0504 -1.2748  0.3420
   9723SM  H14F13187   3.875   1.759   4.176  0.8106 -0.0904 -0.1341
   9723SM  H14G13188   3.701   1.752   4.157 -0.9979 -0.0836 -0.0536
   9723SM  C15F13189   3.784   1.887   4.322  0.1071  0.3404  0.4359
   9723SM  H15F13190   3.701   1.960   4.327  0.0926  0.3593 -0.0331
   9723SM  H15G13191   3.883   1.934   4.339 -0.2722  1.9698 -1.6011
   9723SM  C16F13192   3.772   1.785   4.433 -0.3831 -0.4035 -0.2323
   9723SM  H16F13193   3.868   1.730   4.426  0.7856  1.2759  1.5263
   9723SM  H16G13194   3.694   1.713   4.401  0.6885 -1.6019 -0.1963
   9723SM  C17F13195   3.752   1.848   4.569 -0.0311  0.1643  1.3777
   9723SM  H17F13196   3.745   1.776   4.654  0.4151 -0.4532  0.9077
   9723SM  H17G13197   3.654   1.900   4.573  0.3684  1.0147  0.5025
   9723SM  C18F13198   3.857   1.956   4.604 -0.2336  0.0461  0.1838
   9723SM  H18F13199   3.823   2.045   4.548 -1.1911 -0.3312  0.1536
   9723SM  H18G13200   3.955   1.912   4.574  0.0380 -0.6386  1.9969
   9723SM  C19F13201   3.859   1.998   4.749 -0.0347 -0.2087 -0.5120
   9723SM  H19F13202   3.773   1.939   4.788 -0.2829 -0.7817 -1.8786
   9723SM  H19G13203   3.841   2.102   4.785  0.0666 -0.6044  0.7498
   9723SM  C20F13204   3.988   1.946   4.810  0.3359  0.4568  0.2249
   9723SM  H20F13205   4.079   1.984   4.760  1.7308  0.1066  2.3288
   9723SM  H20G13206   3.996   1.837   4.789 -0.6171  0.7306 -1.6908
   9723SM  C21F13207   3.987   1.973   4.962 -1.1341  0.3163  0.3053
   9723SM  H21F13208   3.909   1.915   5.015 -1.4631  0.1762 -0.3287
   9723SM  H21G13209   3.965   2.080   4.980  1.5554  1.2348 -1.2306
   9723SM  C22F13210   4.128   1.966   5.031  0.1610 -0.0713 -0.1150
   9723SM  H22F13211   4.211   1.984   4.960  1.8037 -0.1611  1.6852
   9723SM  H22G13212   4.149   1.861   5.063  1.2467  0.6929  1.8481
   9723SM  C23F13213   4.150   2.049   5.158 -1.0437  0.3714 -0.4226
   9723SM  H23F13214   4.251   2.032   5.202 -1.5168  0.0740  0.6063
   9723SM  H23G13215   4.081   2.010   5.236 -3.1583 -0.2281 -2.5017
   9723SM  H23H13216   4.130   2.156   5.139 -2.1743  0.0962 -0.8006
   9823SM     N13217   0.099   0.245   2.234  0.2244 -0.5275 -0.4371
   9823SM   C1513218   0.077   0.388   2.218  0.0590 -0.1420 -0.6631
   9823SM  H15A13219   0.046   0.428   2.313  1.0474 -1.4705  0.2630
   9823SM  H15B13220  -0.008   0.405   2.154 -2.0469 -3.0962  1.0781
   9823SM  H15C13221   0.164   0.441   2.182  0.3818 -1.1451 -1.4045
   9823SM   C1413222  -0.030   0.177   2.197 -0.8912 -0.3760  0.1259
   9823SM  H14A13223  -0.015   0.075   2.230 -0.5954 -0.4877 -0.3473
   9823SM  H14B13224  -0.050   0.166   2.092 -0.5315 -1.2985  0.1494
   9823SM  H14C13225  -0.114   0.214   2.255 -1.4816 -0.9213 -0.3640
   9823SM   C1313226   0.204   0.192   2.147 -0.3821  0.5781  0.1758
   9823SM  H13A13227   0.306   0.224   2.163 -0.2779  0.3543 -0.0247
   9823SM  H13B13228   0.178   0.199   2.042 -0.7413 -0.5392  0.1803
   9823SM  H13C13229   0.201   0.084   2.147 -1.6923  0.6004  0.6917
   9823SM   C1213230   0.139   0.223   2.380 -0.4663  0.0364 -0.1023
   9823SM  H12A13231   0.231   0.279   2.385  1.4532 -2.9807  1.7350
   9823SM  H12B13232   0.164   0.118   2.387 -0.3628  0.1276  1.0235
   9823SM   C1113233   0.046   0.274   2.484  0.1090 -1.3010 -0.3679
   9823SM  H11A13234   0.070   0.215   2.575  0.6862  0.9135  1.0000
   9823SM  H11B13235  -0.060   0.262   2.454  0.0293 -0.1102 -0.6239
   9823SM     P13236   0.131   0.463   2.643  0.0542 -0.0982  0.0332
   9823SM   O1313237   0.253   0.545   2.618  0.9464 -0.0166  0.0177
   9823SM   O1413238   0.023   0.532   2.718  0.2195 -0.0201  0.1427
   9823SM   O1113239   0.172   0.334   2.721 -0.3920 -0.2793 -0.3780
   9823SM   O1213240   0.068   0.415   2.508 -0.0163  0.3037  0.8998
   9823SM   C1S13241   0.274   0.332   2.824 -0.2077  0.6149  0.5730
   9823SM   H1S13242   0.307   0.437   2.836 -0.5569  0.7737  0.1340
   9823SM   H1T13243   0.360   0.268   2.797 -1.8966 -1.0749 -1.1878
   9823SM    NF13244   0.309   0.346   3.057  0.3052  0.2925 -0.1492
   9823SM   HNF13245   0.359   0.275   3.106  0.1264  0.1322 -0.1973
   9823SM   C2S13246   0.215   0.299   2.956 -0.1290 -0.8232 -0.1040
   9823SM   H2S13247   0.130   0.371   2.960 -0.1684 -0.9029  0.9299
   9823SM   C3S13248   0.170   0.153   2.962 -0.3072  0.4537  0.9799
   9823SM   H3S13249   0.258   0.089   2.940 -0.4113  1.6157 -3.9094
   9823SM    O313250   0.088   0.108   2.856 -0.0118 -0.3750  0.1805
   9823SM   HO313251   0.046   0.185   2.817  0.4315 -1.1173 -1.8885
   9823SM   C4S13252   0.115   0.115   3.096  0.6255 -0.5393 -0.0639
   9823SM   H4S13253   0.189   0.122   3.177  0.3408  3.0725  0.0757
   9823SM   C5S13254  -0.017   0.106   3.131  0.3308  0.0421 -0.0200
   9823SM   H5S13255  -0.097   0.124   3.059  0.1380  0.9636  0.4061
   9823SM   C6S13256  -0.061   0.087   3.273 -0.6946 -0.0661 -0.8156
   9823SM   H6S13257  -0.136   0.005   3.273 -1.5176  0.6554  0.2150
   9823SM   H6T13258  -0.123   0.171   3.311 -0.1432  0.9867 -2.1462
   9823SM   C7S13259   0.040   0.056   3.375  0.3073 -0.0879  0.3122
   9823SM   H7S13260   0.090   0.155   3.381 -0.7077  0.7074 -2.8089
   9823SM   H7T13261   0.098  -0.036   3.352  0.7633  0.7072 -2.0327
   9823SM   C8S13262  -0.027   0.047   3.513  0.2038 -0.4333 -0.3172
   9823SM   H8S13263  -0.094  -0.042   3.515 -0.4366  0.0417  1.5271
   9823SM   H8T13264  -0.082   0.140   3.536 -0.9917 -1.0448 -0.6260
   9823SM   C9S13265   0.069   0.027   3.626  0.0504 -0.2266 -0.3702
   9823SM   H9S13266   0.148   0.104   3.618  0.2392 -0.1949  1.4436
   9823SM   H9T13267   0.099  -0.080   3.632  0.4319 -0.1874 -1.5004
   9823SM  C10S13268   0.002   0.038   3.767  0.2820 -0.0392 -0.5359
   9823SM  H10S13269  -0.099  -0.008   3.775 -0.5234  1.4760 -1.4289
   9823SM  H10T13270  -0.024   0.145   3.782 -0.1381 -0.2356  0.1924
   9823SM  C11S13271   0.076  -0.011   3.893  0.0878  0.0579 -1.3362
   9823SM  H11S13272   0.172   0.045   3.893  0.3479 -0.2959  1.0157
   9823SM  H11T13273   0.095  -0.120   3.889 -1.1709 -0.1908 -1.0237
   9823SM  C12S13274  -0.005   0.022   4.018 -0.1883 -1.1233 -0.7400
   9823SM  H12S13275  -0.100  -0.035   4.030 -1.3893  1.0520  0.6304
   9823SM  H12T13276  -0.033   0.129   4.017 -1.3933 -1.4233 -0.5662
   9823SM  C13S13277   0.083  -0.015   4.139  0.0620 -0.0577 -0.2657
   9823SM  H13S13278   0.183   0.032   4.135 -0.1055  0.2217 -2.3323
   9823SM  H13T13279   0.105  -0.124   4.129 -0.4892 -0.1582 -0.4154
   9823SM  C14S13280   0.036   0.013   4.278  0.1126 -0.3420 -0.7952
   9823SM  H14S13281  -0.054  -0.052   4.279 -0.3560  0.3030 -0.6382
   9823SM  H14T13282   0.010   0.120   4.291  0.5873 -0.3228  0.1186
   9823SM  C15S13283   0.132  -0.036   4.383  0.0397  0.4676 -0.6236
   9823SM  H15S13284   0.224   0.026   4.380  0.1846  0.4522  1.7606
   9823SM  H15T13285   0.160  -0.141   4.361  0.3603  0.5895 -0.8050
   9823SM  C16S13286   0.064  -0.026   4.521 -0.3532  0.2555  0.1330
   9823SM  H16S13287  -0.027  -0.089   4.518  0.5576 -1.0909  0.2699
   9823SM  H16T13288   0.047   0.080   4.550  4.2045  0.7459  1.7330
   9823SM  C17S13289   0.159  -0.093   4.629  0.5337 -0.5239  0.1824
   9823SM  H17S13290   0.171  -0.203   4.619 -2.0440 -0.7666 -0.9594
   9823SM  H17T13291   0.111  -0.080   4.729  2.2061 -1.3489  1.1362
   9823SM  C18S13292   0.303  -0.029   4.642  0.0307  0.0044 -0.2085
   9823SM  H18S13293   0.353  -0.046   4.740 -2.0058  0.0332  0.8940
   9823SM  H18T13294   0.293   0.081   4.636 -1.3152  0.0779  2.2159
   9823SM  H18U13295   0.372  -0.064   4.562 -0.2492  0.8121 -0.8151
   9823SM   C1F13296   0.329   0.470   3.084 -0.0318  0.4620 -0.7298
   9823SM    OF13297   0.253   0.557   3.037 -0.1361 -0.4755 -0.1108
   9823SM   C2F13298   0.445   0.503   3.175  0.1314  0.2647  0.7438
   9823SM   H2F13299   0.522   0.557   3.115  3.2844 -1.6594  2.7728
   9823SM   H2G13300   0.484   0.409   3.218  0.3243  0.5205  1.1337
   9823SM   C3F13301   0.407   0.598   3.290 -0.1920  0.1989  0.0205
   9823SM   H3F13302   0.350   0.689   3.261  0.3919 -0.0821 -2.1375
   9823SM   H3G13303   0.504   0.637   3.326  0.1977  0.1167 -0.9138
   9823SM   C4F13304   0.337   0.533   3.411  1.2760  0.1646 -0.2795
   9823SM   H4F13305   0.273   0.447   3.381  0.1521  0.1990  1.8485
   9823SM   H4G13306   0.279   0.601   3.476  1.5977 -1.6218  2.0102
   9823SM   C5F13307   0.445   0.474   3.505 -0.3519 -0.4394  0.4165
   9823SM   H5F13308   0.504   0.556   3.551 -0.3510 -1.1547  1.7339
   9823SM   H5G13309   0.513   0.412   3.443 -0.5001  1.1134 -1.4047
   9823SM   C6F13310   0.393   0.402   3.629 -0.0222  0.3144  0.1203
   9823SM   H6F13311   0.350   0.306   3.592  2.5070  0.1035 -2.6521
   9823SM   H6G13312   0.317   0.475   3.663 -0.2903  0.3810 -0.5905
   9823SM   C7F13313   0.492   0.377   3.740 -0.0916  0.2883  0.6201
   9823SM   H7F13314   0.514   0.478   3.781 -1.0136  1.3474 -1.3728
   9823SM   H7G13315   0.587   0.342   3.695 -0.7656  1.5541 -1.9483
   9823SM   C8F13316   0.437   0.278   3.845 -0.0243 -0.6211  0.3383
   9823SM   H8F13317   0.404   0.182   3.799 -2.9379  0.5388 -0.2274
   9823SM   H8G13318   0.339   0.315   3.882  0.2588 -1.1883  1.7133
   9823SM   C9F13319   0.535   0.266   3.957 -0.1133 -0.1983  0.2456
   9823SM   H9F13320   0.553   0.371   3.989 -1.0429 -0.4905  1.8077
   9823SM   H9G13321   0.635   0.231   3.923 -0.5824  0.4782 -2.0428
   9823SM  C10F13322   0.487   0.182   4.082  0.8742 -0.0577  0.2271
   9823SM  H10F13323   0.489   0.072   4.064 -0.4648 -0.0535 -0.1033
   9823SM  H10G13324   0.382   0.219   4.092  1.0266  0.0999  1.3024
   9823SM  C11F13325   0.559   0.221   4.211 -0.2214  0.1487  0.3851
   9823SM  H11F13326   0.541   0.326   4.244  0.5121  0.4120 -0.0512
   9823SM  H11G13327   0.669   0.214   4.198 -0.2634  0.5501 -0.1990
   9823SM  C12F13328   0.506   0.152   4.331 -0.5686 -0.2303 -0.0111
   9823SM  H12F13329   0.499   0.046   4.298 -2.7052  0.8148 -3.4078
   9823SM  H12G13330   0.405   0.191   4.359 -0.7600  0.0291 -1.0289
   9823SM  C13F13331   0.601   0.146   4.443  1.0513 -0.3585 -0.2467
   9823SM  H13F13332   0.706   0.131   4.410  1.0538 -0.6713 -0.1024
   9823SM  H13G13333   0.575   0.062   4.511 -0.2628  0.8477  0.7903
   9823SM  C14F13334   0.595   0.281   4.524  0.5449 -0.3430  0.2211
   9823SM  H14F13335   0.490   0.314   4.543  1.3195  2.3143  0.2112
   9823SM  H14G13336   0.636   0.357   4.454 -1.9367  1.3673  0.4830
   9823SM  C15F13337   0.661   0.285   4.662  0.4802  0.3545 -0.3741
   9823SM  H15F13338   0.767   0.252   4.664 -0.3733 -2.6020  0.7754
   9823SM  H15G13339   0.607   0.207   4.719  0.0677  0.1140 -1.0902
   9823SM  C16F13340   0.642   0.415   4.739 -0.0751 -0.6496 -0.4595
   9823SM  H16F13341   0.534   0.439   4.739  0.3939  1.7916 -1.1694
   9823SM  H16G13342   0.703   0.499   4.699  0.1426 -0.7671 -0.3741
   9823SM  C17F13343   0.700   0.406   4.880 -0.5635  0.3206  0.2317
   9823SM  H17F13344   0.810   0.391   4.873 -0.1000  2.8991  0.8871
   9823SM  H17G13345   0.660   0.327   4.947  1.2946  2.1948  3.8629
   9823SM  C18F13346   0.699   0.541   4.953  0.4381  0.4197 -0.0168
   9823SM  H18F13347   0.593   0.555   4.982  0.2433  0.1090 -0.5667
   9823SM  H18G13348   0.737   0.625   4.891  3.3011 -0.5077  0.3076
   9823SM  C19F13349   0.778   0.529   5.087 -0.2954  0.1489  0.0723
   9823SM  H19F13350   0.797   0.630   5.128  1.2517 -0.1711  0.2173
   9823SM  H19G13351   0.882   0.493   5.068 -0.8484 -0.3918 -2.1938
   9823SM  C20F13352   0.717   0.442   5.192  0.7314  0.3537  0.5734
   9823SM  H20F13353   0.717   0.333   5.173 -1.5520 -0.1116  2.7024
   9823SM  H20G13354   0.609   0.469   5.187  0.3324 -1.1834  0.5443
   9823SM  C21F13355   0.794   0.465   5.324  0.9172  0.0901 -0.1651
   9823SM  H21F13356   0.792   0.573   5.350  1.7368 -0.1536  1.0287
   9823SM  H21G13357   0.901   0.437   5.322  0.3049 -2.5940  0.9239
   9823SM  C22F13358   0.736   0.393   5.441  0.3556 -0.2559 -0.2231
   9823SM  H22F13359   0.735   0.283   5.425 -0.2419 -0.2224 -0.4601
   9823SM  H22G13360   0.631   0.423   5.464  0.1977 -1.5419  0.8703
   9823SM  C23F13361   0.825   0.426   5.567 -0.2354 -0.5741 -0.0074
   9823SM  H23F13362   0.822   0.536   5.583 -0.7617 -0.6551  0.5047
   9823SM  H23G13363   0.931   0.412   5.536  0.5179  0.5901  1.8746
   9823SM  H23H13364   0.802   0.376   5.663  0.3064  0.7283  0.8271
   9923SM     N13365   0.857   6.438   2.300 -1.0224  0.3926  0.1698
   9923SM   C1513366   0.940   6.320   2.333  0.1248  0.2276  0.2579
   9923SM  H15A13367   0.896   6.236   2.282 -1.7452  2.9312 -2.9643
   9923SM  H15B13368   0.935   6.295   2.438  0.2474  1.5400  0.5912
   9923SM  H15C13369   1.044   6.341   2.314  0.5375  0.3551  2.3983
   9923SM   C1413370   0.881   6.473   2.158  0.4594 -0.1280  0.2199
   9923SM  H14A13371   0.984   6.495   2.134  1.1200  1.0719  3.6225
   9923SM  H14B13372   0.818   6.555   2.127  0.4163 -0.7130 -1.3288
   9923SM  H14C13373   0.839   6.389   2.104  1.1132 -0.4701  0.2257
   9923SM   C1313374   0.710   6.409   2.335  0.1534  0.6036  0.2691
   9923SM  H13A13375   0.647   6.487   2.296 -0.9946 -0.0114  0.8482
   9923SM  H13B13376   0.695   6.410   2.442  1.8721  0.0825  0.5431
   9923SM  H13C13377   0.670   6.316   2.297  2.7828 -0.4179 -0.1831
   9923SM   C1213378   0.907   6.558   2.380  1.1910 -0.2243 -0.1102
   9923SM  H12A13379   0.873   6.647   2.330  1.9524  1.7140  2.5905
   9923SM  H12B13380   1.013   6.576   2.376  1.3385 -0.7739  0.9923
   9923SM   C1113381   0.876   6.559   2.533  0.5569 -0.1798 -0.4972
   9923SM  H11A13382   0.768   6.582   2.548  0.8427  0.1819  1.1328
   9923SM  H11B13383   0.918   6.649   2.583  0.2509  0.7309 -1.7885
   9923SM     P13384   1.063   6.450   2.668  0.1449 -0.0447 -0.4335
   9923SM   O1313385   1.110   6.318   2.704  0.4357  0.2120 -0.5260
   9923SM   O1413386   1.144   6.536   2.574 -0.2317 -0.0993  0.5536
   9923SM   O1113387   1.032   6.532   2.800  0.1737  0.3086 -0.3821
   9923SM   O1213388   0.914   6.437   2.605 -0.3573  0.0890 -0.5122
   9923SM   C1S13389   0.911   6.504   2.877 -0.0470 -0.0459 -0.2539
   9923SM   H1S13390   0.874   6.401   2.860  0.7630 -0.1882 -1.2415
   9923SM   H1T13391   0.831   6.575   2.845  1.0629  2.4995  2.2237
   9923SM    NF13392   0.804   6.489   3.102 -0.3245 -0.4854 -0.1252
   9923SM   HNF13393   0.748   6.559   3.145  1.1777 -0.9401  2.8240
   9923SM   C2S13394   0.927   6.527   3.032 -0.2626 -0.0195  0.4592
   9923SM   H2S13395   1.008   6.458   3.066  1.2500  0.1735 -2.4495
   9923SM   C3S13396   0.974   6.680   3.056 -0.4056  0.6185  0.7872
   9923SM   H3S13397   0.912   6.762   3.013 -0.1565  0.6762  0.5337
   9923SM    O313398   1.098   6.698   2.997 -0.3035 -0.1136  0.1723
   9923SM   HO313399   1.101   6.624   2.936  1.4956 -2.7116  3.1598
   9923SM   C4S13400   0.997   6.711   3.199  0.4671  0.1674 -0.0145
   9923SM   H4S13401   1.099   6.685   3.231 -0.3421 -1.0756  1.7099
   9923SM   C5S13402   0.909   6.779   3.274 -0.2171 -0.2163 -0.5241
   9923SM   H5S13403   0.815   6.812   3.226 -0.2326 -0.6581 -0.8074
   9923SM   C6S13404   0.927   6.805   3.417 -0.1205 -0.4161  0.1020
   9923SM   H6S13405   0.941   6.915   3.427  1.4024 -0.7389  2.3404
   9923SM   H6T13406   1.027   6.771   3.454  0.4543  0.1335 -0.9211
   9923SM   C7S13407   0.823   6.766   3.521  0.1569  0.1909  0.2390
   9923SM   H7S13408   0.806   6.656   3.512 -0.4090  0.4450 -2.8282
   9923SM   H7T13409   0.727   6.816   3.500 -1.6323 -2.8184  0.6575
   9923SM   C8S13410   0.860   6.818   3.659 -0.1845 -0.3212  0.5040
   9923SM   H8S13411   0.858   6.929   3.657 -1.1680 -0.3169  0.8782
   9923SM   H8T13412   0.959   6.778   3.689  0.2568 -0.3583 -0.9035
   9923SM   C9S13413   0.750   6.780   3.763 -1.0445  1.2445 -0.0943
   9923SM   H9S13414   0.779   6.676   3.790  1.2049  1.9778  0.5293
   9923SM   H9T13415   0.650   6.772   3.715  0.1221 -1.9345 -2.3901
   9923SM  C10S13416   0.754   6.864   3.895 -0.1756  0.3136 -0.9821
   9923SM  H10S13417   0.667   6.836   3.958  1.2494  1.0438  1.4472
   9923SM  H10T13418   0.744   6.970   3.863  1.7110  0.6793 -0.4858
   9923SM  C11S13419   0.875   6.843   3.988  0.3441 -0.3048 -0.0772
   9923SM  H11S13420   0.955   6.900   3.936 -0.2075  0.3679 -0.1942
   9923SM  H11T13421   0.903   6.736   3.993  1.7659  0.1061  2.0994
   9923SM  C12S13422   0.844   6.910   4.118 -0.7899 -0.3481  0.6680
   9923SM  H12S13423   0.766   6.859   4.179 -0.4088  0.7632  2.1467
   9923SM  H12T13424   0.798   7.010   4.101  0.9283  0.2835 -0.5277
   9923SM  C13S13425   0.971   6.913   4.206 -0.4239  0.2315  0.2675
   9923SM  H13S13426   1.064   6.918   4.145  0.6531 -0.8645  1.7188
   9923SM  H13T13427   0.973   6.812   4.253  0.1836 -0.1972 -0.6618
   9923SM  C14S13428   0.953   7.014   4.317 -0.3966 -0.0242 -0.3123
   9923SM  H14S13429   0.871   6.992   4.388 -0.0504  0.2867  0.1904
   9923SM  H14T13430   0.933   7.113   4.271 -2.1028  0.5111  1.4887
   9923SM  C15S13431   1.087   7.015   4.409  0.1902  0.1268  0.3705
   9923SM  H15S13432   1.082   7.116   4.454  0.0191  1.4992 -2.4875
   9923SM  H15T13433   1.173   7.009   4.339 -0.5448  2.2469 -0.8144
   9923SM  C16S13434   1.090   6.893   4.505 -0.0586 -0.1123 -1.2016
   9923SM  H16S13435   1.090   6.792   4.460 -0.1054 -0.1679 -1.0788
   9923SM  H16T13436   0.997   6.892   4.565  1.2953  0.7250  1.0410
   9923SM  C17S13437   1.207   6.902   4.603 -0.6086 -0.4518 -0.4670
   9923SM  H17S13438   1.300   6.892   4.542 -1.1978 -0.3897 -1.4027
   9923SM  H17T13439   1.198   6.807   4.659 -0.1595 -0.1622  0.1062
   9923SM  C18S13440   1.205   7.032   4.685 -0.7115 -0.3258  0.1388
   9923SM  H18S13441   1.212   7.118   4.615  3.3695 -1.3507 -0.9749
   9923SM  H18T13442   1.299   7.039   4.743  0.0782  1.1967 -1.2408
   9923SM  H18U13443   1.112   7.041   4.746 -0.4594 -2.8173  1.0195
   9923SM   C1F13444   0.754   6.367   3.106  0.4854  0.4656  0.5484
   9923SM    OF13445   0.800   6.274   3.043 -0.0550 -0.4564 -0.1591
   9923SM   C2F13446   0.628   6.352   3.185  0.3101 -0.1784 -0.2861
   9923SM   H2F13447   0.607   6.244   3.199 -0.0924 -0.1407 -0.5776
   9923SM   H2G13448   0.541   6.389   3.127  0.4812 -1.7082 -1.6029
   9923SM   C3F13449   0.638   6.416   3.320 -0.3316  0.0622  0.1380
   9923SM   H3F13450   0.648   6.524   3.296 -1.6297 -0.1643 -1.6505
   9923SM   H3G13451   0.728   6.378   3.373 -1.6502 -2.8602  0.4941
   9923SM   C4F13452   0.506   6.396   3.390 -0.0525 -0.0863 -0.1217
   9923SM   H4F13453   0.459   6.296   3.377  1.8445 -1.0611  0.0862
   9923SM   H4G13454   0.434   6.471   3.350 -0.0465  0.8119  1.4665
   9923SM   C5F13455   0.512   6.419   3.543 -0.1678 -0.3929  0.6277
   9923SM   H5F13456   0.535   6.527   3.557  0.4603 -0.3000 -0.8902
   9923SM   H5G13457   0.602   6.372   3.587  0.6758 -0.1772 -0.8021
   9923SM   C6F13458   0.391   6.364   3.630  0.0993 -0.4076  0.6439
   9923SM   H6F13459   0.403   6.253   3.632 -1.3511 -0.6058 -0.1834
   9923SM   H6G13460   0.302   6.399   3.574 -1.0986 -0.1749  2.6202
   9923SM   C7F13461   0.386   6.409   3.775  0.0661 -0.5096  0.8330
   9923SM   H7F13462   0.304   6.352   3.824 -0.5549 -1.3215 -1.0465
   9923SM   H7G13463   0.367   6.519   3.767  2.4854 -0.1336 -1.4114
   9923SM   C8F13464   0.513   6.409   3.855 -0.7688 -0.1236 -0.2865
   9923SM   H8F13465   0.599   6.456   3.803 -0.1541 -0.4942  0.3846
   9923SM   H8G13466   0.550   6.306   3.875  0.4278 -0.3473 -3.1676
   9923SM   C9F13467   0.486   6.480   3.986 -0.1546  0.1863 -0.0815
   9923SM   H9F13468   0.402   6.441   4.047 -0.9930 -0.4537 -1.5814
   9923SM   H9G13469   0.464   6.588   3.973  0.7699  0.6364  1.7737
   9923SM  C10F13470   0.616   6.495   4.069  0.0175  0.1959 -0.4181
   9923SM  H10F13471   0.697   6.537   4.005  0.0356  0.7437 -0.0471
   9923SM  H10G13472   0.642   6.394   4.106  1.6894  1.1481  1.1603
   9923SM  C11F13473   0.603   6.592   4.184  0.0797  0.0121 -0.0315
   9923SM  H11F13474   0.555   6.686   4.149 -0.6095 -0.7352 -1.1517
   9923SM  H11G13475   0.706   6.615   4.218  1.3077 -1.7636 -2.2983
   9923SM  C12F13476   0.531   6.537   4.308 -0.1198  0.2689 -0.3304
   9923SM  H12F13477   0.433   6.505   4.268 -0.3051  1.0545 -0.5329
   9923SM  H12G13478   0.520   6.621   4.381  0.4936 -1.6640  2.1285
   9923SM  C13F13479   0.607   6.420   4.377  0.6376 -0.4189  0.6186
   9923SM  H13F13480   0.701   6.463   4.416  1.5737 -1.1067 -0.7893
   9923SM  H13G13481   0.644   6.334   4.317  0.9379  0.5320 -0.5842
   9923SM  C14F13482   0.525   6.363   4.500 -0.2768 -0.0647 -0.0727
   9923SM  H14F13483   0.426   6.327   4.466 -0.0105 -1.3477  0.4640
   9923SM  H14G13484   0.507   6.454   4.561 -0.9132  0.4879 -1.0548
   9923SM  C15F13485   0.605   6.261   4.582 -0.7234  0.6216  0.4461
   9923SM  H15F13486   0.695   6.318   4.612 -1.6556  1.4739  1.7745
   9923SM  H15G13487   0.630   6.168   4.527 -2.5834  0.3756 -0.0720
   9923SM  C16F13488   0.548   6.217   4.720 -0.1271  0.0890 -0.3068
   9923SM  H16F13489   0.503   6.304   4.772  2.2854  0.8820  0.5864
   9923SM  H16G13490   0.636   6.179   4.777 -2.6463 -1.1010  3.1501
   9923SM  C17F13491   0.453   6.102   4.714 -0.2731 -0.3667  0.2304
   9923SM  H17F13492   0.480   6.016   4.649  0.1171 -0.9090  1.0868
   9923SM  H17G13493   0.350   6.138   4.693 -0.0684  0.8172  1.1226
   9923SM  C18F13494   0.418   6.054   4.854 -0.3339 -0.4345 -0.5613
   9923SM  H18F13495   0.309   6.030   4.860  0.1112 -3.5468 -2.3941
   9923SM  H18G13496   0.450   6.131   4.927 -0.4171 -0.9051 -0.0095
   9923SM  C19F13497   0.485   5.928   4.902  0.4973 -0.1427 -0.4733
   9923SM  H19F13498   0.590   5.928   4.866  0.4475 -1.9169 -0.7254
   9923SM  H19G13499   0.427   5.844   4.856 -0.8257  0.5818 -0.1879
   9923SM  C20F13500   0.498   5.918   5.056 -0.0042  0.1847  0.3573
   9923SM  H20F13501   0.402   5.949   5.102 -0.6560 -1.0318 -0.1323
   9923SM  H20G13502   0.562   6.001   5.091  1.1694  0.1061 -1.4808
   9923SM  C21F13503   0.529   5.778   5.099 -0.0746 -0.9103  0.9077
   9923SM  H21F13504   0.631   5.745   5.070 -0.2825  0.5205 -1.7642
   9923SM  H21G13505   0.462   5.713   5.040  0.0798  1.1321 -1.6670
   9923SM  C22F13506   0.515   5.753   5.250  0.6330  0.1772 -0.4935
   9923SM  H22F13507   0.410   5.781   5.274  0.2092 -1.6507 -0.0696
   9923SM  H22G13508   0.583   5.821   5.306 -1.0760  0.9214  0.7677
   9923SM  C23F13509   0.544   5.614   5.316 -0.0305 -0.5667 -0.8009
   9923SM  H23F13510   0.532   5.622   5.426 -0.7681  3.6216 -1.0027
   9923SM  H23G13511   0.648   5.589   5.287  2.0381  5.0452  0.3472
   9923SM  H23H13512   0.469   5.539   5.284  1.7317 -2.9296  0.3389
  10023SM     N13513   0.180   6.512   2.406  0.9078 -0.1193 -0.0307
  10023SM   C1513514   0.067   6.601   2.369  0.2260 -0.1496  0.4855
  10023SM  H15A13515   0.092   6.655   2.279 -2.1407  0.8327  0.3489
  10023SM  H15B13516   0.048   6.674   2.446 -0.5811  1.6059 -1.2657
  10023SM  H15C13517  -0.024   6.547   2.346  0.4431  0.0362 -0.9070
  10023SM   C1413518   0.166   6.384   2.337  0.0751 -0.2096 -0.7190
  10023SM  H14A13519   0.081   6.324   2.366  1.5618 -1.4375  1.2884
  10023SM  H14B13520   0.255   6.325   2.349  0.2910 -0.6198 -3.5274
  10023SM  H14C13521   0.165   6.392   2.229  0.6534 -0.8079 -0.7724
  10023SM   C1313522   0.308   6.582   2.371  0.6082  0.2201 -0.5234
  10023SM  H13A13523   0.299   6.611   2.268 -3.4623 -0.1302 -0.4189
  10023SM  H13B13524   0.402   6.532   2.390  0.7656  0.5397 -0.4538
  10023SM  H13C13525   0.311   6.671   2.432 -0.4661 -0.4195  0.5055
  10023SM   C1213526   0.176   6.492   2.559 -0.2266  0.3365  0.0799
  10023SM  H12A13527   0.260   6.432   2.589  2.0691  2.4289 -1.7445
  10023SM  H12B13528   0.089   6.434   2.589  0.7651 -0.8077  0.8483
  10023SM   C1113529   0.178   6.627   2.646  0.2297 -0.5349 -0.1330
  10023SM  H11A13530   0.157   6.581   2.745 -0.6402  0.5181  0.1908
  10023SM  H11B13531   0.085   6.686   2.632  1.5404  1.8731  0.7320
  10023SM     P13532   0.426   6.641   2.708  0.0715 -0.0948  0.2775
  10023SM   O1313533   0.440   6.498   2.685  0.0185 -0.2036 -0.1779
  10023SM   O1413534   0.546   6.716   2.668 -0.0639 -0.5091 -0.2886
  10023SM   O1113535   0.400   6.673   2.861  0.4873  0.1581  0.1934
  10023SM   O1213536   0.296   6.702   2.631  0.0262  0.5250  0.2420
  10023SM   C1S13537   0.309   6.780   2.896  0.0557  0.8933  0.4662
  10023SM   H1S13538   0.205   6.755   2.868  0.3159  0.3730 -0.0759
  10023SM   H1T13539   0.335   6.873   2.842  0.4859  1.4092  1.5539
  10023SM    NF13540   0.210   6.909   3.076  0.2251 -0.1015 -0.1919
  10023SM   HNF13541   0.242   7.000   3.098 -0.9211  0.6890 -1.6138
  10023SM   C2S13542   0.313   6.807   3.045 -0.0914  0.2403 -0.2671
  10023SM   H2S13543   0.276   6.713   3.092  0.4693  1.1598  2.1873
  10023SM   C3S13544   0.463   6.828   3.106  0.3355 -0.7292 -1.0369
  10023SM   H3S13545   0.505   6.918   3.057  0.4075 -0.6806 -0.8848
  10023SM    O313546   0.549   6.712   3.087 -0.5255 -0.1842  0.0364
  10023SM   HO313547   0.523   6.680   3.000  0.8912  1.0795 -0.9074
  10023SM   C4S13548   0.436   6.864   3.250 -0.1207  0.6285 -0.0874
  10023SM   H4S13549   0.422   6.972   3.265  0.3934  0.5746  0.8982
  10023SM   C5S13550   0.429   6.786   3.364 -0.5049  0.1375 -0.4707
  10023SM   H5S13551   0.452   6.680   3.344 -0.0148  0.2435 -0.4929
  10023SM   C6S13552   0.402   6.840   3.506  0.8985 -0.0054 -0.1053
  10023SM   H6S13553   0.410   6.951   3.508 -0.5117  0.1045  0.2847
  10023SM   H6T13554   0.483   6.801   3.572  3.1320  1.3117 -1.9147
  10023SM   C7S13555   0.261   6.809   3.567  1.0471 -0.8249  0.2232
  10023SM   H7S13556   0.259   6.699   3.554  2.1695 -0.8524  0.1887
  10023SM   H7T13557   0.197   6.860   3.492  4.0356 -0.0049 -1.9931
  10023SM   C8S13558   0.236   6.860   3.709 -0.2986 -0.0330  0.4771
  10023SM   H8S13559   0.140   6.815   3.743 -1.4945 -0.2406 -2.8586
  10023SM   H8T13560   0.221   6.970   3.712 -1.6086 -0.1792 -0.0202
  10023SM   C9S13561   0.353   6.829   3.798 -0.0171  0.5510 -0.6091
  10023SM   H9S13562   0.446   6.876   3.758  0.7870  0.0413  0.6006
  10023SM   H9T13563   0.360   6.719   3.790 -1.4817  0.4260 -0.4151
  10023SM  C10S13564   0.342   6.861   3.949 -0.3895  0.4524  0.6843
  10023SM  H10S13565   0.418   6.805   4.008 -0.4895  0.2920  0.6611
  10023SM  H10T13566   0.243   6.818   3.976  0.2018 -1.2349  0.3226
  10023SM  C11S13567   0.358   7.011   3.977 -0.3169 -0.2927  1.0267
  10023SM  H11S13568   0.281   7.067   3.919  1.4909  3.1532  1.6726
  10023SM  H11T13569   0.459   7.048   3.948 -0.4007 -1.2138 -0.5310
  10023SM  C12S13570   0.346   7.042   4.124 -0.2115 -0.6512 -0.7868
  10023SM  H12S13571   0.248   7.003   4.159  0.0288 -1.7543 -1.2854
  10023SM  H12T13572   0.344   7.152   4.135 -0.6251 -0.4781 -2.2681
  10023SM  C13S13573   0.461   6.996   4.214 -0.0522 -0.4210  0.9379
  10023SM  H13S13574   0.550   7.058   4.187 -1.4063  0.1457 -2.8317
  10023SM  H13T13575   0.490   6.889   4.211 -2.1375 -1.0099 -0.7365
  10023SM  C14S13576   0.446   7.012   4.369 -0.0872 -0.3121  0.1109
  10023SM  H14S13577   0.380   6.929   4.401 -1.0300  0.2347 -0.3830
  10023SM  H14T13578   0.386   7.103   4.388 -0.7649 -0.6017 -0.5587
  10023SM  C15S13579   0.582   7.000   4.440 -0.4826 -0.5232 -0.8485
  10023SM  H15S13580   0.650   7.070   4.386 -0.7345  1.8640  1.7140
  10023SM  H15T13581   0.614   6.893   4.434 -0.9361 -0.6250 -1.4982
  10023SM  C16S13582   0.577   7.039   4.596  0.5318  0.3011  0.3129
  10023SM  H16S13583   0.471   7.027   4.629  0.7641 -0.1850  0.9076
  10023SM  H16T13584   0.582   7.150   4.594 -3.3548  0.6196 -0.5574
  10023SM  C17S13585   0.670   6.961   4.685  0.6446  0.0068 -0.0677
  10023SM  H17S13586   0.769   6.935   4.642  0.3823 -1.1501 -0.0021
  10023SM  H17T13587   0.607   6.872   4.707 -0.6859  0.9600  0.1375
  10023SM  C18S13588   0.704   7.050   4.815  0.0188 -0.1878  0.0713
  10023SM  H18S13589   0.609   7.103   4.838  0.0517  0.0719 -0.3869
  10023SM  H18T13590   0.777   7.131   4.793 -0.1932 -0.1321 -0.4392
  10023SM  H18U13591   0.752   6.998   4.901 -0.5028  1.3079  1.3343
  10023SM   C1F13592   0.079   6.892   3.062  0.1143  0.0390 -0.2127
  10023SM    OF13593   0.024   6.784   3.031 -0.0184 -0.0646  0.6803
  10023SM   C2F13594  -0.003   7.013   3.092 -0.0020  0.0300 -0.3171
  10023SM   H2F13595  -0.042   7.053   2.996  0.9361  0.9234 -0.3352
  10023SM   H2G13596   0.059   7.087   3.147 -1.2957  0.7498  0.2473
  10023SM   C3F13597  -0.123   6.986   3.186  0.5926  0.4234 -0.1695
  10023SM   H3F13598  -0.196   6.923   3.131  3.4018 -3.7657  0.4488
  10023SM   H3G13599  -0.181   7.078   3.207  0.7436 -0.0964  3.0823
  10023SM   C4F13600  -0.089   6.923   3.323 -0.1608 -0.4321  0.4642
  10023SM   H4F13601  -0.028   7.000   3.376  0.3640 -1.2708  1.1109
  10023SM   H4G13602  -0.025   6.832   3.314  1.9071  1.1284 -2.2813
  10023SM   C5F13603  -0.205   6.895   3.418  0.5679 -0.4586  0.0862
  10023SM   H5F13604  -0.267   6.810   3.381 -0.2381 -0.1617  0.7214
  10023SM   H5G13605  -0.264   6.988   3.407  0.2318 -0.7631 -0.7199
  10023SM   C6F13606  -0.164   6.890   3.570  0.0420  0.2670  0.0108
  10023SM   H6F13607  -0.105   6.982   3.589 -2.3715  1.9431 -0.1704
  10023SM   H6G13608  -0.092   6.806   3.579 -0.6722 -0.2346  1.2927
  10023SM   C7F13609  -0.270   6.870   3.683  0.4216 -0.9495  0.4187
  10023SM   H7F13610  -0.311   6.768   3.670 -2.2326  0.1648 -0.6293
  10023SM   H7G13611  -0.354   6.942   3.670  0.5843 -0.9103 -0.4405
  10023SM   C8F13612  -0.200   6.894   3.815 -0.4064  0.0797 -0.1250
  10023SM   H8F13613  -0.167   6.999   3.831  2.2104 -0.6685 -0.1380
  10023SM   H8G13614  -0.113   6.826   3.822 -0.8338 -0.4392  0.1881
  10023SM   C9F13615  -0.294   6.852   3.925  0.3458 -0.0627 -0.3065
  10023SM   H9F13616  -0.331   6.748   3.924 -2.3175  0.8233 -1.5010
  10023SM   H9G13617  -0.387   6.912   3.918 -0.1670 -0.8276 -0.1592
  10023SM  C10F13618  -0.236   6.886   4.064  0.4657 -0.3833 -0.1154
  10023SM  H10F13619  -0.330   6.914   4.117 -0.6019  1.8267 -2.8992
  10023SM  H10G13620  -0.168   6.973   4.061 -0.8316  0.6604 -0.6023
  10023SM  C11F13621  -0.174   6.766   4.143  0.8680 -0.6228 -0.5095
  10023SM  H11F13622  -0.252   6.687   4.148  1.6022 -1.2982  0.4158
  10023SM  H11G13623  -0.149   6.800   4.245 -0.5027 -1.2886  0.0779
  10023SM  C12F13624  -0.049   6.702   4.073 -0.9244  0.0825  0.1211
  10023SM  H12F13625   0.002   6.795   4.039  0.6459  0.0435  2.2133
  10023SM  H12G13626  -0.079   6.645   3.983  0.0379 -1.0667  0.5029
  10023SM  C13F13627   0.037   6.628   4.174  0.0402  0.0229  0.1811
  10023SM  H13F13628   0.108   6.554   4.131  0.7342 -0.3114  1.8259
  10023SM  H13G13629  -0.023   6.552   4.229  0.0465 -1.2965 -1.5353
  10023SM  C14F13630   0.121   6.713   4.277  0.2470 -0.2423  0.6704
  10023SM  H14F13631   0.071   6.810   4.297  0.0748 -0.2331  0.2055
  10023SM  H14G13632   0.222   6.732   4.236 -0.1854 -0.6469 -0.6344
  10023SM  C15F13633   0.129   6.644   4.415 -0.2108 -0.2782 -0.1814
  10023SM  H15F13634   0.167   6.542   4.392 -0.6456 -0.1008 -1.8194
  10023SM  H15G13635   0.027   6.641   4.458  0.4890 -1.1625  1.5139
  10023SM  C16F13636   0.226   6.718   4.515 -0.0417  0.1131  0.1284
  10023SM  H16F13637   0.179   6.817   4.531  2.1041  1.1363  0.5677
  10023SM  H16G13638   0.327   6.739   4.472 -0.3104  1.8947  0.3121
  10023SM  C17F13639   0.244   6.637   4.645  0.1702  0.6707 -0.6277
  10023SM  H17F13640   0.296   6.543   4.615 -1.1955 -0.5436  0.6584
  10023SM  H17G13641   0.142   6.608   4.677  0.3936  0.6100  0.0471
  10023SM  C18F13642   0.340   6.715   4.739 -0.0107 -0.7532 -0.2127
  10023SM  H18F13643   0.290   6.812   4.757  0.1250 -1.0273  1.9704
  10023SM  H18G13644   0.431   6.732   4.677  1.1995 -0.3712  1.5845
  10023SM  C19F13645   0.368   6.644   4.866 -0.0971 -0.4780 -0.1927
  10023SM  H19F13646   0.372   6.535   4.846  0.4614 -0.4948 -0.0114
  10023SM  H19G13647   0.291   6.672   4.941  0.3295 -0.8212  0.3802
  10023SM  C20F13648   0.510   6.676   4.925 -0.5461  0.2041  0.5883
  10023SM  H20F13649   0.526   6.630   5.025  0.3590 -1.3824 -0.2635
  10023SM  H20G13650   0.520   6.787   4.928  0.0909  0.2255 -1.2046
  10023SM  C21F13651   0.631   6.621   4.837 -0.5627 -0.9989  0.1783
  10023SM  H21F13652   0.603   6.660   4.737 -0.3036 -2.4805 -0.5065
  10023SM  H21G13653   0.627   6.511   4.821  2.1301 -1.0902 -0.2738
  10023SM  C22F13654   0.768   6.671   4.878 -0.0321 -0.0416 -0.1282
  10023SM  H22F13655   0.784   6.625   4.978 -4.7084  0.4140  1.0444
  10023SM  H22G13656   0.770   6.782   4.887 -0.3559  0.0292 -0.8633
  10023SM  C23F13657   0.873   6.635   4.773  0.0646 -0.5296 -0.1162
  10023SM  H23F13658   0.849   6.698   4.685  0.7269  0.9970  0.7593
  10023SM  H23G13659   0.875   6.527   4.748 -0.0532 -1.1260  2.1869
  10023SM  H23H13660   0.974   6.662   4.810 -0.9824  2.4341  0.8471
  101CHL1    C313661   4.295   5.442   5.932  0.4660 -0.2781 -0.4152
  101CHL1    H313662   4.332   5.345   5.892 -1.8807 -0.5198 -2.2252
  101CHL1    O313663   4.295   5.435   6.078  0.0610  0.9044  0.0818
  101CHL1   H3'13664   4.228   5.500   6.103 -1.0270 -0.2113  0.1587
  101CHL1    C413665   4.396   5.548   5.882  0.1217 -0.0587  0.5383
  101CHL1   H4A13666   4.370   5.650   5.917 -1.6448 -0.5389  0.7729
  101CHL1   H4B13667   4.493   5.520   5.928  0.5458 -0.9530 -0.8262
  101CHL1    C513668   4.392   5.539   5.729 -1.4037  0.0561  0.2383
  101CHL1    C613669   4.505   5.505   5.667 -0.3771  0.2089 -0.1083
  101CHL1    H613670   4.598   5.480   5.720 -0.0249  1.0099 -0.3421
  101CHL1    C713671   4.518   5.490   5.516  0.8231  0.3283 -0.2602
  101CHL1   H7A13672   4.611   5.541   5.486  0.6233  1.2552  0.6323
  101CHL1   H7B13673   4.524   5.382   5.489 -0.9623 -0.4216  1.9733
  101CHL1    C813674   4.404   5.556   5.445  0.2557 -0.0843  1.0171
  101CHL1    H813675   4.421   5.666   5.451 -0.3989  0.0406  0.7107
  101CHL1   C1413676   4.396   5.514   5.294 -0.1894 -0.0997 -0.0831
  101CHL1   H1413677   4.366   5.407   5.304 -0.8654  0.1575  0.7190
  101CHL1   C1513678   4.522   5.532   5.205 -0.1401  1.1773 -1.2695
  101CHL1  H15A13679   4.556   5.636   5.228 -0.6034  1.2205 -0.7694
  101CHL1  H15B13680   4.597   5.453   5.228 -1.9043  0.2984  2.2132
  101CHL1   C1613681   4.470   5.523   5.062  0.8688 -0.0373 -0.7884
  101CHL1  H16A13682   4.491   5.620   5.012 -0.4157 -0.3860 -2.0639
  101CHL1  H16B13683   4.504   5.424   5.027  0.3504 -0.4621 -0.1129
  101CHL1   C1713684   4.312   5.518   5.074 -0.2313 -0.9713 -0.4859
  101CHL1   H1713685   4.295   5.408   5.073  1.5066 -1.2591 -0.3571
  101CHL1   C1313686   4.284   5.576   5.213  0.2319 -1.4589 -0.4075
  101CHL1   C1813687   4.292   5.731   5.205 -0.5185 -0.4203 -0.4146
  101CHL1  H18A13688   4.308   5.774   5.306 -3.4761  1.3022 -0.5413
  101CHL1  H18B13689   4.375   5.768   5.142 -0.1308  1.8140  1.2985
  101CHL1  H18C13690   4.190   5.767   5.178 -0.9820 -0.9552  0.5353
  101CHL1   C1213691   4.151   5.534   5.283 -0.0000 -0.3302  0.1616
  101CHL1  H12A13692   4.057   5.574   5.241  0.7584  1.1688 -0.1834
  101CHL1  H12B13693   4.139   5.428   5.254  1.7304 -0.0730 -1.7133
  101CHL1   C1113694   4.143   5.571   5.430  0.0791 -0.3268 -0.5640
  101CHL1  H11A13695   4.138   5.682   5.431 -0.3792 -0.3353 -1.1015
  101CHL1  H11B13696   4.047   5.526   5.462  0.0497 -1.2315 -1.8439
  101CHL1    C913697   4.265   5.520   5.513 -0.2383  0.3992  1.0701
  101CHL1    H913698   4.261   5.409   5.506 -2.6598  0.4747  0.1233
  101CHL1   C1013699   4.256   5.557   5.658 -0.2383 -0.5184  0.7174
  101CHL1   C1913700   4.223   5.708   5.673  0.2634  0.0371 -0.5900
  101CHL1  H19A13701   4.118   5.737   5.651  0.3388  0.4292 -0.4481
  101CHL1  H19B13702   4.232   5.754   5.774 -1.4555 -0.9387  0.0629
  101CHL1  H19C13703   4.268   5.769   5.592  0.4001  0.3733 -0.2655
  101CHL1    C113704   4.151   5.476   5.731  0.3140  0.1842  0.3597
  101CHL1   H1A13705   4.052   5.507   5.692  0.5143  0.1664 -0.1766
  101CHL1   H1B13706   4.164   5.373   5.690  0.3003 -0.0654  0.9751
  101CHL1    C213707   4.149   5.469   5.883  0.3058 -0.2677 -0.1222
  101CHL1   H2A13708   4.085   5.387   5.922 -0.0718 -0.0010 -0.1775
  101CHL1   H2B13709   4.111   5.562   5.931  0.2519 -0.4470  0.1895
  101CHL1   C2013710   4.244   5.580   4.951 -0.3784 -0.1489  0.4220
  101CHL1   H2013711   4.280   5.685   4.955 -2.1262  0.4766  0.5801
  101CHL1   C2113712   4.088   5.573   4.967 -0.1550  0.1492 -0.1121
  101CHL1  H21A13713   4.062   5.657   5.035  2.1307 -0.1733  1.2808
  101CHL1  H21B13714   4.065   5.472   5.006  1.7681  0.4401  2.0395
  101CHL1  H21C13715   4.031   5.603   4.877  1.5076  0.3409 -1.1427
  101CHL1   C2213716   4.302   5.507   4.823 -0.3721  0.6916  0.2537
  101CHL1  H22A13717   4.412   5.510   4.830 -0.4946  2.4394  3.1644
  101CHL1  H22B13718   4.271   5.401   4.833  1.9355 -0.4274 -2.8391
  101CHL1   C2313719   4.251   5.553   4.683 -0.0453  0.4369 -0.4283
  101CHL1  H23A13720   4.148   5.515   4.671  0.4627 -0.5346 -1.9867
  101CHL1  H23B13721   4.246   5.664   4.685  0.6115  0.4652  0.5355
  101CHL1   C2413722   4.344   5.515   4.576 -0.1643 -0.3472 -0.5736
  101CHL1  H24A13723   4.442   5.564   4.593  0.5234 -0.4880 -3.5307
  101CHL1  H24B13724   4.370   5.407   4.577  0.6334 -0.1640 -0.5161
  101CHL1   C2513725   4.314   5.554   4.432 -0.0188  0.3562  0.5400
  101CHL1   H2513726   4.299   5.664   4.434 -2.2516  0.2152 -1.9234
  101CHL1   C2613727   4.437   5.530   4.345 -0.0988  0.5017 -0.5120
  101CHL1  H26A13728   4.528   5.576   4.389  0.8274  0.8581 -2.6726
  101CHL1  H26B13729   4.449   5.421   4.326 -0.9223  0.1784  0.7289
  101CHL1  H26C13730   4.422   5.584   4.249  2.3012 -0.4067 -1.4962
  101CHL1   C2713731   4.179   5.499   4.381  0.7766 -0.2322 -0.6324
  101CHL1  H27A13732   4.179   5.388   4.379  2.0409 -0.2536 -3.5685
  101CHL1  H27B13733   4.098   5.529   4.451  0.9764  1.2969 -1.0160
  101CHL1  H27C13734   4.151   5.519   4.276 -0.4138 -2.2788 -0.7569
  102CHL1    C313735   1.132   3.707   6.726  0.2285 -0.1691 -1.2850
  102CHL1    H313736   1.041   3.706   6.662  0.5611  0.5555 -1.7736
  102CHL1    O313737   1.107   3.710   6.864 -0.2734  0.7431 -0.1277
  102CHL1   H3'13738   1.161   3.782   6.897 -0.5622  0.1601  1.7608
  102CHL1    C413739   1.218   3.587   6.696  0.4228 -0.1419 -0.2220
  102CHL1   H4A13740   1.305   3.610   6.761 -0.5608  0.3297  0.9781
  102CHL1   H4B13741   1.163   3.498   6.733 -0.2449  0.2225 -0.3140
  102CHL1    C513742   1.256   3.588   6.551  0.3195 -0.2000  0.1572
  102CHL1    C613743   1.228   3.477   6.481 -0.6457  0.0719  0.4442
  102CHL1    H613744   1.169   3.397   6.529 -3.3629  1.8478  0.2734
  102CHL1    C713745   1.232   3.465   6.329  0.4449  0.3444 -0.2861
  102CHL1   H7A13746   1.280   3.369   6.299  0.3120  0.4521 -0.8446
  102CHL1   H7B13747   1.131   3.486   6.290 -0.7637 -0.0817  2.3650
  102CHL1    C813748   1.338   3.572   6.274 -0.7450 -1.4340 -0.3728
  102CHL1    H813749   1.439   3.545   6.309  0.3238 -1.4037 -3.1669
  102CHL1   C1413750   1.329   3.571   6.122  0.2301  0.8679  0.2136
  102CHL1   H1413751   1.224   3.595   6.094  0.0273 -0.8878 -0.6802
  102CHL1   C1513752   1.351   3.435   6.051 -0.1473  0.0353  0.5222
  102CHL1  H15A13753   1.442   3.382   6.087 -0.5397 -0.3168  1.0067
  102CHL1  H15B13754   1.264   3.367   6.065 -0.7162  0.5809 -0.3212
  102CHL1   C1613755   1.357   3.473   5.901 -0.1812  0.2821 -0.0182
  102CHL1  H16A13756   1.435   3.417   5.846 -0.9978 -0.4994 -0.3931
  102CHL1  H16B13757   1.266   3.447   5.844 -1.3886  0.4662  1.7300
  102CHL1   C1713758   1.383   3.628   5.898  0.1332 -0.1894  0.4091
  102CHL1   H1713759   1.283   3.672   5.879  0.7903  1.7339  1.1904
  102CHL1   C1313760   1.415   3.665   6.047  0.0050 -0.5188  0.5460
  102CHL1   C1813761   1.564   3.627   6.070  0.0990  0.1361  0.5577
  102CHL1  H18A13762   1.601   3.617   6.174  1.4095  0.8773  0.2002
  102CHL1  H18B13763   1.584   3.529   6.021 -0.8248  0.4147 -0.4006
  102CHL1  H18C13764   1.629   3.697   6.012 -0.2464  0.3710  0.4543
  102CHL1   C1213765   1.383   3.808   6.103  0.2932  0.3378  0.3933
  102CHL1  H12A13766   1.459   3.876   6.061  0.4892  1.6022  2.6627
  102CHL1  H12B13767   1.276   3.831   6.084 -0.2549 -1.3084  1.2346
  102CHL1   C1113768   1.396   3.822   6.256  0.1213  0.0322  0.1264
  102CHL1  H11A13769   1.501   3.801   6.287 -0.2828 -0.0288  1.5533
  102CHL1  H11B13770   1.378   3.922   6.302 -0.0183 -0.2068  0.5997
  102CHL1    C913771   1.309   3.709   6.330 -0.8836 -0.5111 -0.4258
  102CHL1    H913772   1.205   3.738   6.304 -0.5969  1.4991  0.4997
  102CHL1   C1013773   1.311   3.716   6.490 -0.7966  0.4528  0.6008
  102CHL1   C1913774   1.461   3.715   6.536  0.0353  0.4128  0.0580
  102CHL1  H19A13775   1.488   3.699   6.642  1.7194  0.9390 -0.2537
  102CHL1  H19B13776   1.530   3.657   6.471  0.1096 -1.3065  1.5955
  102CHL1  H19C13777   1.487   3.820   6.511  1.3980  0.6572  2.2586
  102CHL1    C113778   1.244   3.842   6.542  0.4223  0.1488 -0.6351
  102CHL1   H1A13779   1.297   3.939   6.527 -0.7071  0.9133  0.1578
  102CHL1   H1B13780   1.153   3.865   6.484 -1.6043  1.2875  2.7064
  102CHL1    C213781   1.205   3.839   6.694 -0.0021  0.4100 -0.7026
  102CHL1   H2A13782   1.141   3.929   6.710 -1.6772 -0.6412 -1.2470
  102CHL1   H2B13783   1.293   3.852   6.761 -1.0017 -0.4178  0.8455
  102CHL1   C2013784   1.467   3.674   5.770  0.2918 -0.3356  0.0407
  102CHL1   H2013785   1.571   3.638   5.777  0.1471 -0.8484 -0.3713
  102CHL1   C2113786   1.465   3.824   5.760 -0.1240  0.4555 -0.4218
  102CHL1  H21A13787   1.362   3.864   5.759  0.1660  1.2135 -0.2401
  102CHL1  H21B13788   1.514   3.860   5.668  0.4536 -0.2332 -0.3999
  102CHL1  H21C13789   1.516   3.867   5.850 -1.1373 -2.4479  1.7187
  102CHL1   C2213790   1.414   3.613   5.639 -0.0019 -0.0902 -0.6068
  102CHL1  H22A13791   1.394   3.504   5.651 -1.5508  0.2884  0.5215
  102CHL1  H22B13792   1.329   3.671   5.598 -1.3475 -0.1951  1.8900
  102CHL1   C2313793   1.517   3.609   5.523 -0.3705  0.1422  0.3316
  102CHL1  H23A13794   1.566   3.707   5.507 -0.0985  0.2286  1.5921
  102CHL1  H23B13795   1.603   3.555   5.569 -0.4489 -0.5128 -0.2634
  102CHL1   C2413796   1.463   3.548   5.391  0.0234  0.9262  0.2124
  102CHL1  H24A13797   1.384   3.474   5.415  0.5379  0.5749  0.8597
  102CHL1  H24B13798   1.404   3.628   5.342 -1.7708 -0.0914  0.6066
  102CHL1   C2513799   1.562   3.475   5.298  0.2917 -0.9273  0.0149
  102CHL1   H2513800   1.650   3.539   5.276  0.8489 -1.0752  1.6417
  102CHL1   C2613801   1.613   3.349   5.359 -0.7176  0.6751 -0.2243
  102CHL1  H26A13802   1.685   3.309   5.284 -1.1642  1.1894 -0.9392
  102CHL1  H26B13803   1.662   3.384   5.452 -2.1732  1.1223  0.3936
  102CHL1  H26C13804   1.528   3.284   5.387  0.1981 -0.5867 -0.3211
  102CHL1   C2713805   1.496   3.441   5.155 -1.1120  0.3454 -0.1794
  102CHL1  H27A13806   1.571   3.385   5.095 -0.6530 -0.7608  1.3632
  102CHL1  H27B13807   1.410   3.372   5.168 -0.9170  0.1742  0.2120
  102CHL1  H27C13808   1.476   3.536   5.100  0.0058  1.3082  1.0198
  103CHL1    C313809   0.631   3.628   6.472  0.1022 -0.5909  1.1085
  103CHL1    H313810   0.563   3.543   6.452 -0.1557 -0.3934  1.1326
  103CHL1    O313811   0.630   3.667   6.610 -0.1218 -0.2283  0.5813
  103CHL1   H3'13812   0.560   3.731   6.615  0.7554  0.9448 -1.0188
  103CHL1    C413813   0.773   3.591   6.433  0.1446 -0.2453 -0.5796
  103CHL1   H4A13814   0.843   3.670   6.470  1.5373 -1.8400  0.3729
  103CHL1   H4B13815   0.788   3.496   6.488 -1.0988 -2.3234 -3.5994
  103CHL1    C513816   0.797   3.577   6.288  0.6223 -0.2235  0.5812
  103CHL1    C613817   0.857   3.476   6.236  0.1950  1.1963 -0.2023
  103CHL1    H613818   0.883   3.389   6.297 -1.6425  0.6271 -0.1502
  103CHL1    C713819   0.896   3.457   6.095 -0.2863 -0.9784  0.3090
  103CHL1   H7A13820   0.994   3.405   6.095 -0.5259 -1.4363  0.4458
  103CHL1   H7B13821   0.832   3.376   6.055 -0.5095  0.4383 -2.4431
  103CHL1    C813822   0.882   3.587   6.013  0.5759  0.6248  0.8413
  103CHL1    H813823   0.976   3.646   6.027  0.6497  0.4519  1.0734
  103CHL1   C1413824   0.869   3.556   5.863 -0.3656  0.3410 -0.0688
  103CHL1   H1413825   0.776   3.496   5.849  1.0984 -2.0975  0.1336
  103CHL1   C1513826   0.985   3.464   5.806  0.1137  0.0003 -0.0147
  103CHL1  H15A13827   1.078   3.519   5.833 -0.3538  0.0704  1.5595
  103CHL1  H15B13828   0.975   3.360   5.844 -0.6437  1.1677  3.3772
  103CHL1   C1613829   0.975   3.495   5.658  0.1622 -0.0784  0.4803
  103CHL1  H16A13830   1.070   3.544   5.629 -0.4771  1.9668  1.5930
  103CHL1  H16B13831   0.947   3.400   5.607 -1.0671 -0.1602  1.2586
  103CHL1   C1713832   0.867   3.610   5.640  0.6402 -0.6565  0.1360
  103CHL1   H1713833   0.763   3.572   5.649  0.5067 -0.2227  0.5197
  103CHL1   C1313834   0.865   3.685   5.771 -0.5243 -0.2823  0.5357
  103CHL1   C1813835   0.986   3.777   5.778  0.1590  0.2448 -0.8444
  103CHL1  H18A13836   1.002   3.808   5.883  1.3787  0.4240 -1.0709
  103CHL1  H18B13837   1.081   3.727   5.752  1.1886  1.0795  1.0882
  103CHL1  H18C13838   0.980   3.867   5.713  0.0150  1.7955  1.1990
  103CHL1   C1213839   0.735   3.754   5.809 -0.8275  0.6921 -0.4556
  103CHL1  H12A13840   0.720   3.846   5.749  2.4226  0.4375 -1.8415
  103CHL1  H12B13841   0.647   3.689   5.786  0.7750 -1.6232 -0.3863
  103CHL1   C1113842   0.730   3.792   5.955 -0.1184 -0.2358  0.2868
  103CHL1  H11A13843   0.811   3.867   5.972  1.4104 -2.0698  1.4390
  103CHL1  H11B13844   0.632   3.826   5.995 -0.1767 -2.2356  2.0089
  103CHL1    C913845   0.754   3.667   6.048 -0.2241  0.2510 -0.1130
  103CHL1    H913846   0.676   3.592   6.021 -0.9669  0.3969  1.5244
  103CHL1   C1013847   0.753   3.692   6.199  0.0758  0.0991  0.2696
  103CHL1   C1913848   0.847   3.809   6.234 -0.1965  0.1728 -0.2728
  103CHL1  H19A13849   0.933   3.818   6.164 -0.9188  1.8230 -1.0046
  103CHL1  H19B13850   0.789   3.903   6.216 -0.4211 -0.0241 -0.5791
  103CHL1  H19C13851   0.891   3.802   6.336 -1.8030 -0.7927  0.3982
  103CHL1    C113852   0.604   3.722   6.235  0.0501 -0.6410 -0.8258
  103CHL1   H1A13853   0.573   3.811   6.175  0.4184  0.5610  0.7037
  103CHL1   H1B13854   0.540   3.636   6.207 -2.8823  1.2047 -0.3165
  103CHL1    C213855   0.583   3.750   6.390 -0.2937  0.1147  0.1002
  103CHL1   H2A13856   0.478   3.778   6.412  0.0121  0.1263  1.6503
  103CHL1   H2B13857   0.643   3.841   6.413 -0.9616  0.6388 -0.1925
  103CHL1   C2013858   0.853   3.692   5.506 -0.2310  0.3971  0.5459
  103CHL1   H2013859   0.789   3.779   5.532 -1.0783 -0.0605  0.0739
  103CHL1   C2113860   0.781   3.609   5.399  0.6233  0.1589  0.2219
  103CHL1  H21A13861   0.769   3.676   5.311  4.8686  2.6449  1.2684
  103CHL1  H21B13862   0.679   3.569   5.418  0.3050  0.5813 -0.5322
  103CHL1  H21C13863   0.847   3.526   5.365  0.0501 -0.4303  0.5139
  103CHL1   C2213864   0.991   3.740   5.451  0.0735 -0.2654  0.0880
  103CHL1  H22A13865   1.061   3.777   5.529  2.7796 -0.7550 -1.9650
  103CHL1  H22B13866   1.053   3.657   5.409  1.0539  0.4796  0.0398
  103CHL1   C2313867   0.994   3.848   5.344 -0.2787 -0.1945 -0.3859
  103CHL1  H23A13868   0.958   3.806   5.248 -1.8471 -0.7193  0.3899
  103CHL1  H23B13869   0.928   3.931   5.377  0.3093 -0.0630  0.4931
  103CHL1   C2413870   1.137   3.905   5.319 -0.3941 -0.1162 -0.1641
  103CHL1  H24A13871   1.192   3.819   5.275  0.4014 -0.5353  1.5679
  103CHL1  H24B13872   1.130   3.983   5.240 -0.6051 -1.0496 -1.0955
  103CHL1   C2513873   1.210   3.967   5.441 -0.7289 -0.1373 -0.2963
  103CHL1   H2513874   1.223   3.887   5.517 -0.5519  0.5312  0.3912
  103CHL1   C2613875   1.348   4.016   5.397 -0.4050  0.0461  0.4305
  103CHL1  H26A13876   1.349   4.057   5.294 -0.0352 -0.1199  0.3646
  103CHL1  H26B13877   1.380   4.085   5.479  2.9586 -0.2136 -0.4925
  103CHL1  H26C13878   1.410   3.924   5.402  0.3591  0.5974  1.5276
  103CHL1   C2713879   1.137   4.082   5.502  0.0514  0.1912  0.0806
  103CHL1  H27A13880   1.139   4.158   5.421 -1.0093  1.4029  1.1483
  103CHL1  H27B13881   1.030   4.057   5.522 -0.2636  0.4684 -1.1753
  103CHL1  H27C13882   1.181   4.124   5.595 -1.2629  1.6040  0.1174
  104CHL1    C313883   5.772   3.499   6.540  0.3943 -0.7449  0.3280
  104CHL1    H313884   5.874   3.465   6.514  0.3669 -1.6649  1.3669
  104CHL1    O313885   5.768   3.499   6.682  0.3585  0.0071 -0.2928
  104CHL1   H3'13886   5.685   3.538   6.711 -1.6260 -0.7960 -4.2198
  104CHL1    C413887   5.754   3.644   6.487  0.4866  0.5851 -0.9865
  104CHL1   H4A13888   5.670   3.683   6.548 -0.9862 -1.6141 -1.4775
  104CHL1   H4B13889   5.842   3.710   6.502 -0.5485  2.4943 -2.8224
  104CHL1    C513890   5.737   3.645   6.334 -0.1822 -0.0171  1.0514
  104CHL1    C613891   5.800   3.732   6.254 -0.0332 -0.0488 -0.3937
  104CHL1    H613892   5.870   3.800   6.305 -0.2034 -0.9786  1.1296
  104CHL1    C713893   5.773   3.753   6.107  0.1825  0.0149 -0.2251
  104CHL1   H7A13894   5.761   3.861   6.080 -1.1961 -0.6397 -2.5831
  104CHL1   H7B13895   5.862   3.717   6.051  0.5314 -0.9274  0.9196
  104CHL1    C813896   5.647   3.667   6.062  0.0457 -0.2818  0.0756
  104CHL1    H813897   5.557   3.729   6.080 -0.5321 -1.2136  0.4805
  104CHL1   C1413898   5.655   3.643   5.910  0.3723 -0.2703 -0.2022
  104CHL1   H1413899   5.741   3.574   5.898  2.9715  2.8507 -0.8143
  104CHL1   C1513900   5.679   3.768   5.825 -0.0305 -0.0272 -0.3801
  104CHL1  H15A13901   5.619   3.858   5.851 -0.4503 -0.6731  0.9701
  104CHL1  H15B13902   5.782   3.810   5.817  0.2596 -0.6718 -0.0335
  104CHL1   C1613903   5.637   3.718   5.684 -0.0964 -0.5345  0.2728
  104CHL1  H16A13904   5.558   3.784   5.640  0.6100 -1.1027 -1.9757
  104CHL1  H16B13905   5.727   3.736   5.622 -1.1103 -0.3744 -1.2165
  104CHL1   C1713906   5.575   3.576   5.699  0.2429 -0.1652 -0.3717
  104CHL1   H1713907   5.650   3.495   5.687  1.7121  1.2631 -1.4936
  104CHL1   C1313908   5.537   3.572   5.846 -0.5709  0.0685 -0.1357
  104CHL1   C1813909   5.402   3.651   5.868 -0.8396 -0.6549  0.0495
  104CHL1  H18A13910   5.362   3.651   5.971  0.3070 -1.5388  0.5186
  104CHL1  H18B13911   5.415   3.757   5.836 -1.1106 -1.1746 -1.9262
  104CHL1  H18C13912   5.323   3.618   5.797 -1.1703 -0.1227  0.1676
  104CHL1   C1213913   5.528   3.437   5.906 -0.0969  0.4512 -0.3194
  104CHL1  H12A13914   5.430   3.391   5.880 -1.5457  3.2117 -0.1462
  104CHL1  H12B13915   5.609   3.366   5.879 -0.6559 -0.8139  1.1766
  104CHL1   C1113916   5.529   3.444   6.063  0.7004  0.5849 -0.1519
  104CHL1  H11A13917   5.431   3.476   6.104 -0.1644 -2.0731  0.0679
  104CHL1  H11B13918   5.548   3.342   6.102 -1.2389 -0.0676 -0.8033
  104CHL1    C913919   5.638   3.534   6.128 -1.4749 -0.4865  0.4559
  104CHL1    H913920   5.727   3.475   6.099 -0.0356  1.3097  1.0723
  104CHL1   C1013921   5.634   3.544   6.282 -0.2782 -0.0436 -0.4385
  104CHL1   C1913922   5.494   3.595   6.333 -0.0580 -0.6579 -0.0966
  104CHL1  H19A13923   5.496   3.619   6.442 -0.6227 -0.4463 -0.1305
  104CHL1  H19B13924   5.461   3.692   6.290  0.0239 -0.9753 -0.8929
  104CHL1  H19C13925   5.415   3.526   6.298 -0.6599  0.4206 -0.9242
  104CHL1    C113926   5.652   3.403   6.341 -0.4511  0.1858 -0.2449
  104CHL1   H1A13927   5.566   3.338   6.312 -0.3009 -2.6168  4.4800
  104CHL1   H1B13928   5.740   3.349   6.301  1.0606  0.1684  2.7930
  104CHL1    C213929   5.660   3.404   6.497  0.1796 -0.0231 -0.4733
  104CHL1   H2A13930   5.689   3.299   6.519  1.8897  0.1681 -1.6222
  104CHL1   H2B13931   5.566   3.435   6.547  0.6097 -0.8684  0.9096
  104CHL1   C2013932   5.472   3.554   5.589 -0.2579 -0.5212 -0.0161
  104CHL1   H2013933   5.396   3.634   5.607  1.5916  0.7200  3.2388
  104CHL1   C2113934   5.410   3.409   5.595  0.2287 -0.3245 -0.4189
  104CHL1  H21A13935   5.347   3.411   5.686  1.7149 -0.3652  0.6477
  104CHL1  H21B13936   5.490   3.333   5.610 -1.9486 -2.0555  4.1672
  104CHL1  H21C13937   5.346   3.396   5.505 -1.2611 -0.5548  0.6351
  104CHL1   C2213938   5.516   3.586   5.447  0.0847  0.2486  0.5949
  104CHL1  H22A13939   5.424   3.579   5.386  0.6981  0.5478 -0.3847
  104CHL1  H22B13940   5.561   3.687   5.444 -0.0587  0.3781  1.9539
  104CHL1   C2313941   5.615   3.480   5.397 -0.0008 -0.1681  0.0179
  104CHL1  H23A13942   5.714   3.514   5.437 -0.5791  0.7356  0.7195
  104CHL1  H23B13943   5.599   3.373   5.423 -0.4867 -0.3192 -0.8716
  104CHL1   C2413944   5.640   3.492   5.244 -0.1036 -0.1544  0.8539
  104CHL1  H24A13945   5.553   3.461   5.183 -0.4422  1.6456  0.3473
  104CHL1  H24B13946   5.651   3.601   5.222 -1.1924 -0.2902 -0.5061
  104CHL1   C2513947   5.763   3.406   5.184 -0.3155  0.1019  0.7564
  104CHL1   H2513948   5.855   3.455   5.223 -0.8167  0.5227  1.4415
  104CHL1   C2613949   5.758   3.258   5.227 -0.6112  0.5869  0.5764
  104CHL1  H26A13950   5.673   3.212   5.172  1.0662 -2.9167  0.6392
  104CHL1  H26B13951   5.851   3.206   5.195 -0.2407  1.9097 -0.5755
  104CHL1  H26C13952   5.757   3.259   5.338 -1.1073  4.3975  0.6644
  104CHL1   C2713953   5.780   3.428   5.033  0.1589 -0.0504  0.2972
  104CHL1  H27A13954   5.695   3.380   4.979 -1.1677  0.5182  1.7912
  104CHL1  H27B13955   5.773   3.536   5.010 -0.6383 -0.2687 -0.5608
  104CHL1  H27C13956   5.883   3.407   4.998  0.5649  2.1326  0.0356
  105CHL1    C313957   6.832   2.838   6.360  0.8835  0.2605  0.3694
  105CHL1    H313958   6.917   2.902   6.392  0.9676  0.0667  0.5284
  105CHL1    O313959   6.766   2.798   6.481 -0.5779 -0.0047 -0.3082
  105CHL1   H3'13960   6.696   2.862   6.494  0.4875  1.3523 -0.9574
  105CHL1    C413961   6.729   2.911   6.277 -0.1864 -0.0206 -0.0827
  105CHL1   H4A13962   6.644   2.842   6.258 -0.9979  1.4263 -1.9925
  105CHL1   H4B13963   6.692   2.996   6.338 -1.9738 -1.9729  1.7136
  105CHL1    C513964   6.801   2.956   6.150  0.3410  0.7906  0.0184
  105CHL1    C613965   6.819   3.082   6.115 -0.2482  0.1118 -0.5313
  105CHL1    H613966   6.764   3.155   6.176  0.2549  1.0623 -1.2009
  105CHL1    C713967   6.873   3.135   5.982 -0.6385 -0.1500 -0.2132
  105CHL1   H7A13968   6.804   3.214   5.943 -0.5548  1.1641  2.1487
  105CHL1   H7B13969   6.972   3.184   5.993  0.2685 -1.8472 -0.5342
  105CHL1    C813970   6.884   3.018   5.879 -0.8393 -0.3855 -0.0497
  105CHL1    H813971   6.779   3.007   5.844 -0.9101  0.8969 -0.2706
  105CHL1   C1413972   6.971   3.059   5.759  0.6328 -0.2144 -0.2957
  105CHL1   H1413973   7.069   3.070   5.810  0.1028  0.7061  0.5515
  105CHL1   C1513974   6.945   3.187   5.685 -0.6210 -0.3189  0.3950
  105CHL1  H15A13975   6.835   3.201   5.673 -0.9542 -1.1561  2.1429
  105CHL1  H15B13976   6.992   3.276   5.732 -0.3735  0.0056 -0.4510
  105CHL1   C1613977   7.008   3.169   5.540 -0.0112 -0.7715 -0.0754
  105CHL1  H16A13978   6.926   3.179   5.466  0.3296 -2.3803 -0.7097
  105CHL1  H16B13979   7.085   3.248   5.531 -1.0407  0.3742  0.8274
  105CHL1   C1713980   7.064   3.023   5.536 -0.0588 -1.0001 -0.5232
  105CHL1   H1713981   7.165   3.033   5.582  0.6671 -2.4817 -1.7210
  105CHL1   C1313982   6.985   2.949   5.646  0.2079  0.7777  0.4397
  105CHL1   C1813983   6.847   2.904   5.594 -0.4264  0.0884 -0.1323
  105CHL1  H18A13984   6.787   2.866   5.680  1.2381 -0.6166  0.7703
  105CHL1  H18B13985   6.804   2.990   5.538  1.1869  0.2097 -1.2455
  105CHL1  H18C13986   6.858   2.822   5.520  0.9394  0.9045 -0.8665
  105CHL1   C1213987   7.066   2.837   5.717 -0.3628  0.0605  0.2567
  105CHL1  H12A13988   7.079   2.748   5.651  0.0463 -1.1215  1.8770
  105CHL1  H12B13989   7.171   2.868   5.738 -0.0172  0.0141 -1.2711
  105CHL1   C1113990   6.992   2.786   5.840  0.0685 -0.0233 -0.0365
  105CHL1  H11A13991   6.907   2.722   5.807  0.4102 -1.0634  1.0363
  105CHL1  H11B13992   7.069   2.724   5.890 -2.9176 -2.0801  2.3673
  105CHL1    C913993   6.944   2.890   5.939  0.3878  0.5581 -0.6768
  105CHL1    H913994   7.034   2.935   5.987  0.5836  0.3658 -0.8617
  105CHL1   C1013995   6.865   2.839   6.059 -0.5709 -0.5215 -0.7417
  105CHL1   C1913996   6.741   2.766   6.000  0.0016 -0.4415  0.0495
  105CHL1  H19A13997   6.668   2.731   6.076  0.2284 -1.4036 -0.1664
  105CHL1  H19B13998   6.693   2.818   5.915  4.1851  1.7689 -1.2330
  105CHL1  H19C13999   6.774   2.675   5.946  2.1897  0.9224 -1.0848
  105CHL1    C114000   6.955   2.756   6.151  0.4037  0.2266  0.2437
  105CHL1   H1A14001   6.992   2.667   6.095 -0.3371 -0.7859  1.2972
  105CHL1   H1B14002   7.045   2.817   6.173 -0.2428  0.6942  1.7275
  105CHL1    C214003   6.884   2.715   6.285  0.1582  0.3190 -0.3136
  105CHL1   H2A14004   6.960   2.658   6.343  0.3996  0.8659 -0.0802
  105CHL1   H2B14005   6.805   2.639   6.270 -0.6077  0.5406  2.1394
  105CHL1   C2014006   7.072   2.975   5.393  0.3953 -0.2402 -0.2332
  105CHL1   H2014007   6.967   2.967   5.358 -0.0769  0.7938  0.8409
  105CHL1   C2114008   7.137   2.839   5.389  0.0086 -0.7224 -1.3030
  105CHL1  H21A14009   7.234   2.844   5.443 -0.5813 -0.2733 -0.2668
  105CHL1  H21B14010   7.159   2.807   5.284 -0.8500  0.3013 -1.8135
  105CHL1  H21C14011   7.064   2.768   5.432 -1.0350  0.2889 -1.3711
  105CHL1   C2214012   7.136   3.072   5.289 -0.1468  0.2423 -0.4504
  105CHL1  H22A14013   7.146   3.017   5.193 -1.4306  1.1293 -1.1229
  105CHL1  H22B14014   7.068   3.157   5.267  0.4549  1.1315  0.9554
  105CHL1   C2314015   7.274   3.132   5.335  0.1871  0.8859  0.6407
  105CHL1  H23A14016   7.243   3.169   5.435 -1.1490 -0.8656  0.9143
  105CHL1  H23B14017   7.348   3.050   5.342 -0.8425 -0.0762  0.5700
  105CHL1   C2414018   7.327   3.233   5.231  0.0514  0.1488  0.4350
  105CHL1  H24A14019   7.338   3.170   5.140 -2.2150  0.0627  0.1803
  105CHL1  H24B14020   7.248   3.310   5.222  1.5068  1.6084 -0.5278
  105CHL1   C2514021   7.452   3.318   5.269  0.1757  0.8863 -0.4882
  105CHL1   H2514022   7.536   3.244   5.271  0.5174  1.2575 -0.8987
  105CHL1   C2614023   7.483   3.423   5.163 -0.3642 -0.6472 -0.3085
  105CHL1  H26A14024   7.560   3.496   5.196  0.0224 -1.0313 -0.3534
  105CHL1  H26B14025   7.520   3.380   5.068  0.1685  1.5778 -1.1869
  105CHL1  H26C14026   7.391   3.482   5.144  1.8315  3.0651 -0.4986
  105CHL1   C2714027   7.434   3.388   5.409  0.1746 -0.2387  0.1714
  105CHL1  H27A14028   7.354   3.465   5.399  0.6278  0.2766  0.5211
  105CHL1  H27B14029   7.384   3.316   5.477  1.2695 -0.8427  0.3615
  105CHL1  H27C14030   7.529   3.430   5.447 -0.5389  2.8929 -1.1383
  106CHL1    C314031   1.044   1.459   6.426  0.2696  0.0558  0.0422
  106CHL1    H314032   1.014   1.352   6.421  1.6164 -0.3650  0.3815
  106CHL1    O314033   1.042   1.510   6.561 -0.2828 -0.3417  0.3890
  106CHL1   H3'14034   1.063   1.603   6.551  0.2767 -0.6762 -2.2327
  106CHL1    C414035   1.187   1.481   6.367 -0.2734  0.0586 -0.3591
  106CHL1   H4A14036   1.223   1.585   6.384  0.3179 -0.3205  0.8235
  106CHL1   H4B14037   1.250   1.421   6.435  0.6648 -0.7881 -1.9443
  106CHL1    C514038   1.196   1.441   6.222 -0.0894  0.0302  0.2177
  106CHL1    C614039   1.293   1.353   6.174  0.0031 -0.3126 -0.3215
  106CHL1    H614040   1.368   1.326   6.250 -0.9463  0.4964  0.9589
  106CHL1    C714041   1.306   1.315   6.028  0.0848  0.3904  0.6264
  106CHL1   H7A14042   1.412   1.303   5.997  1.3358  0.1055  4.5288
  106CHL1   H7B14043   1.265   1.213   6.010 -1.1269  0.8755  0.6014
  106CHL1    C814044   1.224   1.404   5.930  0.2686  0.8004 -0.1738
  106CHL1    H814045   1.282   1.499   5.932  0.7016  0.5357  0.1879
  106CHL1   C1414046   1.223   1.355   5.790 -0.1620 -1.0378  0.1896
  106CHL1   H1414047   1.186   1.251   5.788  0.8796 -1.5593  3.1318
  106CHL1   C1514048   1.357   1.348   5.728  0.0373  0.1936  0.1289
  106CHL1  H15A14049   1.415   1.442   5.738  0.3199 -0.0192  0.5142
  106CHL1  H15B14050   1.417   1.260   5.760 -1.6010 -0.6581  0.9839
  106CHL1   C1614051   1.325   1.333   5.575 -0.4878  0.0828 -0.7544
  106CHL1  H16A14052   1.376   1.410   5.512  2.7064 -0.2073  1.3075
  106CHL1  H16B14053   1.349   1.230   5.542 -1.8139 -0.6717  0.5075
  106CHL1   C1714054   1.163   1.351   5.566 -0.2267  0.1901 -0.1591
  106CHL1   H1714055   1.115   1.253   5.582  0.2347 -0.0652 -0.3220
  106CHL1   C1314056   1.129   1.431   5.694  0.1609  0.3825  0.1548
  106CHL1   C1814057   1.186   1.579   5.678 -0.3462  0.1948 -0.1652
  106CHL1  H18A14058   1.192   1.634   5.775 -0.6403  2.7384 -1.5161
  106CHL1  H18B14059   1.282   1.584   5.622  0.2347  0.4697  0.8315
  106CHL1  H18C14060   1.111   1.630   5.614 -0.9724 -0.0383  0.3647
  106CHL1   C1214061   0.987   1.437   5.747  0.4012  0.1285 -0.3843
  106CHL1  H12A14062   0.917   1.492   5.680 -1.1116 -0.5295  0.6027
  106CHL1  H12B14063   0.948   1.333   5.752  2.7949 -0.7926  0.3540
  106CHL1   C1114064   0.974   1.492   5.891 -0.7245  0.2162 -1.1676
  106CHL1  H11A14065   0.993   1.602   5.892 -0.8843  0.2501  0.2893
  106CHL1  H11B14066   0.871   1.475   5.929  0.1076 -0.3659  0.9774
  106CHL1    C914067   1.084   1.425   5.993  0.2072 -0.4352  0.4027
  106CHL1    H914068   1.051   1.320   6.007 -1.7173  0.2223  1.1770
  106CHL1   C1014069   1.086   1.496   6.130  0.5225  0.3506  0.5578
  106CHL1   C1914070   1.128   1.642   6.107  0.4015  0.5535  0.4539
  106CHL1  H19A14071   1.145   1.698   6.201  2.7186  2.2169 -0.8607
  106CHL1  H19B14072   1.223   1.635   6.048  1.6907  0.1899  2.4601
  106CHL1  H19C14073   1.056   1.703   6.048  1.2164  0.8735 -0.2354
  106CHL1    C114074   0.946   1.481   6.194  0.3407  0.0999 -0.3403
  106CHL1   H1A14075   0.863   1.508   6.126 -0.4207 -1.3315 -0.0350
  106CHL1   H1B14076   0.931   1.371   6.208  1.0999  0.0106 -0.1509
  106CHL1    C214077   0.941   1.536   6.332  0.3261 -0.1203 -0.6619
  106CHL1   H2A14078   0.838   1.518   6.370  0.3876  1.4731  0.3388
  106CHL1   H2B14079   0.972   1.640   6.355 -1.8880  0.2763  0.8138
  106CHL1   C2014080   1.112   1.387   5.422 -0.2927  0.5692 -0.5653
  106CHL1   H2014081   1.156   1.484   5.392  0.5947 -0.5371 -3.1825
  106CHL1   C2114082   0.960   1.379   5.425 -0.2974 -0.6638 -0.5877
  106CHL1  H21A14083   0.919   1.381   5.322  0.5349 -3.5110 -1.0561
  106CHL1  H21B14084   0.915   1.469   5.472  0.5363 -0.5613  0.0294
  106CHL1  H21C14085   0.928   1.282   5.469 -0.9174  0.0656  0.6397
  106CHL1   C2214086   1.163   1.280   5.329  0.3571 -0.0641 -0.5535
  106CHL1  H22A14087   1.274   1.278   5.328  0.4449  0.8846  2.0344
  106CHL1  H22B14088   1.123   1.179   5.354 -1.0750  0.9878  1.7438
  106CHL1   C2314089   1.130   1.316   5.188 -0.2410 -0.5011 -0.2866
  106CHL1  H23A14090   1.020   1.320   5.172 -0.1812  0.3994 -0.5318
  106CHL1  H23B14091   1.163   1.422   5.179 -0.2840 -0.4223  0.3863
  106CHL1   C2414092   1.207   1.246   5.074  0.0467 -0.1481  0.2800
  106CHL1  H24A14093   1.313   1.282   5.075  0.3647 -1.0647 -0.2788
  106CHL1  H24B14094   1.197   1.137   5.090 -0.2117 -0.6408 -2.7247
  106CHL1   C2514095   1.144   1.271   4.928 -0.5227  0.0304  0.4615
  106CHL1   H2514096   1.037   1.244   4.936 -0.6972  0.2074 -0.9313
  106CHL1   C2614097   1.164   1.412   4.886 -0.7362 -0.6248  0.5449
  106CHL1  H26A14098   1.097   1.472   4.951 -3.9202 -1.1943 -1.9307
  106CHL1  H26B14099   1.270   1.444   4.885 -1.0101  0.4071 -1.2824
  106CHL1  H26C14100   1.114   1.418   4.786  0.2906 -1.7303 -0.0531
  106CHL1   C2714101   1.198   1.170   4.817  0.2079 -0.3270 -0.0624
  106CHL1  H27A14102   1.306   1.187   4.797 -0.1304  0.5150 -1.2810
  106CHL1  H27B14103   1.188   1.064   4.849  2.8459  0.0084  2.2403
  106CHL1  H27C14104   1.137   1.189   4.726 -0.1695 -0.1873  0.2170
  107CHL1    C314105   3.760   6.271   6.182  0.0116 -0.1265 -0.4012
  107CHL1    H314106   3.822   6.356   6.218 -1.4593  0.9207 -0.1939
  107CHL1    O314107   3.774   6.177   6.292  0.4647 -0.2567 -0.1858
  107CHL1   H3'14108   3.717   6.110   6.253  0.5292 -0.4254  0.0099
  107CHL1    C414109   3.608   6.296   6.171 -0.4042 -0.6351 -0.7447
  107CHL1   H4A14110   3.564   6.199   6.139  2.8873 -1.9541 -1.7478
  107CHL1   H4B14111   3.558   6.328   6.265 -0.9541  0.1002 -1.2746
  107CHL1    C514112   3.583   6.386   6.053  0.0583 -0.2031  0.7825
  107CHL1    C614113   3.522   6.500   6.076  0.2877 -0.2395  0.2147
  107CHL1    H614114   3.490   6.520   6.179 -0.2757 -1.1964  0.2392
  107CHL1    C714115   3.495   6.617   5.975  0.5645  0.0064  0.5661
  107CHL1   H7A14116   3.392   6.657   5.977  1.3689  2.2701 -0.3990
  107CHL1   H7B14117   3.574   6.689   6.004  0.2206  1.0947 -1.0494
  107CHL1    C814118   3.525   6.551   5.837  0.2969 -0.1181 -0.5532
  107CHL1    H814119   3.441   6.483   5.811  0.2851  0.1422 -1.2267
  107CHL1   C1414120   3.523   6.661   5.726 -0.6507 -0.8293  0.1179
  107CHL1   H1414121   3.611   6.728   5.739  0.2140 -1.4471 -2.1110
  107CHL1   C1514122   3.396   6.748   5.725 -0.2443  0.0380  0.0236
  107CHL1  H15A14123   3.311   6.680   5.746 -1.4868  0.9836 -1.6626
  107CHL1  H15B14124   3.394   6.824   5.807 -0.3128 -0.6127  0.6370
  107CHL1   C1614125   3.401   6.806   5.579  0.2427  0.0503 -0.1536
  107CHL1  H16A14126   3.302   6.788   5.532 -1.0104 -1.0607  2.6566
  107CHL1  H16B14127   3.422   6.915   5.575  0.7065 -0.0668 -1.5567
  107CHL1   C1714128   3.510   6.725   5.499 -0.6717 -0.1190 -0.2126
  107CHL1   H1714129   3.599   6.791   5.502 -2.1140  1.8605  0.9914
  107CHL1   C1314130   3.542   6.602   5.587  0.2914  0.0981  0.0415
  107CHL1   C1814131   3.431   6.501   5.554  0.3166 -0.0908 -0.1716
  107CHL1  H18A14132   3.329   6.536   5.580  0.9070  0.6589  1.1822
  107CHL1  H18B14133   3.435   6.460   5.451 -0.3681 -2.0023  0.5146
  107CHL1  H18C14134   3.449   6.411   5.617  0.9454  0.8552  1.0264
  107CHL1   C1214135   3.681   6.535   5.578  0.2750  0.0755  0.6923
  107CHL1  H12A14136   3.709   6.493   5.479 -0.6146 -0.1262  0.5212
  107CHL1  H12B14137   3.753   6.614   5.606  0.8414 -0.3551  0.4768
  107CHL1   C1114138   3.690   6.421   5.677 -0.3735 -0.5278 -0.2735
  107CHL1  H11A14139   3.630   6.333   5.643  1.7499 -0.9360 -3.4284
  107CHL1  H11B14140   3.795   6.385   5.678 -0.2760 -0.2312  0.1414
  107CHL1    C914141   3.650   6.466   5.825  0.1439  0.3094  0.3624
  107CHL1    H914142   3.736   6.532   5.852  0.1549  0.8394 -0.8951
  107CHL1   C1014143   3.649   6.346   5.918  0.7181  0.7555 -0.5282
  107CHL1   C1914144   3.561   6.229   5.858 -0.0040  0.2176 -0.6435
  107CHL1  H19A14145   3.612   6.187   5.769 -2.0300  1.7374 -2.6128
  107CHL1  H19B14146   3.537   6.156   5.939  2.1580  2.4084  2.2147
  107CHL1  H19C14147   3.462   6.265   5.824 -0.2005  0.3237  0.0210
  107CHL1    C114148   3.797   6.304   5.944  0.4072  0.0538 -0.0053
  107CHL1   H1A14149   3.833   6.250   5.854  2.0288 -0.6193  1.0023
  107CHL1   H1B14150   3.854   6.399   5.957  2.1951 -1.1354  1.4277
  107CHL1    C214151   3.817   6.208   6.060  0.5644  0.2482  0.1051
  107CHL1   H2A14152   3.921   6.171   6.064  0.5255  0.0721 -0.5011
  107CHL1   H2B14153   3.748   6.123   6.043  0.4967  0.2539  0.3403
  107CHL1   C2014154   3.468   6.701   5.352  0.0480  0.0154 -1.1585
  107CHL1   H2014155   3.368   6.652   5.354 -1.0078  2.1094 -0.0630
  107CHL1   C2114156   3.572   6.621   5.273  0.2558  0.2731  0.1722
  107CHL1  H21A14157   3.536   6.613   5.168 -0.8108  2.7881  0.2615
  107CHL1  H21B14158   3.578   6.521   5.319  0.4845  0.6163  0.8989
  107CHL1  H21C14159   3.667   6.679   5.277  1.4636 -1.2350 -3.0090
  107CHL1   C2214160   3.451   6.843   5.280 -0.3863  0.5812 -0.0581
  107CHL1  H22A14161   3.457   6.816   5.172  0.3664  0.1869  0.0769
  107CHL1  H22B14162   3.343   6.866   5.292 -0.9233 -1.5793 -0.1914
  107CHL1   C2314163   3.550   6.953   5.298  0.0827  0.2956 -0.3412
  107CHL1  H23A14164   3.545   6.988   5.404  3.4882  0.0769  0.0216
  107CHL1  H23B14165   3.656   6.924   5.281  0.3247  0.7506  0.3217
  107CHL1   C2414166   3.513   7.077   5.209 -1.0844  0.2884 -0.4922
  107CHL1  H24A14167   3.478   7.046   5.108  0.7841 -2.1128 -0.4841
  107CHL1  H24B14168   3.422   7.108   5.264  0.0453  0.1562  1.5494
  107CHL1   C2514169   3.611   7.204   5.206  1.1166 -0.4016 -0.7342
  107CHL1   H2514170   3.711   7.166   5.177  2.4151  1.7209  0.6955
  107CHL1   C2614171   3.574   7.304   5.102  0.8020  0.6595 -0.1601
  107CHL1  H26A14172   3.661   7.372   5.091  1.0207  0.2489 -1.1524
  107CHL1  H26B14173   3.549   7.269   4.999  0.4208 -1.3937  0.5876
  107CHL1  H26C14174   3.487   7.366   5.133 -0.2966 -1.6885  1.7669
  107CHL1   C2714175   3.619   7.264   5.343  0.4992  0.0715 -0.8067
  107CHL1  H27A14176   3.662   7.367   5.336 -3.6618  1.8937 -3.9208
  107CHL1  H27B14177   3.517   7.292   5.376  1.0904  2.4901 -0.8181
  107CHL1  H27C14178   3.652   7.183   5.411 -0.0391 -0.2214 -0.8985
  108CHL1    C314179   5.347   1.999   6.574 -0.0221 -0.2840  0.1370
  108CHL1    H314180   5.338   1.889   6.586  1.7149 -0.4624  0.1423
  108CHL1    O314181   5.370   2.045   6.701  0.1434  0.4260 -0.2335
  108CHL1   H3'14182   5.414   2.130   6.698  3.6378 -1.2311 -0.7147
  108CHL1    C414183   5.469   2.026   6.483 -0.1942 -0.3751 -0.5747
  108CHL1   H4A14184   5.504   2.130   6.500  1.6387 -0.8145 -1.4260
  108CHL1   H4B14185   5.557   1.971   6.522  1.0353  3.3882  2.7105
  108CHL1    C514186   5.445   1.995   6.336 -0.8522  0.8040 -0.9183
  108CHL1    C614187   5.521   1.904   6.277 -0.2780  0.2024  0.4997
  108CHL1    H614188   5.607   1.856   6.327 -1.2955  2.2754  4.7267
  108CHL1    C714189   5.497   1.859   6.136 -0.5177  0.5942 -0.0140
  108CHL1   H7A14190   5.594   1.846   6.084  0.2769  2.1929  1.0027
  108CHL1   H7B14191   5.452   1.758   6.124 -0.7470  0.7136 -0.1781
  108CHL1    C814192   5.412   1.954   6.053  0.4763  0.0407 -0.2782
  108CHL1    H814193   5.478   2.043   6.040  1.1723 -0.8562 -4.9968
  108CHL1   C1414194   5.366   1.902   5.912 -0.1879 -0.0354 -0.3376
  108CHL1   H1414195   5.297   1.818   5.936 -0.6776  0.3055 -0.5223
  108CHL1   C1514196   5.476   1.857   5.824 -0.5083 -0.3082  0.0191
  108CHL1  H15A14197   5.558   1.931   5.817 -1.1137  0.3029 -0.8096
  108CHL1  H15B14198   5.513   1.756   5.851 -1.2780 -0.5841  0.0671
  108CHL1   C1614199   5.412   1.857   5.683 -0.4596 -0.4404 -0.4468
  108CHL1  H16A14200   5.486   1.895   5.610 -0.3166 -0.6090 -0.3902
  108CHL1  H16B14201   5.394   1.752   5.653  2.4345 -1.6226  1.5455
  108CHL1   C1714202   5.274   1.931   5.696  0.2118 -0.1014 -0.0577
  108CHL1   H1714203   5.201   1.848   5.706  1.9927 -1.6252  0.7328
  108CHL1   C1314204   5.282   1.996   5.832 -0.3058 -0.2388 -0.5256
  108CHL1   C1814205   5.348   2.135   5.816  0.0189  0.7631  0.2052
  108CHL1  H18A14206   5.430   2.140   5.741  1.1171  2.2967  1.4351
  108CHL1  H18B14207   5.272   2.209   5.784  0.1230  1.6997  1.9527
  108CHL1  H18C14208   5.395   2.158   5.915 -1.6082  1.5711  0.8288
  108CHL1   C1214209   5.147   2.012   5.907  0.2883  0.6328  0.2271
  108CHL1  H12A14210   5.081   2.080   5.849  1.4020  1.5376 -0.0217
  108CHL1  H12B14211   5.104   1.910   5.905  0.7605  0.4401 -0.5762
  108CHL1   C1114212   5.172   2.066   6.048  0.5327 -0.1920 -0.7015
  108CHL1  H11A14213   5.197   2.174   6.039 -0.9945  0.2930  0.5900
  108CHL1  H11B14214   5.076   2.065   6.104  1.3926 -2.8264  0.9341
  108CHL1    C914215   5.285   1.992   6.129 -0.1826 -0.2529  0.1179
  108CHL1    H914216   5.230   1.896   6.144 -1.1854  0.2861 -0.0481
  108CHL1   C1014217   5.314   2.050   6.268  0.0782  0.5466  0.1140
  108CHL1   C1914218   5.348   2.203   6.265 -0.3681  0.3993 -0.2686
  108CHL1  H19A14219   5.355   2.256   6.362 -0.1299 -0.5394  0.2371
  108CHL1  H19B14220   5.447   2.228   6.221 -0.9055  2.8394 -0.2349
  108CHL1  H19C14221   5.276   2.267   6.210 -0.4319  0.2738 -0.3291
  108CHL1    C114222   5.195   2.013   6.367 -0.3235  0.3295  0.4549
  108CHL1   H1A14223   5.096   2.056   6.344 -2.5795 -3.4118  2.1913
  108CHL1   H1B14224   5.178   1.903   6.364 -1.2978  0.4549  0.9654
  108CHL1    C214225   5.214   2.059   6.514 -0.4593 -0.7830  0.4668
  108CHL1   H2A14226   5.135   2.020   6.582 -0.3099 -3.9841 -0.9764
  108CHL1   H2B14227   5.221   2.168   6.532  1.0351 -1.0606  1.7814
  108CHL1   C2014228   5.233   2.009   5.565 -0.3634 -0.2442 -0.4195
  108CHL1   H2014229   5.296   2.101   5.557  0.7131 -0.8777  0.3955
  108CHL1   C2114230   5.090   2.055   5.581  0.3199  0.2628 -0.0555
  108CHL1  H21A14231   5.034   1.961   5.599  1.6124 -0.1368  2.2536
  108CHL1  H21B14232   5.056   2.106   5.488  1.1969  0.5892 -0.2036
  108CHL1  H21C14233   5.075   2.134   5.657 -0.5256  1.3103 -1.2680
  108CHL1   C2214234   5.270   1.930   5.438  0.7803 -0.1464  0.2309
  108CHL1  H22A14235   5.244   1.996   5.352  1.2051 -1.1508 -0.6984
  108CHL1  H22B14236   5.380   1.916   5.437  0.5954 -2.9580  2.7627
  108CHL1   C2314237   5.197   1.792   5.427 -1.1490  0.1413  0.1948
  108CHL1  H23A14238   5.225   1.711   5.498 -0.8085 -1.1112 -1.3212
  108CHL1  H23B14239   5.086   1.799   5.433 -1.1897 -0.3381  0.0848
  108CHL1   C2414240   5.224   1.749   5.278 -0.3526  0.1548 -0.4313
  108CHL1  H24A14241   5.165   1.794   5.196 -0.2061 -0.3857 -0.8321
  108CHL1  H24B14242   5.331   1.768   5.256 -0.0167  0.8536  1.5843
  108CHL1   C2514243   5.196   1.596   5.259  0.3378 -0.0485 -0.3650
  108CHL1   H2514244   5.101   1.570   5.311  1.2394 -1.8950  0.4306
  108CHL1   C2614245   5.205   1.554   5.110 -0.2432 -0.2318 -0.8259
  108CHL1  H26A14246   5.297   1.594   5.063  0.9865 -0.8467  0.9745
  108CHL1  H26B14247   5.206   1.443   5.112 -1.4278 -0.2897  2.2249
  108CHL1  H26C14248   5.118   1.586   5.048  0.8311 -0.6634 -2.6258
  108CHL1   C2714249   5.295   1.500   5.340 -0.1110  0.2472  0.1843
  108CHL1  H27A14250   5.291   1.523   5.449 -4.1824 -1.0583  0.4592
  108CHL1  H27B14251   5.260   1.395   5.327 -0.4736  0.2625  0.9505
  108CHL1  H27C14252   5.397   1.509   5.297  0.0180 -1.1820  0.1459
  109CHL1    C314253   2.651   6.798   6.340 -0.0896 -0.2802  0.0643
  109CHL1    H314254   2.634   6.689   6.358 -1.1872 -0.0876  0.2471
  109CHL1    O314255   2.708   6.867   6.453 -0.4356 -0.1646  0.5567
  109CHL1   H3'14256   2.654   6.846   6.530 -0.5113 -0.2569  0.4793
  109CHL1    C414257   2.748   6.808   6.217  0.6899  0.3862  0.2603
  109CHL1   H4A14258   2.768   6.913   6.187 -3.3880  1.7669  1.6095
  109CHL1   H4B14259   2.847   6.766   6.241  1.0949  0.2840 -1.4585
  109CHL1    C514260   2.679   6.738   6.103 -0.2482  0.0604  0.1915
  109CHL1    C614261   2.741   6.639   6.031  0.1271  0.9031 -0.8009
  109CHL1    H614262   2.845   6.612   6.054 -0.2301  0.1978  0.0472
  109CHL1    C714263   2.686   6.568   5.908  0.1076  0.2045  0.5358
  109CHL1   H7A14264   2.754   6.546   5.823 -0.3098 -0.2013  0.3047
  109CHL1   H7B14265   2.652   6.465   5.935 -2.1176  0.4139 -1.2144
  109CHL1    C814266   2.561   6.652   5.855 -0.1175  0.1020 -0.3236
  109CHL1    H814267   2.594   6.746   5.806 -0.3104  0.2661 -0.1437
  109CHL1   C1414268   2.481   6.574   5.754  0.3525  0.8890 -0.1915
  109CHL1   H1414269   2.426   6.503   5.819  1.7575 -1.4142 -1.4120
  109CHL1   C1514270   2.554   6.496   5.645 -0.0940  0.0022  0.2670
  109CHL1  H15A14271   2.628   6.565   5.597  0.3407 -0.6386  0.0078
  109CHL1  H15B14272   2.599   6.400   5.677 -1.4783 -1.3451 -1.6256
  109CHL1   C1614273   2.444   6.460   5.543 -0.1797  0.3766  0.3090
  109CHL1  H16A14274   2.470   6.507   5.446  0.9674  2.0958  1.4094
  109CHL1  H16B14275   2.422   6.351   5.537  0.5665  0.1509  1.3352
  109CHL1   C1714276   2.312   6.529   5.587  0.2512  0.2768  0.6603
  109CHL1   H1714277   2.260   6.456   5.651  1.3848 -0.3342  0.9059
  109CHL1   C1314278   2.367   6.642   5.678 -0.4838 -0.1052  0.4198
  109CHL1   C1814279   2.424   6.755   5.593  0.4825  0.2102 -0.4176
  109CHL1  H18A14280   2.500   6.719   5.520 -0.3790 -0.1957 -1.1350
  109CHL1  H18B14281   2.348   6.807   5.531 -0.7825  0.6150  1.3901
  109CHL1  H18C14282   2.480   6.828   5.655  0.7603 -0.2260 -0.1506
  109CHL1   C1214283   2.260   6.692   5.785 -0.5535 -0.1036  0.4902
  109CHL1  H12A14284   2.176   6.754   5.747  0.1668 -0.1139 -1.2172
  109CHL1  H12B14285   2.225   6.599   5.835  0.5696 -2.1094 -2.2098
  109CHL1   C1114286   2.337   6.772   5.895 -0.2254  0.4964 -0.4991
  109CHL1  H11A14287   2.377   6.862   5.843  1.3519 -0.5876 -1.2346
  109CHL1  H11B14288   2.267   6.807   5.974 -0.1598  0.5394 -0.4601
  109CHL1    C914289   2.464   6.703   5.961 -0.0331  0.5758  0.4125
  109CHL1    H914290   2.434   6.611   6.015 -1.5093  0.4366 -0.5526
  109CHL1   C1014291   2.539   6.788   6.067  0.0181  0.6289 -0.3797
  109CHL1   C1914292   2.564   6.930   6.019 -0.6659 -0.6279 -0.2200
  109CHL1  H19A14293   2.605   7.001   6.094  0.4023 -0.0087 -1.3541
  109CHL1  H19B14294   2.637   6.933   5.935  0.2027 -0.1801  0.5317
  109CHL1  H19C14295   2.468   6.975   5.985 -1.7328 -1.8158  1.0682
  109CHL1    C114296   2.448   6.796   6.191  0.1554 -0.0610 -0.3794
  109CHL1   H1A14297   2.360   6.863   6.177  0.5381  0.7699  0.9817
  109CHL1   H1B14298   2.416   6.696   6.228  0.4865 -0.3419 -0.8414
  109CHL1    C214299   2.511   6.863   6.316 -0.8579 -0.1607 -0.0996
  109CHL1   H2A14300   2.453   6.849   6.410  0.5659  0.9822  1.0022
  109CHL1   H2B14301   2.520   6.972   6.297 -0.3496 -0.3010 -0.6886
  109CHL1   C2014302   2.218   6.564   5.472  0.4293 -0.9980 -0.1987
  109CHL1   H2014303   2.274   6.628   5.401 -0.4702  1.3460  1.0843
  109CHL1   C2114304   2.100   6.649   5.520  0.5728 -0.0119 -0.0800
  109CHL1  H21A14305   2.017   6.643   5.445 -0.8951 -0.1302  1.4805
  109CHL1  H21B14306   2.127   6.753   5.544  0.7916 -0.6951  3.0197
  109CHL1  H21C14307   2.073   6.592   5.612  1.0919 -0.4173 -0.1716
  109CHL1   C2214308   2.169   6.427   5.406  0.1554 -0.0399 -0.6042
  109CHL1  H22A14309   2.259   6.378   5.363  0.9244  1.3491 -0.6529
  109CHL1  H22B14310   2.131   6.359   5.486 -0.2984 -1.1751 -1.7525
  109CHL1   C2314311   2.055   6.431   5.298  0.3145 -1.3266 -0.5433
  109CHL1  H23A14312   1.961   6.459   5.350  1.2809  0.9837  0.0672
  109CHL1  H23B14313   2.076   6.514   5.226 -3.4740  0.6878  0.4203
  109CHL1   C2414314   2.022   6.302   5.235  0.6847 -0.7848  0.3283
  109CHL1  H24A14315   2.109   6.235   5.218  0.7840 -0.6356  0.2547
  109CHL1  H24B14316   1.950   6.243   5.297  0.6667 -1.9807 -0.7718
  109CHL1   C2514317   1.958   6.327   5.092 -0.5492 -0.7183 -0.5749
  109CHL1   H2514318   1.864   6.376   5.124  0.3392  0.3971  0.4283
  109CHL1   C2614319   2.040   6.418   4.993  0.8602  0.6122  0.0889
  109CHL1  H26A14320   1.981   6.423   4.899 -2.9985 -0.7119  2.1862
  109CHL1  H26B14321   2.055   6.520   5.034  1.5804  0.4718  0.1916
  109CHL1  H26C14322   2.135   6.363   4.979 -0.3705 -1.1113 -2.1107
  109CHL1   C2714323   1.928   6.199   5.020 -0.1698  0.7082  0.9927
  109CHL1  H27A14324   1.871   6.128   5.083  1.0834 -1.2313  0.0413
  109CHL1  H27B14325   1.859   6.235   4.940  0.7229  2.4198  0.9456
  109CHL1  H27C14326   2.020   6.151   4.982 -0.5283  1.4369 -0.9439
  110CHL1    C314327   0.203   5.102   6.774 -0.1205  0.4652 -0.4166
  110CHL1    H314328   0.210   4.993   6.751 -1.5651  0.3872 -0.5863
  110CHL1    O314329   0.224   5.121   6.915  0.0671 -0.3393 -0.3561
  110CHL1   H3'14330   0.297   5.060   6.924 -0.0021 -0.1983  1.3626
  110CHL1    C414331   0.315   5.185   6.714 -0.5466  0.4273 -0.4628
  110CHL1   H4A14332   0.298   5.293   6.729 -0.3285  0.2485  1.2274
  110CHL1   H4B14333   0.414   5.163   6.760 -0.5438  3.0764  0.9938
  110CHL1    C514334   0.321   5.166   6.567  0.4088  0.3156  0.3567
  110CHL1    C614335   0.434   5.130   6.505 -0.7104  0.5038  0.8814
  110CHL1    H614336   0.523   5.108   6.566 -0.8923 -0.2230  0.9007
  110CHL1    C714337   0.450   5.120   6.355  0.1941  0.0286 -0.5293
  110CHL1   H7A14338   0.543   5.171   6.324  0.5316  0.1459  0.6232
  110CHL1   H7B14339   0.462   5.013   6.328 -2.1685 -0.4660  0.1617
  110CHL1    C814340   0.327   5.176   6.280  1.0033 -0.4430  0.3552
  110CHL1    H814341   0.342   5.282   6.253  0.0524 -0.4861 -0.3999
  110CHL1   C1414342   0.317   5.108   6.143 -0.5437  0.9077  0.4462
  110CHL1   H1414343   0.297   5.001   6.163  0.5865  0.5295 -0.3223
  110CHL1   C1514344   0.439   5.103   6.058  0.7027  0.3947  0.0717
  110CHL1  H15A14345   0.482   5.205   6.052  0.5102  0.5774  1.4781
  110CHL1  H15B14346   0.516   5.031   6.091  0.5628  0.6078  0.8808
  110CHL1   C1614347   0.385   5.072   5.914  0.0289 -0.4438 -0.6415
  110CHL1  H16A14348   0.401   5.161   5.850  0.4075  0.6535  0.9480
  110CHL1  H16B14349   0.425   4.975   5.875  0.4916 -0.4954 -0.0518
  110CHL1   C1714350   0.231   5.070   5.928  0.7645 -0.3612  1.0359
  110CHL1   H1714351   0.209   4.965   5.957  0.5733 -0.7259 -0.3605
  110CHL1   C1314352   0.205   5.156   6.053 -0.4312 -0.3602  0.2804
  110CHL1   C1814353   0.219   5.300   6.016  0.0460 -0.9067 -0.2774
  110CHL1  H18A14354   0.309   5.320   5.954  0.5600 -0.7478  0.5057
  110CHL1  H18B14355   0.129   5.334   5.961  0.0293  0.6198  0.6259
  110CHL1  H18C14356   0.217   5.364   6.107 -1.0217 -1.2149 -0.0694
  110CHL1   C1214357   0.073   5.132   6.132  0.3412 -0.3065 -0.3590
  110CHL1  H12A14358  -0.007   5.161   6.061  2.0512 -1.2234 -2.8071
  110CHL1  H12B14359   0.046   5.025   6.150 -3.0821  0.2052 -1.6779
  110CHL1   C1114360   0.074   5.201   6.269 -0.0702  0.1393 -0.5740
  110CHL1  H11A14361   0.070   5.309   6.244 -0.5321  0.1179 -0.6086
  110CHL1  H11B14362  -0.023   5.184   6.321 -0.3770  0.5594 -0.9975
  110CHL1    C914363   0.194   5.156   6.353  0.2636 -0.2241 -0.2755
  110CHL1    H914364   0.179   5.046   6.357  1.5424 -0.3849  1.7375
  110CHL1   C1014365   0.194   5.207   6.500 -0.2823 -0.0901 -0.8941
  110CHL1   C1914366   0.176   5.363   6.494  0.6520  1.2429  0.2259
  110CHL1  H19A14367   0.186   5.399   6.598 -2.9531  1.1858  0.7107
  110CHL1  H19B14368   0.259   5.410   6.436  0.8017 -0.2384 -0.8279
  110CHL1  H19C14369   0.075   5.387   6.454  0.6569 -0.4571 -0.9135
  110CHL1    C114370   0.071   5.153   6.574  0.2805  0.3847 -0.2969
  110CHL1   H1A14371  -0.022   5.210   6.551 -0.8152 -0.9683  0.5996
  110CHL1   H1B14372   0.052   5.048   6.544 -1.2840  0.6170 -0.2355
  110CHL1    C214373   0.069   5.157   6.726 -0.8778  0.0654 -0.6577
  110CHL1   H2A14374  -0.008   5.082   6.751 -0.2442 -1.4967 -3.0474
  110CHL1   H2B14375   0.059   5.263   6.759  0.5459  0.6074 -1.7868
  110CHL1   C2014376   0.161   5.101   5.798  0.1030 -0.4753  0.0840
  110CHL1   H2014377   0.153   5.211   5.797 -0.2632 -0.4973 -0.5293
  110CHL1   C2114378   0.013   5.056   5.797 -0.2686 -0.5190  0.6482
  110CHL1  H21A14379  -0.005   4.954   5.838 -2.3848 -0.9751 -1.2540
  110CHL1  H21B14380  -0.046   5.067   5.704 -0.1739 -1.0429  0.5276
  110CHL1  H21C14381  -0.042   5.124   5.866 -0.6194 -0.1054 -0.0339
  110CHL1   C2214382   0.233   5.064   5.664  0.2347  0.7960 -0.3290
  110CHL1  H22A14383   0.333   5.111   5.658  1.5111 -1.5562  0.9413
  110CHL1  H22B14384   0.235   4.953   5.666  2.5426  0.7866 -1.0578
  110CHL1   C2314385   0.164   5.111   5.534 -0.3024 -0.2836 -0.9365
  110CHL1  H23A14386   0.071   5.056   5.506  0.6941 -2.4066 -0.3389
  110CHL1  H23B14387   0.140   5.216   5.559 -1.7488 -1.2334  2.0651
  110CHL1   C2414388   0.250   5.102   5.405 -0.0581 -0.0150  0.1119
  110CHL1  H24A14389   0.345   5.160   5.398  1.7450 -2.7819  0.0233
  110CHL1  H24B14390   0.276   4.995   5.416 -2.1853 -0.3290  3.4351
  110CHL1   C2514391   0.170   5.109   5.278 -0.9191 -0.0502  0.4536
  110CHL1   H2514392   0.087   5.036   5.287  0.1125 -1.5078 -1.3225
  110CHL1   C2614393   0.112   5.254   5.263 -0.2913 -0.0543  0.2278
  110CHL1  H26A14394   0.190   5.332   5.277  0.6623 -0.9603  0.0709
  110CHL1  H26B14395   0.051   5.260   5.170 -0.5327  0.4978  0.4123
  110CHL1  H26C14396   0.030   5.265   5.337 -1.4672 -1.6452 -0.7952
  110CHL1   C2714397   0.250   5.070   5.148  0.9229  0.1429 -0.0575
  110CHL1  H27A14398   0.333   5.140   5.125 -0.1665  1.5145  0.0608
  110CHL1  H27B14399   0.287   4.967   5.167 -1.5093 -0.4077  2.3899
  110CHL1  H27C14400   0.183   5.070   5.059  0.4676 -0.1094  0.2847
  111CHL1    C314401   3.930   1.132   6.316 -0.1350 -0.3727 -0.1072
  111CHL1    H314402   3.838   1.080   6.282  0.6138 -1.7274 -0.1206
  111CHL1    O314403   3.954   1.112   6.452 -0.1562 -0.5031 -0.3520
  111CHL1   H3'14404   4.008   1.188   6.474 -1.2086  0.0044  0.5525
  111CHL1    C414405   4.052   1.105   6.236 -0.3592  0.1917  0.1752
  111CHL1   H4A14406   4.137   1.164   6.277 -1.6120  1.1075  1.5922
  111CHL1   H4B14407   4.074   0.999   6.261 -0.9085 -0.2382 -1.1005
  111CHL1    C514408   4.022   1.128   6.090 -0.2707  0.0250  0.2222
  111CHL1    C614409   4.015   1.017   6.015 -0.2037 -0.2356  0.3586
  111CHL1    H614410   4.038   0.916   6.051 -2.1402 -1.1179 -0.7640
  111CHL1    C714411   3.977   1.029   5.867  0.8068 -0.4357 -0.1552
  111CHL1   H7A14412   4.029   0.961   5.797  1.4407  0.6367 -0.7462
  111CHL1   H7B14413   3.872   1.007   5.840  1.2602 -0.4568 -2.0089
  111CHL1    C814414   4.003   1.179   5.817 -0.0719  0.4097  0.0918
  111CHL1    H814415   4.111   1.201   5.824  0.5678 -1.7390 -1.8497
  111CHL1   C1414416   3.955   1.187   5.674  0.4951  0.2052  0.3935
  111CHL1   H1414417   3.850   1.151   5.679  0.7138 -0.9663 -1.9734
  111CHL1   C1514418   4.024   1.094   5.575  0.5086 -0.1328 -0.4042
  111CHL1  H15A14419   4.134   1.088   5.589  0.1883 -1.6404  1.9916
  111CHL1  H15B14420   3.985   0.991   5.588  0.8687 -0.2384 -0.1274
  111CHL1   C1614421   4.004   1.151   5.435 -1.0566  0.9352 -0.7112
  111CHL1  H16A14422   4.102   1.149   5.382 -0.9753  0.9967 -0.5634
  111CHL1  H16B14423   3.922   1.097   5.384  2.4844 -3.4387 -2.4473
  111CHL1   C1714424   3.935   1.292   5.462  0.0419 -0.5375  0.5208
  111CHL1   H1714425   3.826   1.272   5.452  0.2657 -1.2314 -0.7825
  111CHL1   C1314426   3.969   1.324   5.611  0.2581  0.0670  0.5859
  111CHL1   C1814427   4.116   1.368   5.607 -0.5301 -0.7775 -0.0765
  111CHL1  H18A14428   4.125   1.473   5.571 -1.1289  0.3840  2.8981
  111CHL1  H18B14429   4.172   1.362   5.702 -0.1244 -1.9074 -0.3619
  111CHL1  H18C14430   4.168   1.307   5.530 -2.2555 -2.2044 -0.1852
  111CHL1   C1214431   3.879   1.417   5.693  0.4491 -0.1353 -0.4249
  111CHL1  H12A14432   3.887   1.523   5.660 -2.4104 -0.4148 -2.4370
  111CHL1  H12B14433   3.774   1.381   5.693  0.2944  0.2703 -1.4301
  111CHL1   C1114434   3.927   1.418   5.842  0.3323  0.0168 -0.2309
  111CHL1  H11A14435   4.036   1.437   5.831 -0.2369  2.6548 -2.3834
  111CHL1  H11B14436   3.880   1.498   5.903  0.3074  0.1956 -0.4835
  111CHL1    C914437   3.921   1.276   5.905  0.2946  0.5662 -0.4101
  111CHL1    H914438   3.816   1.241   5.898  0.2760  0.2179  1.2293
  111CHL1   C1014439   3.971   1.268   6.052  0.5720 -0.2788  0.1379
  111CHL1   C1914440   4.087   1.368   6.068 -0.0157  0.0979 -0.2048
  111CHL1  H19A14441   4.175   1.343   6.005 -0.5094  1.8403 -1.6823
  111CHL1  H19B14442   4.058   1.473   6.047 -0.0383 -0.1143 -1.2911
  111CHL1  H19C14443   4.133   1.376   6.168  0.6346 -1.6835 -0.3231
  111CHL1    C114444   3.857   1.312   6.150 -0.5970  1.1212 -0.0809
  111CHL1   H1A14445   3.856   1.423   6.138  0.4184  1.2465  0.7517
  111CHL1   H1B14446   3.764   1.260   6.119  0.5319 -0.2524 -1.3186
  111CHL1    C214447   3.895   1.280   6.294  0.2905  0.0029 -0.8631
  111CHL1   H2A14448   3.807   1.308   6.355  0.4313  1.7705 -1.4205
  111CHL1   H2B14449   3.977   1.349   6.324  1.3488 -1.0674 -1.1870
  111CHL1   C2014450   3.968   1.400   5.352  0.1949 -0.0368 -0.4797
  111CHL1   H2014451   4.068   1.444   5.370 -0.5813  1.9515 -0.7042
  111CHL1   C2114452   3.862   1.510   5.372 -0.6871 -0.0906 -0.1576
  111CHL1  H21A14453   3.882   1.599   5.309  2.3540  0.0374  0.8274
  111CHL1  H21B14454   3.872   1.551   5.475  0.9115 -1.0451  0.0997
  111CHL1  H21C14455   3.757   1.479   5.353 -0.9081 -0.5045  1.5452
  111CHL1   C2214456   3.969   1.348   5.207 -0.1575  1.3698  0.1268
  111CHL1  H22A14457   3.968   1.430   5.132  1.3051 -0.5650 -2.1430
  111CHL1  H22B14458   4.061   1.292   5.181 -0.1225  2.1078 -1.4797
  111CHL1   C2314459   3.838   1.277   5.162 -0.5079  0.3301 -0.0763
  111CHL1  H23A14460   3.819   1.176   5.204  0.2720 -0.7092 -2.0864
  111CHL1  H23B14461   3.745   1.336   5.177 -0.0736  0.7878  0.9423
  111CHL1   C2414462   3.843   1.246   5.002  0.1526 -0.6541  0.1874
  111CHL1  H24A14463   3.834   1.337   4.939  3.5408  0.0432  0.5534
  111CHL1  H24B14464   3.942   1.205   4.973 -0.9105 -4.0730  0.8208
  111CHL1   C2514465   3.738   1.142   4.955  0.0347 -0.6832  0.0693
  111CHL1   H2514466   3.751   1.053   5.020 -3.0057 -0.2366  1.5003
  111CHL1   C2614467   3.593   1.189   4.972  0.2689  0.0057 -0.3440
  111CHL1  H26A14468   3.521   1.107   4.950  2.4318 -2.3479  0.7460
  111CHL1  H26B14469   3.566   1.208   5.078 -0.7099 -0.1618 -0.5554
  111CHL1  H26C14470   3.560   1.274   4.909  1.5631  0.2373 -0.7426
  111CHL1   C2714471   3.758   1.105   4.807  0.0234 -0.3046 -0.7156
  111CHL1  H27A14472   3.795   1.196   4.755  0.7678  0.9852  1.8978
  111CHL1  H27B14473   3.838   1.029   4.811  0.7124  0.4491  0.5951
  111CHL1  H27C14474   3.665   1.069   4.757 -0.5592 -0.5785  0.5115
  112CHL1    C314475   4.224   2.509   6.576  0.4883  0.4781  0.0046
  112CHL1    H314476   4.172   2.412   6.560 -2.1909  1.7448  0.4099
  112CHL1    O314477   4.210   2.522   6.711  0.2989 -0.6118  0.3153
  112CHL1   H3'14478   4.282   2.581   6.735 -0.1889  0.2423 -0.2611
  112CHL1    C414479   4.369   2.515   6.536 -0.1914  0.0048 -0.0149
  112CHL1   H4A14480   4.421   2.605   6.575 -2.4461  1.0060  0.9109
  112CHL1   H4B14481   4.423   2.430   6.582  1.2758  1.6115  1.3954
  112CHL1    C514482   4.390   2.534   6.386 -0.2024 -0.0770  0.5251
  112CHL1    C614483   4.482   2.455   6.329  0.4526  0.7571  0.8099
  112CHL1    H614484   4.534   2.378   6.388 -2.8230 -0.4626  2.3381
  112CHL1    C714485   4.509   2.465   6.180  0.1968 -0.3143 -0.2137
  112CHL1   H7A14486   4.618   2.451   6.163 -0.0784 -1.5045 -1.0932
  112CHL1   H7B14487   4.462   2.378   6.129 -0.8239 -1.6696  2.7918
  112CHL1    C814488   4.467   2.596   6.116  0.5891  0.6469 -0.1610
  112CHL1    H814489   4.542   2.666   6.157  0.9269  0.1765  0.0393
  112CHL1   C1414490   4.479   2.577   5.970  0.0456 -0.1647  0.0118
  112CHL1   H1414491   4.395   2.507   5.951 -1.6294  1.5442  0.7918
  112CHL1   C1514492   4.603   2.519   5.902 -0.0262  0.2680 -0.0195
  112CHL1  H15A14493   4.698   2.568   5.930 -0.1988  2.0139 -2.1355
  112CHL1  H15B14494   4.623   2.412   5.924  2.4112 -0.0556 -3.0707
  112CHL1   C1614495   4.578   2.537   5.750  0.1465  0.6645  0.1995
  112CHL1  H16A14496   4.674   2.560   5.698 -1.0719  2.6608 -1.2765
  112CHL1  H16B14497   4.533   2.441   5.715 -1.2191  0.9452  1.1224
  112CHL1   C1714498   4.470   2.648   5.734 -0.1340  0.1760  0.1525
  112CHL1   H1714499   4.374   2.603   5.704 -0.0780 -0.1206  0.4184
  112CHL1   C1314500   4.448   2.703   5.882  0.6129  0.4271  0.5244
  112CHL1   C1814501   4.550   2.819   5.910  0.2293  0.1119 -0.7581
  112CHL1  H18A14502   4.654   2.793   5.881  0.1008  0.2764 -1.3898
  112CHL1  H18B14503   4.516   2.912   5.859 -0.8565  1.1650  1.7371
  112CHL1  H18C14504   4.554   2.838   6.019  3.1441 -0.2465 -0.7315
  112CHL1   C1214505   4.306   2.752   5.918  0.0397 -0.4095 -0.2819
  112CHL1  H12A14506   4.282   2.848   5.867 -0.8332  0.9252  2.4472
  112CHL1  H12B14507   4.234   2.677   5.878  1.1502 -1.0763 -1.0728
  112CHL1   C1114508   4.280   2.757   6.075  0.0128 -0.3857 -0.0474
  112CHL1  H11A14509   4.344   2.843   6.102  1.5782 -1.3489 -0.5146
  112CHL1  H11B14510   4.171   2.766   6.091 -0.1756 -1.1366 -0.8156
  112CHL1    C914511   4.325   2.629   6.154  0.5774 -0.1544  0.4318
  112CHL1    H914512   4.263   2.547   6.113 -2.2857  2.7102 -1.4586
  112CHL1   C1014513   4.309   2.643   6.307 -0.2342 -0.0526 -0.9986
  112CHL1   C1914514   4.364   2.780   6.351  0.2176 -0.4234 -0.6663
  112CHL1  H19A14515   4.302   2.859   6.303  0.3507 -0.6003 -1.1318
  112CHL1  H19B14516   4.338   2.785   6.459 -3.1536 -0.1496 -1.3771
  112CHL1  H19C14517   4.472   2.795   6.330  0.2665 -0.5991 -0.5390
  112CHL1    C114518   4.157   2.616   6.353  0.0383  1.0104 -0.5733
  112CHL1   H1A14519   4.085   2.692   6.316 -0.2971  1.3865  0.7939
  112CHL1   H1B14520   4.134   2.514   6.316  0.4040 -0.0661  1.9288
  112CHL1    C214521   4.135   2.614   6.505  0.4583 -0.9991  0.7354
  112CHL1   H2A14522   4.025   2.595   6.509 -0.1585  0.3644 -3.7483
  112CHL1   H2B14523   4.149   2.714   6.551 -2.2844 -0.1317 -0.1323
  112CHL1   C2014524   4.501   2.762   5.624 -0.3705  0.3109  0.4387
  112CHL1   H2014525   4.581   2.830   5.659  1.4172 -0.5705 -1.6869
  112CHL1   C2114526   4.380   2.848   5.597  0.0861  0.4375  0.2225
  112CHL1  H21A14527   4.368   2.925   5.676  0.3069  0.7624 -0.0500
  112CHL1  H21B14528   4.293   2.779   5.598  1.1093 -1.1545 -3.2042
  112CHL1  H21C14529   4.387   2.905   5.501 -1.6629 -0.5828 -0.5577
  112CHL1   C2214530   4.559   2.703   5.492 -0.8099 -0.6946 -0.6039
  112CHL1  H22A14531   4.619   2.610   5.510  0.2880 -0.0507 -0.8228
  112CHL1  H22B14532   4.466   2.670   5.441 -2.1085  0.1796  1.1204
  112CHL1   C2314533   4.634   2.809   5.408 -0.0005  0.6065  0.1867
  112CHL1  H23A14534   4.570   2.890   5.367 -1.5799 -0.5559  0.2521
  112CHL1  H23B14535   4.720   2.839   5.471  1.0399 -0.7998 -0.5130
  112CHL1   C2414536   4.706   2.741   5.289  0.1487  0.2289  0.1548
  112CHL1  H24A14537   4.790   2.676   5.322  2.2248  1.5970 -2.1066
  112CHL1  H24B14538   4.632   2.682   5.230  2.0592 -1.7385 -0.4269
  112CHL1   C2514539   4.769   2.843   5.196 -0.7594  0.0728  0.4621
  112CHL1   H2514540   4.828   2.918   5.254 -1.0741 -1.6213  3.1520
  112CHL1   C2614541   4.864   2.752   5.118 -0.1031 -0.4735  0.6692
  112CHL1  H26A14542   4.813   2.676   5.055  1.6817 -1.5951  0.5101
  112CHL1  H26B14543   4.928   2.821   5.058 -0.7551 -0.5001 -0.0727
  112CHL1  H26C14544   4.945   2.704   5.177  1.8301 -0.9193 -2.1205
  112CHL1   C2714545   4.676   2.921   5.107  0.1967 -0.7605 -0.2769
  112CHL1  H27A14546   4.590   2.863   5.069 -0.1323 -0.8631  0.5958
  112CHL1  H27B14547   4.634   3.003   5.169  0.1755 -1.2590  0.3769
  112CHL1  H27C14548   4.732   2.962   5.021  2.1371  1.8524  2.0294
  113CHL1    C314549   6.022   4.187   6.316 -0.5293 -0.0528 -0.4476
  113CHL1    H314550   5.925   4.133   6.310  1.0008 -2.9462 -1.0319
  113CHL1    O314551   6.061   4.209   6.453  0.7364 -0.0667  0.6182
  113CHL1   H3'14552   6.155   4.222   6.445  1.0540 -2.6880 -1.3735
  113CHL1    C414553   6.121   4.098   6.252 -0.3264 -0.2195  0.7557
  113CHL1   H4A14554   6.224   4.138   6.261 -1.1805  1.9731  1.4790
  113CHL1   H4B14555   6.132   4.000   6.303  1.6863 -0.5699 -0.2554
  113CHL1    C514556   6.091   4.081   6.096 -0.1834 -0.0069 -0.7125
  113CHL1    C614557   6.078   3.958   6.045  0.1477  0.3526 -0.0968
  113CHL1    H614558   6.089   3.871   6.111 -2.0651 -1.1543 -1.5625
  113CHL1    C714559   6.058   3.928   5.895  0.1171 -0.4607 -1.1098
  113CHL1   H7A14560   6.134   3.857   5.857  1.3160 -0.4372  1.0973
  113CHL1   H7B14561   5.958   3.882   5.877 -0.0654 -0.4336 -0.1935
  113CHL1    C814562   6.058   4.060   5.814  0.5145 -0.0814 -0.0603
  113CHL1    H814563   6.161   4.081   5.779 -0.2627  0.6070 -2.1380
  113CHL1   C1414564   5.972   4.037   5.693 -0.1307 -0.8444  0.6005
  113CHL1   H1414565   5.867   4.027   5.728 -0.3215 -1.3158 -0.0651
  113CHL1   C1514566   6.013   3.919   5.602 -0.3156 -0.3675  0.0172
  113CHL1  H15A14567   6.124   3.916   5.602 -0.1052  2.9374  1.3145
  113CHL1  H15B14568   5.985   3.815   5.631  0.8104 -0.8521 -0.5720
  113CHL1   C1614569   5.945   3.947   5.463  0.0346  0.5482 -0.1670
  113CHL1  H16A14570   6.028   3.950   5.389 -0.7011  1.7769 -0.9682
  113CHL1  H16B14571   5.875   3.864   5.444  1.4726 -0.6182 -0.5951
  113CHL1   C1714572   5.882   4.089   5.480  0.1267 -0.7592  0.4596
  113CHL1   H1714573   5.781   4.067   5.521 -0.0306 -0.6523  0.1313
  113CHL1   C1314574   5.965   4.155   5.594  0.1013  0.4400 -0.0041
  113CHL1   C1814575   6.098   4.185   5.537 -0.9396 -0.3362 -0.0887
  113CHL1  H18A14576   6.083   4.273   5.470  1.5558 -0.7439 -1.3377
  113CHL1  H18B14577   6.174   4.210   5.614 -1.3994 -0.3581  0.3710
  113CHL1  H18C14578   6.136   4.102   5.474 -0.9231 -1.1341  0.9476
  113CHL1   C1214579   5.898   4.277   5.658 -1.1458 -0.3437 -0.1549
  113CHL1  H12A14580   5.912   4.364   5.590  2.0988  0.3078  1.1861
  113CHL1  H12B14581   5.790   4.259   5.675 -0.9635 -1.7171 -0.3508
  113CHL1   C1114582   5.971   4.303   5.790  0.2380 -0.8025  0.2636
  113CHL1  H11A14583   6.060   4.361   5.757  0.7799 -0.7304  1.8101
  113CHL1  H11B14584   5.906   4.371   5.848  3.4713  1.4412  1.5563
  113CHL1    C914585   6.002   4.186   5.884 -0.1336 -0.1325  0.2751
  113CHL1    H914586   5.900   4.157   5.917  0.0704  0.1694  1.1916
  113CHL1   C1014587   6.076   4.214   6.022  0.4904 -0.8781 -0.3935
  113CHL1   C1914588   6.210   4.284   5.992  0.5668 -0.2771 -0.0750
  113CHL1  H19A14589   6.262   4.300   6.088 -0.5957  0.3137  0.4740
  113CHL1  H19B14590   6.265   4.206   5.934 -1.0235 -0.6970 -1.1048
  113CHL1  H19C14591   6.199   4.379   5.935 -1.5319  0.5991  1.6561
  113CHL1    C114592   5.984   4.317   6.096 -0.0006  0.3126  0.1261
  113CHL1   H1A14593   5.991   4.420   6.054 -6.1989  0.7698 -0.7523
  113CHL1   H1B14594   5.881   4.278   6.081  0.7764 -2.0454  0.4746
  113CHL1    C214595   6.010   4.326   6.243  0.2908  0.0174 -0.2399
  113CHL1   H2A14596   5.936   4.388   6.298  1.0580  1.2461 -0.5430
  113CHL1   H2B14597   6.108   4.376   6.262 -0.8588  1.1537  3.5164
  113CHL1   C2014598   5.861   4.160   5.347  0.3016 -0.1278  0.7007
  113CHL1   H2014599   5.961   4.194   5.312  1.0379 -0.8612  2.0288
  113CHL1   C2114600   5.765   4.276   5.360 -0.3269  0.3943 -0.2210
  113CHL1  H21A14601   5.667   4.236   5.395  0.4731 -1.3363  0.1328
  113CHL1  H21B14602   5.737   4.315   5.260  0.3010 -0.4282 -0.7280
  113CHL1  H21C14603   5.806   4.358   5.422  0.9790  0.1324 -0.7003
  113CHL1   C2214604   5.812   4.066   5.232 -0.1369 -0.5351 -0.6314
  113CHL1  H22A14605   5.835   4.127   5.142  2.1904  0.8166  0.7661
  113CHL1  H22B14606   5.878   3.977   5.220  1.1307  0.3001 -0.1654
  113CHL1   C2314607   5.671   4.004   5.246  0.1247  0.0081  0.0918
  113CHL1  H23A14608   5.661   3.963   5.349 -0.5002  0.2414  0.1286
  113CHL1  H23B14609   5.595   4.085   5.245 -0.8299 -0.8748  0.0598
  113CHL1   C2414610   5.643   3.892   5.141  0.1737 -0.6085 -0.2431
  113CHL1  H24A14611   5.716   3.808   5.150  1.8407  0.7399 -0.6999
  113CHL1  H24B14612   5.542   3.851   5.165  0.1279 -1.0641 -1.1654
  113CHL1   C2514613   5.647   3.932   4.989 -0.3204  0.1551 -0.2980
  113CHL1   H2514614   5.755   3.943   4.965 -0.0246 -0.2767  0.7629
  113CHL1   C2614615   5.594   3.808   4.906 -0.4565 -0.1069  0.6514
  113CHL1  H26A14616   5.610   3.712   4.959 -1.1052  0.7877  2.5550
  113CHL1  H26B14617   5.489   3.833   4.880  0.3827 -0.0454 -3.3839
  113CHL1  H26C14618   5.646   3.809   4.808  3.1776  1.5289  2.4002
  113CHL1   C2714619   5.562   4.061   4.956 -0.0394  0.4877  0.3275
  113CHL1  H27A14620   5.570   4.138   5.036 -1.9741  1.5410 -0.4017
  113CHL1  H27B14621   5.593   4.114   4.863 -0.4354 -0.2391 -0.2347
  113CHL1  H27C14622   5.454   4.035   4.943 -0.1288  1.1647 -0.3391
  114CHL1    C314623   3.701   2.250   6.718 -0.0139  0.8801  0.7139
  114CHL1    H314624   3.652   2.348   6.733 -1.9405 -0.1708  1.7548
  114CHL1    O314625   3.744   2.202   6.844 -0.3947 -0.2564  0.0468
  114CHL1   H3'14626   3.771   2.111   6.831  2.2181  0.4998 -0.3419
  114CHL1    C414627   3.602   2.143   6.658 -0.3380  0.4310 -0.3582
  114CHL1   H4A14628   3.655   2.046   6.652 -1.4905 -0.1262 -2.9119
  114CHL1   H4B14629   3.520   2.126   6.731 -0.7704 -1.0836 -1.1405
  114CHL1    C514630   3.548   2.181   6.521 -0.0748 -0.1783 -0.5545
  114CHL1    C614631   3.419   2.183   6.494  0.3054 -0.2689  0.0972
  114CHL1    H614632   3.351   2.154   6.575  1.5611  3.1293  2.6271
  114CHL1    C714633   3.364   2.212   6.357 -0.9807 -0.6052  0.0498
  114CHL1   H7A14634   3.282   2.139   6.337 -0.0878 -1.3759 -0.9483
  114CHL1   H7B14635   3.323   2.314   6.350 -1.0613 -0.6804 -0.6339
  114CHL1    C814636   3.474   2.211   6.242 -0.1816 -0.1568 -0.2008
  114CHL1    H814637   3.481   2.101   6.235 -0.4790 -0.7449  4.7757
  114CHL1   C1414638   3.423   2.266   6.109 -0.3962  0.1949  0.1931
  114CHL1   H1414639   3.392   2.371   6.130 -1.9338 -0.4247  1.1958
  114CHL1   C1514640   3.300   2.192   6.050 -0.1895 -0.0007  0.1322
  114CHL1  H15A14641   3.314   2.082   6.046  0.6897  0.1343 -1.2386
  114CHL1  H15B14642   3.206   2.213   6.105  0.9459  2.8113  1.2255
  114CHL1   C1614643   3.296   2.253   5.909  0.5391 -0.4517  0.5324
  114CHL1  H16A14644   3.261   2.176   5.836  0.7022  0.3802 -0.4581
  114CHL1  H16B14645   3.223   2.337   5.911  1.1639  0.0818  0.8767
  114CHL1   C1714646   3.436   2.304   5.874  0.4029 -0.3164 -0.8505
  114CHL1   H1714647   3.428   2.415   5.883 -2.8559 -0.5834  1.1602
  114CHL1   C1314648   3.518   2.264   5.996 -0.3319  0.1321  0.6167
  114CHL1   C1814649   3.576   2.124   5.974  0.3629 -0.0479 -0.0384
  114CHL1  H18A14650   3.601   2.068   6.067 -0.4176 -1.4776 -0.6559
  114CHL1  H18B14651   3.503   2.063   5.916  1.3404 -1.1087 -0.1812
  114CHL1  H18C14652   3.663   2.125   5.906  0.7417  0.8711  0.4461
  114CHL1   C1214653   3.632   2.354   6.042  0.1630 -0.2383  0.2278
  114CHL1  H12A14654   3.705   2.373   5.960  0.8533 -0.3822  0.7970
  114CHL1  H12B14655   3.586   2.451   6.072  0.1266 -0.6554  1.5843
  114CHL1   C1114656   3.700   2.292   6.163  0.3753  0.2838 -0.3151
  114CHL1  H11A14657   3.748   2.193   6.144  0.1792  0.3821 -1.3503
  114CHL1  H11B14658   3.777   2.365   6.196  0.8197 -0.5154  0.4533
  114CHL1    C914659   3.602   2.277   6.288  0.0593  0.2202  0.3478
  114CHL1    H914660   3.569   2.380   6.312  0.4791  0.3380  0.4288
  114CHL1   C1014661   3.658   2.216   6.417  0.3805 -0.0079  0.2560
  114CHL1   C1914662   3.734   2.082   6.388  0.3081 -0.1341  0.3736
  114CHL1  H19A14663   3.826   2.113   6.333  0.2802  2.4392  1.6291
  114CHL1  H19B14664   3.774   2.023   6.473 -1.5463  0.9441  2.0866
  114CHL1  H19C14665   3.675   2.009   6.328  1.7674 -1.6567  0.7246
  114CHL1    C114666   3.750   2.317   6.490 -0.5806  0.2856  0.2981
  114CHL1   H1A14667   3.838   2.347   6.429 -0.5532  0.0466  0.2194
  114CHL1   H1B14668   3.696   2.414   6.497 -2.6784 -0.7876 -0.1921
  114CHL1    C214669   3.816   2.279   6.620  0.1230  0.1359 -0.1455
  114CHL1   H2A14670   3.863   2.371   6.659 -0.6719  0.6215 -0.3142
  114CHL1   H2B14671   3.887   2.194   6.610 -2.3241 -1.9502 -0.9799
  114CHL1   C2014672   3.485   2.270   5.737 -0.5520 -0.0765 -0.1405
  114CHL1   H2014673   3.498   2.159   5.732  0.9987  0.1268 -4.2620
  114CHL1   C2114674   3.620   2.334   5.700  0.4892  0.8213 -0.3020
  114CHL1  H21A14675   3.698   2.281   5.759 -0.0207  1.9491  1.4698
  114CHL1  H21B14676   3.633   2.441   5.723  0.5517  0.5709  0.8745
  114CHL1  H21C14677   3.652   2.305   5.598 -1.0046  1.4780 -0.9889
  114CHL1   C2214678   3.386   2.306   5.620 -0.0969 -0.4488 -0.3272
  114CHL1  H22A14679   3.285   2.263   5.636 -0.3899 -0.4385 -1.9870
  114CHL1  H22B14680   3.383   2.417   5.623  3.9977 -0.1857  1.2614
  114CHL1   C2314681   3.428   2.237   5.496  0.4945 -0.2590  0.3131
  114CHL1  H23A14682   3.506   2.298   5.446 -1.4391  3.0953  1.0651
  114CHL1  H23B14683   3.461   2.134   5.522 -1.2594 -0.4757  1.8587
  114CHL1   C2414684   3.307   2.223   5.395  0.1472  0.4154 -0.5395
  114CHL1  H24A14685   3.330   2.141   5.324 -0.6995  1.3703 -1.9562
  114CHL1  H24B14686   3.212   2.202   5.449  0.5925  2.8815  1.3790
  114CHL1   C2514687   3.269   2.344   5.309 -0.1773  0.2039  0.0903
  114CHL1   H2514688   3.360   2.366   5.249 -1.1042  0.4440 -1.2647
  114CHL1   C2614689   3.155   2.301   5.211 -0.0701  0.0121  0.0009
  114CHL1  H26A14690   3.183   2.226   5.134  0.8601 -0.3134  0.6372
  114CHL1  H26B14691   3.062   2.283   5.269 -0.4221  3.4959  0.7514
  114CHL1  H26C14692   3.129   2.388   5.148  1.0141 -0.5247 -1.2275
  114CHL1   C2714693   3.220   2.472   5.379 -0.3981 -0.1451  0.2893
  114CHL1  H27A14694   3.114   2.463   5.411 -0.1733 -1.1053  0.7978
  114CHL1  H27B14695   3.286   2.497   5.465  0.1693  0.5632 -0.3431
  114CHL1  H27C14696   3.225   2.561   5.312 -0.9223  0.9173  1.6133
  115CHL1    C314697   1.742   0.330   6.488 -0.0419 -0.3905 -0.3562
  115CHL1    H314698   1.643   0.279   6.488 -0.5651  0.4345 -3.0490
  115CHL1    O314699   1.792   0.358   6.622 -0.3106  0.0699  0.1886
  115CHL1   H3'14700   1.846   0.437   6.619 -1.5054  0.9434  0.7754
  115CHL1    C414701   1.840   0.236   6.408  0.4274 -0.9862  0.0649
  115CHL1   H4A14702   1.946   0.268   6.421  0.6406 -1.1779 -1.1530
  115CHL1   H4B14703   1.833   0.132   6.448  1.8952 -1.5480 -1.0585
  115CHL1    C514704   1.806   0.239   6.260 -0.1539  0.4496  0.2734
  115CHL1    C614705   1.775   0.125   6.196 -0.2062  0.2984 -0.1980
  115CHL1    H614706   1.784   0.030   6.252 -1.6852  1.1712  1.6220
  115CHL1    C714707   1.748   0.119   6.049 -0.1302 -0.1324  0.3034
  115CHL1   H7A14708   1.789   0.028   6.000 -1.7327  0.3949 -2.2053
  115CHL1   H7B14709   1.637   0.107   6.045 -0.2832  1.2159  0.1280
  115CHL1    C814710   1.792   0.244   5.966  0.0470 -0.0965 -0.5268
  115CHL1    H814711   1.903   0.241   5.963  0.0169 -2.8946 -3.5802
  115CHL1   C1414712   1.721   0.251   5.832 -0.0369  0.1808  0.2970
  115CHL1   H1414713   1.612   0.265   5.849 -0.2469  1.0621 -1.6079
  115CHL1   C1514714   1.730   0.129   5.741  0.5746  0.3490  0.4158
  115CHL1  H15A14715   1.828   0.078   5.746  1.5944  2.2583  1.1654
  115CHL1  H15B14716   1.650   0.058   5.770  0.9826 -0.2843  0.0113
  115CHL1   C1614717   1.719   0.182   5.600 -0.1898 -0.1866  0.3973
  115CHL1  H16A14718   1.814   0.166   5.544 -0.7160 -2.1462 -0.0080
  115CHL1  H16B14719   1.636   0.130   5.547  0.1714 -1.0382  0.6592
  115CHL1   C1714720   1.688   0.336   5.611  0.3840 -0.3587 -0.1281
  115CHL1   H1714721   1.578   0.339   5.627  0.0803 -1.6351 -1.6633
  115CHL1   C1314722   1.754   0.375   5.749  0.8890 -0.2051 -0.1848
  115CHL1   C1814723   1.903   0.390   5.724 -0.4285 -0.1726  0.5886
  115CHL1  H18A14724   1.936   0.473   5.657 -2.2743  0.1343  0.0091
  115CHL1  H18B14725   1.956   0.407   5.821  1.2333  2.9805 -0.7052
  115CHL1  H18C14726   1.952   0.304   5.674 -0.6135  0.7027 -1.1445
  115CHL1   C1214727   1.692   0.495   5.821  0.7175 -0.6335  0.3981
  115CHL1  H12A14728   1.719   0.590   5.772  1.3140 -1.6687 -1.3592
  115CHL1  H12B14729   1.582   0.483   5.824  0.7509 -0.9286  0.4579
  115CHL1   C1114730   1.753   0.501   5.963 -0.2036 -0.3460 -1.2482
  115CHL1  H11A14731   1.861   0.522   5.948  0.1776 -0.4274  0.9714
  115CHL1  H11B14732   1.706   0.587   6.015 -2.2688 -0.6026 -2.5713
  115CHL1    C914733   1.746   0.369   6.048 -0.5974  0.3037  0.1831
  115CHL1    H914734   1.636   0.356   6.054 -0.3251 -2.2947  0.8783
  115CHL1   C1014735   1.799   0.377   6.195  0.3516  0.0162  0.0671
  115CHL1   C1914736   1.940   0.445   6.187 -0.5305  0.0517 -0.3015
  115CHL1  H19A14737   1.978   0.455   6.291  0.8834  0.3413 -0.8185
  115CHL1  H19B14738   2.021   0.394   6.130  0.6849  0.4264  1.0493
  115CHL1  H19C14739   1.931   0.549   6.149 -0.0759  1.1231  2.3079
  115CHL1    C114740   1.705   0.464   6.272 -0.0177  0.9156 -0.5517
  115CHL1   H1A14741   1.705   0.564   6.225 -1.9316  0.0193 -2.6883
  115CHL1   H1B14742   1.600   0.428   6.260  0.6665 -0.9983 -1.1347
  115CHL1    C214743   1.729   0.475   6.425  0.4977  0.3223  0.3425
  115CHL1   H2A14744   1.637   0.526   6.461  0.0620  0.4006 -0.8513
  115CHL1   H2B14745   1.823   0.530   6.448  1.2628 -1.1925  0.9616
  115CHL1   C2014746   1.699   0.436   5.491  0.3875  0.0913  0.2312
  115CHL1   H2014747   1.805   0.469   5.489  0.2073  0.9785  2.4833
  115CHL1   C2114748   1.622   0.564   5.513 -0.0217  0.0098 -0.1103
  115CHL1  H21A14749   1.645   0.629   5.600 -1.5420  1.3693 -0.6698
  115CHL1  H21B14750   1.515   0.534   5.517  0.3671 -1.4760 -0.2129
  115CHL1  H21C14751   1.635   0.633   5.428 -3.2222 -1.0561 -1.5980
  115CHL1   C2214752   1.668   0.367   5.359  0.4153  0.6526  0.4778
  115CHL1  H22A14753   1.731   0.277   5.342 -0.0466  0.5781 -0.9897
  115CHL1  H22B14754   1.563   0.331   5.353  1.4213 -2.6425  0.8537
  115CHL1   C2314755   1.691   0.460   5.231  0.2578 -0.6845 -0.4970
  115CHL1  H23A14756   1.620   0.546   5.232  0.0876 -0.8269  0.1198
  115CHL1  H23B14757   1.791   0.507   5.234 -0.7209  1.5008 -0.0567
  115CHL1   C2414758   1.676   0.371   5.105  0.5599 -0.2054  0.1922
  115CHL1  H24A14759   1.765   0.307   5.086  0.9349  0.1595  0.6740
  115CHL1  H24B14760   1.592   0.303   5.132 -1.6589  1.5395 -1.8015
  115CHL1   C2514761   1.650   0.467   4.979 -0.7203  0.5925 -0.6605
  115CHL1   H2514762   1.584   0.552   5.005  1.6492  1.8919  1.5836
  115CHL1   C2614763   1.779   0.519   4.918  0.0693 -0.5571 -0.6895
  115CHL1  H26A14764   1.845   0.443   4.872  1.0094 -0.4575  0.4383
  115CHL1  H26B14765   1.757   0.603   4.850 -1.1465 -0.5814 -0.3555
  115CHL1  H26C14766   1.835   0.551   5.009 -1.4901 -2.8858  1.2435
  115CHL1   C2714767   1.599   0.372   4.867  0.0442 -0.2735 -0.3370
  115CHL1  H27A14768   1.593   0.426   4.770 -0.0940  0.3624  0.0211
  115CHL1  H27B14769   1.672   0.290   4.845  1.2237  0.7217 -0.2198
  115CHL1  H27C14770   1.502   0.324   4.891  0.2525 -1.2698 -1.3769
  116CHL1    C314771   2.857   1.968   6.590 -1.1256 -0.1947 -0.1349
  116CHL1    H314772   2.789   2.056   6.579 -3.8926 -1.9327  1.6973
  116CHL1    O314773   2.875   1.945   6.729  0.4723 -0.5770  0.6328
  116CHL1   H3'14774   2.785   1.952   6.761 -0.0229  1.7084 -1.0413
  116CHL1    C414775   2.785   1.854   6.522  0.1584  0.6087 -0.1462
  116CHL1   H4A14776   2.831   1.757   6.551 -0.0819  0.1292 -1.2925
  116CHL1   H4B14777   2.683   1.845   6.566  1.3232  0.8907  2.8133
  116CHL1    C514778   2.787   1.867   6.370  1.0085  0.2544 -0.0296
  116CHL1    C614779   2.677   1.844   6.300  0.5174  0.3175  0.0655
  116CHL1    H614780   2.578   1.824   6.344  0.3172  0.7863 -0.1509
  116CHL1    C714781   2.666   1.854   6.153  0.1474  0.5070  0.6374
  116CHL1   H7A14782   2.623   1.758   6.119  1.9343  0.4064 -1.6364
  116CHL1   H7B14783   2.604   1.944   6.133 -2.0495 -0.4162  2.7691
  116CHL1    C814784   2.807   1.852   6.079 -0.1250 -0.4095  0.0853
  116CHL1    H814785   2.833   1.743   6.081  2.5641  0.0918 -1.9143
  116CHL1   C1414786   2.799   1.898   5.935 -0.8374 -0.3163 -0.1338
  116CHL1   H1414787   2.757   2.001   5.931 -2.3354 -0.9297 -2.8898
  116CHL1   C1514788   2.709   1.814   5.839  0.2076  0.4053  0.2173
  116CHL1  H15A14789   2.717   1.705   5.857  0.5293  0.4247  0.1911
  116CHL1  H15B14790   2.600   1.836   5.853 -0.1578 -0.8753 -0.4968
  116CHL1   C1614791   2.753   1.846   5.697  0.6084  0.2609  0.2356
  116CHL1  H16A14792   2.755   1.752   5.638 -1.7387  0.0127  0.4548
  116CHL1  H16B14793   2.689   1.918   5.642  0.6417  0.2056  0.1227
  116CHL1   C1714794   2.892   1.918   5.715 -0.2249  0.2600 -0.6513
  116CHL1   H1714795   2.863   2.024   5.702  2.3132  0.9000 -1.7659
  116CHL1   C1314796   2.931   1.888   5.856  0.3202  0.2695 -0.1942
  116CHL1   C1814797   2.991   1.743   5.850 -0.5786  0.6406 -0.3729
  116CHL1  H18A14798   2.931   1.680   5.781 -0.3800  0.5201 -0.4363
  116CHL1  H18B14799   3.091   1.744   5.802 -1.4189 -0.6348 -2.2162
  116CHL1  H18C14800   2.992   1.689   5.947  0.3695 -1.0142 -1.2685
  116CHL1   C1214801   3.024   1.994   5.927 -0.4805 -0.3137  0.0915
  116CHL1  H12A14802   3.122   2.007   5.876  0.5249  1.0167  2.2334
  116CHL1  H12B14803   2.972   2.092   5.925 -2.6222 -1.3863  1.1988
  116CHL1   C1114804   3.043   1.952   6.072  0.9573 -0.1109  0.1665
  116CHL1  H11A14805   3.091   1.853   6.065 -0.5820 -0.8329 -0.8367
  116CHL1  H11B14806   3.111   2.017   6.131 -0.2539  2.2156 -0.8506
  116CHL1    C914807   2.908   1.943   6.154 -0.3830 -0.0342 -0.1305
  116CHL1    H914808   2.866   2.046   6.150  0.0825  0.2539  1.5629
  116CHL1   C1014809   2.920   1.903   6.296 -0.1019 -0.0651 -1.0532
  116CHL1   C1914810   3.003   1.767   6.305  0.5921  0.1901 -0.2546
  116CHL1  H19A14811   2.944   1.679   6.272 -0.9068  1.2080 -0.3858
  116CHL1  H19B14812   3.103   1.776   6.257  0.7405 -1.0233 -0.2021
  116CHL1  H19C14813   3.028   1.742   6.410  3.2104 -0.2305 -0.8974
  116CHL1    C114814   2.999   2.014   6.374  0.5418  0.0277  0.3957
  116CHL1   H1A14815   3.105   2.025   6.340  1.2373 -2.5189  1.4732
  116CHL1   H1B14816   2.951   2.110   6.346 -0.9706 -0.9254 -0.4001
  116CHL1    C214817   2.995   1.987   6.533 -0.6718  0.1632  0.4952
  116CHL1   H2A14818   3.047   2.068   6.589  0.5996 -0.5385  0.3724
  116CHL1   H2B14819   3.064   1.902   6.549  0.6835  1.5817  2.6663
  116CHL1   C2014820   2.994   1.901   5.599 -0.2617  0.4220  0.2633
  116CHL1   H2014821   2.987   1.791   5.583  0.4889  0.2100  1.2887
  116CHL1   C2114822   3.141   1.944   5.624 -0.6902 -0.6777 -0.4595
  116CHL1  H21A14823   3.190   1.932   5.525 -1.0671 -1.8550 -0.5121
  116CHL1  H21B14824   3.205   1.888   5.695  0.8127 -0.3681 -1.5039
  116CHL1  H21C14825   3.154   2.054   5.639  0.8200 -0.6794 -1.4869
  116CHL1   C2214826   2.934   1.973   5.467 -0.1616  0.4259  0.0777
  116CHL1  H22A14827   2.824   1.985   5.474  0.1436  3.0735  1.6552
  116CHL1  H22B14828   2.992   2.067   5.456  2.1194 -0.9795 -0.7067
  116CHL1   C2314829   2.955   1.884   5.341  0.2862  0.6113 -0.4417
  116CHL1  H23A14830   3.064   1.871   5.326  0.7791  1.1039  2.1876
  116CHL1  H23B14831   2.902   1.787   5.355 -1.3108  1.6140  0.9780
  116CHL1   C2414832   2.900   1.955   5.217 -0.2217  0.6259  0.1691
  116CHL1  H24A14833   2.796   1.992   5.232 -0.4758 -0.7526  2.1195
  116CHL1  H24B14834   2.957   2.048   5.200  0.6585 -0.2617 -2.1574
  116CHL1   C2514835   2.918   1.872   5.087  0.7289  0.5309 -0.2406
  116CHL1   H2514836   2.895   1.766   5.111 -0.0001  1.0272  1.4115
  116CHL1   C2614837   2.829   1.928   4.982  0.6143 -0.4537  0.0291
  116CHL1  H26A14838   2.841   1.883   4.881  0.7210  1.8825 -1.0682
  116CHL1  H26B14839   2.721   1.909   5.000  0.7986 -1.4372  0.1526
  116CHL1  H26C14840   2.848   2.037   4.974 -2.8845  0.1413 -2.4400
  116CHL1   C2714841   3.065   1.881   5.036 -0.2279  0.2273  0.1835
  116CHL1  H27A14842   3.074   1.812   4.949  2.1226 -1.1512  1.4110
  116CHL1  H27B14843   3.098   1.985   5.016  1.4476 -0.1128  0.9851
  116CHL1  H27C14844   3.138   1.845   5.111  1.6780  2.7798 -0.3523
  117CHL1    C314845   5.329   1.053   6.614 -0.3078  0.0380  0.3782
  117CHL1    H314846   5.252   0.974   6.604 -1.7503  1.5333 -0.9680
  117CHL1    O314847   5.316   1.118   6.737  0.3209  0.0853  0.4632
  117CHL1   H3'14848   5.276   1.050   6.793 -0.7081 -0.7198 -1.1626
  117CHL1    C414849   5.473   0.990   6.609 -0.2948 -0.5814 -0.0188
  117CHL1   H4A14850   5.554   1.063   6.631 -1.0504  0.1357  0.4613
  117CHL1   H4B14851   5.472   0.912   6.688 -0.0168 -2.2905 -1.6340
  117CHL1    C514852   5.509   0.921   6.482 -0.1208  0.3192 -0.2110
  117CHL1    C614853   5.554   0.793   6.487 -0.4007  0.4101 -0.4841
  117CHL1    H614854   5.584   0.753   6.585 -1.2732  1.0625  0.0626
  117CHL1    C714855   5.577   0.717   6.362  0.0274  0.4789  0.5730
  117CHL1   H7A14856   5.676   0.666   6.367  0.7420  1.7342 -0.2680
  117CHL1   H7B14857   5.493   0.644   6.357 -0.8348  1.3117  2.1648
  117CHL1    C814858   5.584   0.798   6.229  0.7448  1.4501  0.4844
  117CHL1    H814859   5.683   0.848   6.239  1.0534  0.8604  0.4087
  117CHL1   C1414860   5.559   0.712   6.103 -0.3503 -0.2205  0.2005
  117CHL1   H1414861   5.451   0.693   6.091 -0.2350 -0.6575 -0.1858
  117CHL1   C1514862   5.627   0.574   6.095 -0.3591 -0.1554  0.2009
  117CHL1  H15A14863   5.733   0.587   6.125 -0.1875  2.7715 -1.3899
  117CHL1  H15B14864   5.567   0.512   6.166 -4.5776  1.9940 -1.1285
  117CHL1   C1614865   5.602   0.533   5.946  0.3826 -0.4280 -0.7148
  117CHL1  H16A14866   5.704   0.496   5.920  0.5876  1.3218 -2.6315
  117CHL1  H16B14867   5.521   0.458   5.940 -1.2132  1.1738 -0.1083
  117CHL1   C1714868   5.568   0.662   5.867  0.4536  0.3789 -0.0062
  117CHL1   H1714869   5.459   0.663   5.842  0.3325 -0.3273  0.4927
  117CHL1   C1314870   5.590   0.783   5.967 -0.4605  0.2828  0.4212
  117CHL1   C1814871   5.743   0.828   5.972  0.5577  0.8245 -0.1504
  117CHL1  H18A14872   5.809   0.740   5.984 -1.2293 -0.6490 -0.6595
  117CHL1  H18B14873   5.751   0.876   5.872 -0.1144 -0.2622 -0.7523
  117CHL1  H18C14874   5.767   0.904   6.050  0.2037  0.4672  0.3136
  117CHL1   C1214875   5.497   0.903   5.955  0.1396  0.6656 -0.5314
  117CHL1  H12A14876   5.520   0.976   5.875  1.4873 -0.4009 -1.1738
  117CHL1  H12B14877   5.402   0.850   5.933  1.3182 -1.5305 -0.5706
  117CHL1   C1114878   5.487   0.987   6.086  0.2566  0.0887  0.0365
  117CHL1  H11A14879   5.582   1.044   6.073  0.7065 -0.5761  0.3552
  117CHL1  H11B14880   5.404   1.060   6.080 -0.6761 -0.9150  0.4495
  117CHL1    C914881   5.481   0.909   6.224 -0.1908 -0.3469  0.1285
  117CHL1    H914882   5.383   0.857   6.217  1.3106 -3.2215 -1.5742
  117CHL1   C1014883   5.475   0.994   6.351  0.7718 -0.6727  0.0135
  117CHL1   C1914884   5.578   1.109   6.333 -0.3698 -0.0403  0.0847
  117CHL1  H19A14885   5.683   1.077   6.318  0.1241  2.1480 -1.5771
  117CHL1  H19B14886   5.551   1.179   6.250  2.7078  0.5825 -0.5239
  117CHL1  H19C14887   5.585   1.173   6.423 -0.4500 -0.5578  0.4635
  117CHL1    C114888   5.332   1.057   6.360 -0.4450 -0.3489  0.1098
  117CHL1   H1A14889   5.310   1.113   6.267  0.3702  2.1962  1.3745
  117CHL1   H1B14890   5.266   0.968   6.359 -0.3284 -0.5061  2.1481
  117CHL1    C214891   5.303   1.143   6.492  0.5600 -0.1759 -0.1461
  117CHL1   H2A14892   5.195   1.165   6.484  0.5657 -0.4630 -1.1591
  117CHL1   H2B14893   5.369   1.232   6.484  0.1524  0.1619  0.1997
  117CHL1   C2014894   5.638   0.667   5.731 -0.7789 -0.1354  0.1683
  117CHL1   H2014895   5.747   0.684   5.747 -0.8737  2.1477 -1.2731
  117CHL1   C2114896   5.573   0.785   5.653 -0.6320 -0.2497 -0.2272
  117CHL1  H21A14897   5.629   0.792   5.558  1.2075  0.6898  0.8589
  117CHL1  H21B14898   5.577   0.882   5.708  3.0892 -0.3892  0.0531
  117CHL1  H21C14899   5.474   0.747   5.623 -1.5135 -0.0455  2.1928
  117CHL1   C2214900   5.624   0.534   5.650 -0.0379  0.8967 -0.5900
  117CHL1  H22A14901   5.640   0.437   5.700  0.5550  0.4508 -1.6242
  117CHL1  H22B14902   5.518   0.520   5.621 -0.3016 -1.4099  1.1842
  117CHL1   C2314903   5.717   0.529   5.530  0.1633  0.2431 -0.5117
  117CHL1  H23A14904   5.698   0.611   5.457 -1.9736 -0.9054 -1.3557
  117CHL1  H23B14905   5.824   0.526   5.559  0.7755 -1.3357 -2.7026
  117CHL1   C2414906   5.694   0.406   5.437  0.8664  0.2314  0.3187
  117CHL1  H24A14907   5.711   0.317   5.501  1.5579 -0.3043 -0.5727
  117CHL1  H24B14908   5.589   0.409   5.402  1.0490 -0.3981 -0.3188
  117CHL1   C2514909   5.776   0.386   5.312  0.3104 -0.6265 -0.7898
  117CHL1   H2514910   5.756   0.283   5.277 -0.1281 -0.5274 -0.8302
  117CHL1   C2614911   5.737   0.478   5.202 -0.5210  0.8077  0.4016
  117CHL1  H26A14912   5.789   0.448   5.109 -0.8683  0.7742  0.2151
  117CHL1  H26B14913   5.630   0.470   5.172  0.1362 -3.9465 -1.5292
  117CHL1  H26C14914   5.755   0.585   5.224  2.7650  0.7855 -1.5967
  117CHL1   C2714915   5.924   0.398   5.334 -0.2402  0.0096  0.1486
  117CHL1  H27A14916   5.954   0.501   5.360  1.3292 -0.1496 -0.9037
  117CHL1  H27B14917   5.961   0.323   5.407  0.7680 -0.4984 -0.8467
  117CHL1  H27C14918   5.970   0.384   5.234 -2.7319 -0.9178 -0.9753
  118CHL1    C314919   6.336   1.455   6.479 -0.7282 -0.1059 -0.3720
  118CHL1    H314920   6.325   1.351   6.517 -0.6339 -0.0475 -0.1811
  118CHL1    O314921   6.286   1.533   6.587  0.0794 -0.5408  0.1034
  118CHL1   H3'14922   6.353   1.597   6.612 -1.1377  1.6646 -1.8811
  118CHL1    C414923   6.487   1.472   6.456 -0.8305 -0.2209 -0.0935
  118CHL1   H4A14924   6.516   1.577   6.433  1.2711 -0.5859  0.6349
  118CHL1   H4B14925   6.542   1.458   6.552  0.5775  1.8238 -0.5316
  118CHL1    C514926   6.542   1.393   6.340  0.7430  0.6825 -0.5959
  118CHL1    C614927   6.644   1.303   6.355  0.6168 -0.1721 -0.6904
  118CHL1    H614928   6.697   1.299   6.452  0.1938  2.9815 -0.2187
  118CHL1    C714929   6.701   1.224   6.240  0.4760 -0.3617  0.1918
  118CHL1   H7A14930   6.810   1.247   6.236  0.1771  1.0805 -0.3311
  118CHL1   H7B14931   6.687   1.114   6.242  0.7007 -0.3973 -0.0874
  118CHL1    C814932   6.643   1.265   6.106 -0.5929 -0.2818 -0.1527
  118CHL1    H814933   6.698   1.356   6.073  2.3501 -1.7406  0.4350
  118CHL1   C1414934   6.675   1.158   6.006 -0.6281 -0.0407 -0.1297
  118CHL1   H1414935   6.613   1.075   6.047  0.0819  1.0654  3.5882
  118CHL1   C1514936   6.814   1.098   5.993 -0.2928  0.2418  0.2054
  118CHL1  H15A14937   6.896   1.173   5.986 -0.6702  0.5992 -0.5246
  118CHL1  H15B14938   6.841   1.022   6.070 -0.3997 -0.3116 -0.2907
  118CHL1   C1614939   6.815   1.030   5.855  0.0700  0.2230  0.4174
  118CHL1  H16A14940   6.879   1.098   5.796  0.0757 -0.8836 -0.9062
  118CHL1  H16B14941   6.859   0.928   5.848  0.7580  0.5725 -0.5951
  118CHL1   C1714942   6.671   1.049   5.794  1.0842  0.1279  0.4893
  118CHL1   H1714943   6.604   0.973   5.838  0.3413  1.2256  1.3133
  118CHL1   C1314944   6.620   1.183   5.867 -0.7183  0.1748  0.3377
  118CHL1   C1814945   6.697   1.303   5.811  0.7566 -0.0137  0.6635
  118CHL1  H18A14946   6.807   1.291   5.808  0.5511 -2.5449  1.1015
  118CHL1  H18B14947   6.657   1.314   5.708  1.6105 -1.3675  0.1599
  118CHL1  H18C14948   6.667   1.398   5.860 -0.1308 -0.3961  0.8857
  118CHL1   C1214949   6.462   1.191   5.879 -0.8093  0.1651  0.8846
  118CHL1  H12A14950   6.421   1.221   5.780 -0.9723 -1.1909  0.5256
  118CHL1  H12B14951   6.419   1.095   5.914 -0.5083  0.3650  1.8429
  118CHL1   C1114952   6.425   1.310   5.975 -0.3798  0.2782  0.4073
  118CHL1  H11A14953   6.465   1.403   5.929 -1.1127  0.2209 -0.3801
  118CHL1  H11B14954   6.314   1.313   5.987 -0.3822 -1.3902  1.1623
  118CHL1    C914955   6.492   1.286   6.114  0.4085  0.3266  0.3011
  118CHL1    H914956   6.448   1.192   6.153 -1.3684  0.2080 -1.8078
  118CHL1   C1014957   6.462   1.402   6.210 -0.8844  0.4840  0.2043
  118CHL1   C1914958   6.491   1.544   6.149 -0.0963 -0.6380  0.3519
  118CHL1  H19A14959   6.599   1.566   6.135  0.0526  0.3418  2.6151
  118CHL1  H19B14960   6.422   1.552   6.061 -0.4763  1.4107  0.7802
  118CHL1  H19C14961   6.449   1.622   6.217  1.5043  0.7130 -0.1441
  118CHL1    C114962   6.304   1.387   6.239  0.5513  0.4917  0.1272
  118CHL1   H1A14963   6.238   1.407   6.151  0.4530 -1.0100 -0.1785
  118CHL1   H1B14964   6.290   1.287   6.285 -1.5379  0.5319 -0.3163
  118CHL1    C214965   6.255   1.483   6.352 -0.1291  0.3927 -0.8746
  118CHL1   H2A14966   6.147   1.462   6.368  0.2634 -2.2924 -1.2900
  118CHL1   H2B14967   6.263   1.590   6.325 -0.0142  0.5537 -0.2061
  118CHL1   C2014968   6.672   1.045   5.639 -0.1778  0.1538 -0.6912
  118CHL1   H2014969   6.716   1.138   5.598 -2.3414  1.0607 -1.1054
  118CHL1   C2114970   6.530   1.047   5.588  0.0858  0.1281 -0.4072
  118CHL1  H21A14971   6.514   1.030   5.480  1.2785 -2.4070 -0.2326
  118CHL1  H21B14972   6.485   1.142   5.624  0.2923 -0.4969  1.6041
  118CHL1  H21C14973   6.477   0.958   5.627 -2.6220  0.7233 -2.4412
  118CHL1   C2214974   6.759   0.930   5.567  0.0880 -0.2207 -0.0174
  118CHL1  H22A14975   6.736   0.940   5.459 -0.4375  0.2950  0.1435
  118CHL1  H22B14976   6.867   0.952   5.580 -0.2667  2.5506 -1.0660
  118CHL1   C2314977   6.731   0.793   5.621 -0.1850 -0.7184  0.4778
  118CHL1  H23A14978   6.751   0.784   5.730 -0.3055 -1.8487  0.4251
  118CHL1  H23B14979   6.624   0.763   5.612 -0.0244 -2.2285  2.6956
  118CHL1   C2414980   6.807   0.691   5.534 -0.4629 -0.1241 -0.1974
  118CHL1  H24A14981   6.742   0.681   5.444 -0.5182 -1.3830 -0.0294
  118CHL1  H24B14982   6.902   0.734   5.494 -0.3283 -0.3040 -0.0736
  118CHL1   C2514983   6.812   0.552   5.592  0.2121  0.0791  0.9212
  118CHL1   H2514984   6.720   0.529   5.648 -1.1984  0.6982 -1.0214
  118CHL1   C2614985   6.832   0.444   5.483  0.4407 -0.3366 -0.5859
  118CHL1  H26A14986   6.844   0.349   5.539  0.0869 -0.8296 -1.3466
  118CHL1  H26B14987   6.738   0.452   5.425  0.2357  3.1531 -0.0309
  118CHL1  H26C14988   6.919   0.480   5.424 -0.7134  0.7775 -1.6757
  118CHL1   C2714989   6.928   0.527   5.689  0.4591 -0.4255  0.6295
  118CHL1  H27A14990   7.032   0.553   5.660  0.2195 -0.9225 -0.8039
  118CHL1  H27B14991   6.905   0.575   5.786 -3.0349  0.1373 -0.3333
  118CHL1  H27C14992   6.941   0.419   5.709  0.5393 -1.1164 -2.5306
  119CHL1    C314993   2.136   0.017   6.474  0.8268 -0.2105 -0.3873
  119CHL1    H314994   2.029   0.042   6.456  1.0638  0.3939 -1.0250
  119CHL1    O314995   2.164  -0.005   6.613  0.2080  0.6477  0.1908
  119CHL1   H3'14996   2.088  -0.049   6.652 -0.5820 -1.4024 -3.2498
  119CHL1    C414997   2.182  -0.116   6.397  0.2407 -0.2391  0.4639
  119CHL1   H4A14998   2.286  -0.127   6.434  0.6417  1.7685  0.0535
  119CHL1   H4B14999   2.118  -0.200   6.432 -2.6552  0.8887 -1.6709
  119CHL1    C515000   2.174  -0.100   6.245 -0.1042  0.6340  0.1054
  119CHL1    C615001   2.104  -0.189   6.171 -0.5193 -0.2983 -0.3151
  119CHL1    H615002   2.044  -0.268   6.219  2.9146 -1.7022  2.0092
  119CHL1    C715003   2.096  -0.177   6.024  0.3913  0.2449  0.4695
  119CHL1   H7A15004   2.111  -0.278   5.980  0.0084  0.0417  0.7903
  119CHL1   H7B15005   1.991  -0.154   5.997 -0.4175  1.2992  4.0326
  119CHL1    C815006   2.201  -0.080   5.958 -0.4061 -0.5033 -0.3350
  119CHL1    H815007   2.301  -0.128   5.946 -0.2691 -0.4063  0.3876
  119CHL1   C1415008   2.148  -0.039   5.820 -0.4715  0.3731 -0.0935
  119CHL1   H1415009   2.061   0.026   5.839 -0.0233  0.9501  0.0210
  119CHL1   C1515010   2.103  -0.151   5.727  0.9186 -0.1957  0.9638
  119CHL1  H15A15011   2.156  -0.248   5.727  0.1503 -0.6581  2.5951
  119CHL1  H15B15012   1.997  -0.177   5.748  1.0635 -0.5617  1.2504
  119CHL1   C1615013   2.097  -0.084   5.591 -0.4598 -0.2017 -0.3123
  119CHL1  H16A15014   2.140  -0.154   5.517 -1.9817 -0.0394 -1.4013
  119CHL1  H16B15015   1.992  -0.065   5.559 -0.1518  0.8716 -0.7586
  119CHL1   C1715016   2.167   0.056   5.611  0.8834 -0.0308  0.7595
  119CHL1   H1715017   2.085   0.126   5.635  0.5268 -0.2391  0.1707
  119CHL1   C1315018   2.246   0.049   5.741 -0.2640  0.1605  0.1759
  119CHL1   C1815019   2.385  -0.032   5.711  0.1691  0.0275 -0.3532
  119CHL1  H18A15020   2.434  -0.062   5.807 -1.1543 -0.6393  0.1444
  119CHL1  H18B15021   2.376  -0.117   5.639  0.0897  0.4759 -0.8737
  119CHL1  H18C15022   2.447   0.042   5.657  2.8927 -2.3546 -0.7740
  119CHL1   C1215023   2.266   0.181   5.824 -0.3083  0.1569  0.4862
  119CHL1  H12A15024   2.344   0.246   5.777 -0.2530 -0.4949 -0.3520
  119CHL1  H12B15025   2.171   0.237   5.809  1.0420  2.5404  0.2253
  119CHL1   C1115026   2.310   0.155   5.967 -0.2449  0.3552  0.3457
  119CHL1  H11A15027   2.413   0.114   5.971 -0.2823  0.2373  0.1392
  119CHL1  H11B15028   2.317   0.256   6.013  0.2821  0.4551  0.0609
  119CHL1    C915029   2.217   0.052   6.040  0.0757  0.6113 -0.5808
  119CHL1    H915030   2.117   0.100   6.047 -0.0860  0.0221  1.7158
  119CHL1   C1015031   2.250   0.026   6.190 -0.0644  0.1066  1.2769
  119CHL1   C1915032   2.401  -0.002   6.201 -0.3175 -0.5816  0.3661
  119CHL1  H19A15033   2.461   0.087   6.171 -2.5104  0.2832 -1.7766
  119CHL1  H19B15034   2.420  -0.019   6.309  0.7346  1.8847  0.6545
  119CHL1  H19C15035   2.424  -0.091   6.139  1.7184  0.5099 -0.5698
  119CHL1    C115036   2.202   0.150   6.269 -0.0426 -0.2693 -0.1540
  119CHL1   H1A15037   2.275   0.227   6.237  2.4039 -2.7725 -1.0218
  119CHL1   H1B15038   2.095   0.170   6.245 -0.3847 -0.7592  0.8949
  119CHL1    C215039   2.213   0.141   6.418 -0.3618  0.5116  0.5751
  119CHL1   H2A15040   2.178   0.235   6.466 -0.0994  1.0928 -0.3581
  119CHL1   H2B15041   2.318   0.113   6.441  0.0858  0.2496 -1.6175
  119CHL1   C2015042   2.240   0.107   5.487 -0.8659 -0.8765  0.3537
  119CHL1   H2015043   2.328   0.041   5.467  0.9695  0.8406  2.2020
  119CHL1   C2115044   2.304   0.247   5.521  0.4184  0.0934  0.3775
  119CHL1  H21A15045   2.399   0.241   5.580  2.0241 -0.5372 -2.1380
  119CHL1  H21B15046   2.232   0.316   5.570  1.7064  0.8926  1.2303
  119CHL1  H21C15047   2.329   0.295   5.424  0.7415 -1.3298 -0.2567
  119CHL1   C2215048   2.140   0.123   5.365 -0.2281  0.3377 -0.4020
  119CHL1  H22A15049   2.098   0.022   5.346  0.5171  0.0072 -0.3308
  119CHL1  H22B15050   2.055   0.192   5.385  0.7817  0.8635  2.6088
  119CHL1   C2315051   2.192   0.164   5.220 -0.3405 -0.0099  0.7561
  119CHL1  H23A15052   2.229   0.269   5.215  0.1548 -0.1543  1.2178
  119CHL1  H23B15053   2.291   0.118   5.199 -0.3752  0.0141  0.5375
  119CHL1   C2415054   2.093   0.149   5.111  0.4436  0.1699 -0.5929
  119CHL1  H24A15055   2.033   0.057   5.129  2.8488 -1.2810  0.5592
  119CHL1  H24B15056   2.020   0.227   5.138  1.0724  0.9159 -1.0042
  119CHL1   C2515057   2.138   0.166   4.971 -0.8461  0.0638 -0.5278
  119CHL1   H2515058   2.047   0.157   4.908 -1.2707  2.2992 -0.3141
  119CHL1   C2615059   2.195   0.305   4.940 -0.2600 -0.8368  0.6089
  119CHL1  H26A15060   2.116   0.378   4.968 -0.1594 -0.6697  0.4610
  119CHL1  H26B15061   2.294   0.319   4.988 -0.3851 -3.0589  1.6260
  119CHL1  H26C15062   2.202   0.337   4.834  1.4579 -1.9923  0.3514
  119CHL1   C2715063   2.250   0.067   4.921  0.0104  0.0111  0.3639
  119CHL1  H27A15064   2.271   0.086   4.814  0.9012  1.2023  0.7193
  119CHL1  H27B15065   2.344   0.064   4.981 -0.6973 -0.9502  1.4693
  119CHL1  H27C15066   2.200  -0.030   4.939 -0.9966  0.6484  1.1344
  120CHL1    C315067   1.980   0.863   6.455 -0.5093  0.2372  0.6861
  120CHL1    H315068   1.942   0.760   6.439  5.1630 -2.1667  0.4089
  120CHL1    O315069   1.985   0.904   6.591  0.5125  0.0462  0.5047
  120CHL1   H3'15070   2.016   0.995   6.582  2.5306 -0.6833 -0.3643
  120CHL1    C415071   2.114   0.866   6.389  0.0293  0.0868  0.3842
  120CHL1   H4A15072   2.168   0.962   6.396  0.9667 -0.2915 -1.2596
  120CHL1   H4B15073   2.180   0.790   6.437  0.5029  0.8644  0.9865
  120CHL1    C515074   2.102   0.831   6.241 -0.2010  0.2085 -0.2617
  120CHL1    C615075   2.160   0.729   6.180  0.1552 -0.0198  0.6594
  120CHL1    H615076   2.213   0.647   6.231  1.9000  0.6033 -0.1002
  120CHL1    C715077   2.153   0.698   6.036 -0.2057  0.2932  0.5132
  120CHL1   H7A15078   2.253   0.665   6.000 -0.5251 -1.8336  1.3730
  120CHL1   H7B15079   2.098   0.602   6.023 -0.7585  0.6781 -0.0036
  120CHL1    C815080   2.102   0.810   5.945 -0.3911 -0.3582  0.1916
  120CHL1    H815081   2.189   0.878   5.940 -0.1088 -0.6538  0.8934
  120CHL1   C1415082   2.067   0.771   5.801 -0.3703 -0.0069  0.1811
  120CHL1   H1415083   1.991   0.690   5.809  1.0698 -1.3864  0.2569
  120CHL1   C1515084   2.184   0.712   5.713  0.3271 -0.6101 -0.2110
  120CHL1  H15A15085   2.277   0.771   5.724 -0.2127  0.7302 -2.2260
  120CHL1  H15B15086   2.187   0.607   5.748 -3.1159 -1.5937 -2.3678
  120CHL1   C1615087   2.125   0.713   5.567  0.2536 -0.1294 -0.1326
  120CHL1  H16A15088   2.202   0.757   5.500  2.7199 -1.6406  1.5579
  120CHL1  H16B15089   2.101   0.608   5.537  0.3639 -0.1267 -0.2328
  120CHL1   C1715090   1.987   0.791   5.577  0.0328  0.2968  1.0536
  120CHL1   H1715091   1.906   0.718   5.600  1.2169 -1.4741 -0.0812
  120CHL1   C1315092   1.996   0.871   5.704  0.2190 -0.3218  0.1032
  120CHL1   C1815093   2.088   0.996   5.696  0.3972  0.0818 -0.8149
  120CHL1  H18A15094   2.179   0.970   5.637 -1.0758  0.0770 -3.2294
  120CHL1  H18B15095   2.034   1.077   5.644  2.0523  1.1622 -0.9364
  120CHL1  H18C15096   2.115   1.033   5.797 -0.7037  1.0106 -0.8473
  120CHL1   C1215097   1.870   0.915   5.787 -0.0340  0.6959  0.9372
  120CHL1  H12A15098   1.819   0.992   5.725  0.6892 -0.7512 -1.5755
  120CHL1  H12B15099   1.795   0.834   5.795  0.6706 -0.0913 -0.2244
  120CHL1   C1115100   1.898   0.970   5.927  0.3205 -0.3455 -0.0675
  120CHL1  H11A15101   1.959   1.060   5.908  1.1396 -0.9541 -0.3696
  120CHL1  H11B15102   1.802   0.993   5.979  0.6586  0.3791  0.2455
  120CHL1    C915103   1.973   0.871   6.017 -0.4913 -0.3045  0.3244
  120CHL1    H915104   1.906   0.784   6.032  0.3436 -1.2179 -1.0720
  120CHL1   C1015105   2.009   0.934   6.159  0.0214  0.3075  0.3303
  120CHL1   C1915106   2.082   1.063   6.147 -0.1531  0.6083  0.2610
  120CHL1  H19A15107   2.100   1.108   6.247 -0.0334 -0.3853  0.6954
  120CHL1  H19B15108   2.184   1.038   6.109 -1.3524  1.2094 -3.7988
  120CHL1  H19C15109   2.026   1.138   6.087 -2.8875 -1.5062 -0.0000
  120CHL1    C115110   1.874   0.954   6.235 -0.0075  0.1183  0.2521
  120CHL1   H1A15111   1.821   1.045   6.201  2.8425  2.2631  1.1087
  120CHL1   H1B15112   1.818   0.859   6.226  1.3501 -0.6262 -0.6686
  120CHL1    C215113   1.893   0.975   6.386  0.3298 -0.1115 -0.1955
  120CHL1   H2A15114   1.796   0.981   6.441  0.6486  0.0893  0.3485
  120CHL1   H2B15115   1.945   1.072   6.399 -1.4712  0.6985  1.5032
  120CHL1   C2015116   1.944   0.850   5.440  0.1304  0.2858 -0.1215
  120CHL1   H2015117   1.849   0.906   5.458  0.0122 -0.3462  1.4072
  120CHL1   C2115118   1.920   0.733   5.343 -0.8638 -0.1943 -0.1761
  120CHL1  H21A15119   2.014   0.689   5.305 -1.2988 -0.8694 -0.4937
  120CHL1  H21B15120   1.865   0.752   5.248  1.7621  0.4260 -1.6557
  120CHL1  H21C15121   1.874   0.652   5.404  0.6492 -1.8140 -1.0990
  120CHL1   C2215122   2.036   0.954   5.377  0.3752  0.4234  0.8660
  120CHL1  H22A15123   2.054   1.046   5.437  0.3936 -0.4578  2.2466
  120CHL1  H22B15124   2.137   0.915   5.352 -0.5749 -0.6315 -1.6801
  120CHL1   C2315125   1.994   1.003   5.244  0.5167 -0.2549  0.3776
  120CHL1  H23A15126   1.995   0.924   5.166 -0.8090  1.7863 -1.8797
  120CHL1  H23B15127   1.887   1.034   5.253 -0.0646 -2.3867  1.3992
  120CHL1   C2415128   2.078   1.121   5.191  0.2953  0.9887 -0.2524
  120CHL1  H24A15129   2.072   1.199   5.270 -0.0420 -1.9757  2.9263
  120CHL1  H24B15130   2.180   1.084   5.166  0.2319  0.5873  0.0624
  120CHL1   C2515131   2.028   1.184   5.055  0.7946 -0.5304 -0.2535
  120CHL1   H2515132   2.023   1.112   4.972 -0.8101 -1.9582  1.0260
  120CHL1   C2615133   1.885   1.247   5.064 -0.0469  0.5379  0.1838
  120CHL1  H26A15134   1.809   1.170   5.089 -0.2981  0.6973 -0.0878
  120CHL1  H26B15135   1.884   1.324   5.144  1.9841  0.4038  0.3881
  120CHL1  H26C15136   1.859   1.306   4.973  0.4913  1.7066  0.7663
  120CHL1   C2715137   2.134   1.292   5.025 -0.1156 -0.3594  0.5886
  120CHL1  H27A15138   2.225   1.240   4.988  1.3770 -0.2543  3.7061
  120CHL1  H27B15139   2.107   1.363   4.944  0.2197 -1.5601 -0.6107
  120CHL1  H27C15140   2.164   1.355   5.111  0.7506 -1.0689  0.8258
  121CHL1    C315141   2.976   1.990   3.155 -0.5410  0.1163 -0.0479
  121CHL1    H315142   3.064   1.925   3.170 -0.0552  0.6766 -0.4237
  121CHL1    O315143   2.962   2.011   3.012 -0.8502  0.7812 -0.5397
  121CHL1   H3'15144   2.889   2.073   3.005 -0.2531  1.5133 -0.4369
  121CHL1    C415145   2.844   1.925   3.218 -0.3717 -0.0049  0.1089
  121CHL1   H4A15146   2.777   2.005   3.179  2.9279  1.9694 -2.0636
  121CHL1   H4B15147   2.834   1.827   3.168  1.3160  0.1713 -0.6606
  121CHL1    C515148   2.838   1.915   3.368  0.2880 -0.2111 -0.5652
  121CHL1    C615149   2.808   1.800   3.431 -0.1674  0.2889 -0.2705
  121CHL1    H615150   2.780   1.711   3.372  1.2135  0.5572 -1.3654
  121CHL1    C715151   2.784   1.774   3.575  0.1751 -0.5657  0.4976
  121CHL1   H7A15152   2.693   1.716   3.599 -0.1532 -0.9846 -1.6359
  121CHL1   H7B15153   2.867   1.705   3.603 -0.8854 -2.2038 -0.2834
  121CHL1    C815154   2.787   1.908   3.656  0.0428 -0.6166 -0.0597
  121CHL1    H815155   2.684   1.946   3.646  0.0657 -0.8936 -1.5175
  121CHL1   C1415156   2.821   1.882   3.799  0.4122  0.1609  0.0761
  121CHL1   H1415157   2.923   1.838   3.794  0.3892  0.0796  0.3027
  121CHL1   C1515158   2.735   1.778   3.878 -0.0807  0.8947  0.3974
  121CHL1  H15A15159   2.625   1.789   3.870 -0.1644 -0.7244 -1.3127
  121CHL1  H15B15160   2.755   1.673   3.850 -2.6997  0.2024  0.8661
  121CHL1   C1615161   2.771   1.801   4.021 -0.4954 -0.4378 -1.0895
  121CHL1  H16A15162   2.676   1.826   4.072 -1.0771 -0.7396 -2.0116
  121CHL1  H16B15163   2.818   1.713   4.071 -0.6501 -1.5740 -2.8832
  121CHL1   C1715164   2.871   1.923   4.030 -0.3669  0.3392  0.7710
  121CHL1   H1715165   2.973   1.880   4.028 -1.8240 -3.4449  0.2348
  121CHL1   C1315166   2.851   1.993   3.889  0.4020  0.2505  0.8922
  121CHL1   C1815167   2.722   2.088   3.913  0.0576 -0.5391 -0.3020
  121CHL1  H18A15168   2.756   2.183   3.959 -0.4716 -1.0085  1.1220
  121CHL1  H18B15169   2.676   2.121   3.818  1.4409  1.9586 -0.1878
  121CHL1  H18C15170   2.646   2.028   3.968 -0.9079 -1.6710 -2.7110
  121CHL1   C1215171   2.959   2.082   3.828 -0.0789 -0.1174 -0.4726
  121CHL1  H12A15172   2.985   2.166   3.895  0.7491 -1.3243  0.7629
  121CHL1  H12B15173   3.052   2.021   3.819  2.3123  3.2863 -0.8979
  121CHL1   C1115174   2.917   2.132   3.690 -0.0538  0.7557  0.4357
  121CHL1  H11A15175   2.836   2.208   3.698  0.1092  0.9013  0.7091
  121CHL1  H11B15176   3.001   2.186   3.639  1.4662 -1.0280  0.9426
  121CHL1    C915177   2.894   2.004   3.598  0.1651 -0.3824 -0.0386
  121CHL1    H915178   2.989   1.947   3.598  2.0064  2.5194 -0.3331
  121CHL1   C1015179   2.874   2.049   3.445 -0.8928  0.1145  0.2852
  121CHL1   C1915180   2.751   2.139   3.438  0.8325  0.3174  0.4509
  121CHL1  H19A15181   2.770   2.232   3.496  1.0183  1.8996 -2.0050
  121CHL1  H19B15182   2.735   2.175   3.335  0.1231  0.4274  0.5929
  121CHL1  H19C15183   2.662   2.085   3.478 -1.3087  1.7186 -2.1401
  121CHL1    C115184   3.002   2.117   3.384  0.3550 -0.0619 -0.1120
  121CHL1   H1A15185   3.005   2.218   3.429 -1.4252 -0.6522  1.4950
  121CHL1   H1B15186   3.090   2.060   3.421 -1.2780 -3.2189 -0.6900
  121CHL1    C215187   3.001   2.126   3.224  0.3485 -0.2492  0.0378
  121CHL1   H2A15188   3.098   2.165   3.184 -0.4681  0.9406 -0.8617
  121CHL1   H2B15189   2.918   2.195   3.196  0.1305 -0.6024 -0.1802
  121CHL1   C2015190   2.854   2.007   4.164 -0.5449  0.2642  0.4197
  121CHL1   H2015191   2.755   2.057   4.156 -0.1038  1.6814  2.7345
  121CHL1   C2115192   2.946   2.124   4.172 -0.0599  0.4109 -0.0096
  121CHL1  H21A15193   2.920   2.205   4.100 -1.8889  0.1007  0.2522
  121CHL1  H21B15194   3.052   2.101   4.147  0.4127  0.8220  1.5146
  121CHL1  H21C15195   2.940   2.175   4.270 -2.2514 -0.3002  0.2892
  121CHL1   C2215196   2.857   1.914   4.289 -0.5727  0.4472 -0.1398
  121CHL1  H22A15197   2.785   1.832   4.272  0.0909  0.3865 -3.1969
  121CHL1  H22B15198   2.959   1.869   4.291 -0.8416 -0.1586  0.4542
  121CHL1   C2315199   2.814   1.980   4.419  0.6391 -0.4153  0.2392
  121CHL1  H23A15200   2.882   2.064   4.445 -2.2865  2.0189  0.5375
  121CHL1  H23B15201   2.706   2.005   4.423  0.0508 -2.8024  0.2759
  121CHL1   C2415202   2.833   1.869   4.531  0.9358 -0.2437  0.2178
  121CHL1  H24A15203   2.940   1.846   4.546  0.7141 -1.0730  0.5581
  121CHL1  H24B15204   2.797   1.924   4.621 -0.0837  2.6720 -1.8027
  121CHL1   C2515205   2.761   1.734   4.517  0.0688  0.3994 -0.3132
  121CHL1   H2515206   2.778   1.696   4.414 -1.1141 -2.3484  0.3947
  121CHL1   C2615207   2.806   1.628   4.619  0.0477 -0.1391 -0.3559
  121CHL1  H26A15208   2.770   1.664   4.718  2.0109 -1.9255  1.0833
  121CHL1  H26B15209   2.760   1.529   4.599  0.4927 -0.2123 -1.0436
  121CHL1  H26C15210   2.916   1.619   4.627 -0.0808 -1.9717 -0.2805
  121CHL1   C2715211   2.616   1.756   4.533  0.5681 -0.3363 -0.6482
  121CHL1  H27A15212   2.574   1.839   4.472  0.9789 -1.2640 -2.2486
  121CHL1  H27B15213   2.551   1.666   4.534  1.0867 -0.7325  1.5127
  121CHL1  H27C15214   2.588   1.781   4.638  1.9497 -3.2139  0.4914
  122CHL1    C315215   0.194   4.568   3.648 -0.3110 -0.1973 -0.4889
  122CHL1    H315216   0.194   4.474   3.706  0.7846 -0.9404 -1.6398
  122CHL1    O315217   0.224   4.522   3.515 -0.5125  0.0023 -0.2568
  122CHL1   H3'15218   0.191   4.581   3.446 -0.5835 -0.9827 -1.0823
  122CHL1    C415219   0.053   4.633   3.652  0.2664 -0.1261 -1.2012
  122CHL1   H4A15220   0.056   4.708   3.570  1.4002  1.1112 -0.0550
  122CHL1   H4B15221  -0.022   4.559   3.617  1.3484 -0.5171 -2.8207
  122CHL1    C515222   0.021   4.678   3.786  0.5376 -0.0210 -0.2118
  122CHL1    C615223  -0.093   4.645   3.850  0.3295 -0.7384 -0.3142
  122CHL1    H615224  -0.159   4.567   3.810 -1.1878  0.3146  0.0307
  122CHL1    C715225  -0.132   4.693   3.987  0.5486  0.2619  0.1067
  122CHL1   H7A15226  -0.240   4.717   3.994 -0.0978 -2.4739  0.6763
  122CHL1   H7B15227  -0.108   4.620   4.068 -0.7640 -1.5119 -1.0411
  122CHL1    C815228  -0.051   4.816   4.029 -0.2623 -0.0503 -0.4918
  122CHL1    H815229  -0.071   4.906   3.968  2.5532  1.4365  0.5885
  122CHL1   C1415230  -0.063   4.849   4.179 -0.1448 -0.2319 -0.7938
  122CHL1   H1415231  -0.033   4.754   4.229  1.7539 -0.8003 -2.8183
  122CHL1   C1515232  -0.202   4.873   4.235 -0.3582 -0.2626  0.1409
  122CHL1  H15A15233  -0.251   4.942   4.164  0.9781 -1.8540 -2.4566
  122CHL1  H15B15234  -0.269   4.784   4.229 -0.1293 -0.3866 -0.6656
  122CHL1   C1615235  -0.176   4.926   4.373  0.5292 -0.6158  0.0855
  122CHL1  H16A15236  -0.241   5.010   4.404  0.1235  0.6422 -3.7147
  122CHL1  H16B15237  -0.192   4.843   4.445 -1.4742 -2.1289 -1.9778
  122CHL1   C1715238  -0.026   4.970   4.380  0.3642 -0.0477  0.3753
  122CHL1   H1715239   0.025   4.884   4.429 -0.2845  0.4589  2.0299
  122CHL1   C1315240   0.024   4.964   4.229 -0.6176  0.5573 -0.7285
  122CHL1   C1815241  -0.005   5.094   4.150  0.0162 -0.0074  0.4256
  122CHL1  H18A15242  -0.010   5.099   4.039 -2.4519  2.1184  0.5168
  122CHL1  H18B15243  -0.113   5.117   4.167  0.5794  1.8251  1.8991
  122CHL1  H18C15244   0.059   5.181   4.176  1.2658 -0.8251  0.1605
  122CHL1   C1215245   0.173   4.916   4.219 -0.0415 -0.0047 -0.0304
  122CHL1  H12A15246   0.239   5.001   4.249 -2.4548  2.1970 -0.6189
  122CHL1  H12B15247   0.205   4.826   4.276 -0.7458  0.4657  1.1542
  122CHL1   C1115248   0.211   4.880   4.073  0.0697 -0.3711  0.3849
  122CHL1  H11A15249   0.218   4.977   4.020  2.2608 -0.1620  0.9520
  122CHL1  H11B15250   0.313   4.835   4.077 -0.7817 -2.3676  0.7479
  122CHL1    C915251   0.100   4.791   4.000  0.1108  0.5799 -0.3598
  122CHL1    H915252   0.125   4.692   4.046  1.2618  0.0782 -1.9877
  122CHL1   C1015253   0.123   4.779   3.849  0.3769  0.2426  0.8453
  122CHL1   C1915254   0.111   4.913   3.769 -0.5683  0.5760  0.2550
  122CHL1  H19A15255   0.172   4.902   3.677 -0.3150 -0.9198  0.5818
  122CHL1  H19B15256   0.006   4.936   3.742 -0.2662 -1.5640 -3.2910
  122CHL1  H19C15257   0.153   4.997   3.829 -1.6561  0.8767  0.6138
  122CHL1    C115258   0.268   4.713   3.838 -0.5374 -0.2614  0.3547
  122CHL1   H1A15259   0.345   4.789   3.865 -0.0043 -1.4738  2.4224
  122CHL1   H1B15260   0.268   4.625   3.905 -0.3743  1.3605  2.6131
  122CHL1    C215261   0.303   4.656   3.697 -0.3495 -1.2057 -0.4321
  122CHL1   H2A15262   0.403   4.607   3.697  0.7437  0.8072 -2.5452
  122CHL1   H2B15263   0.309   4.738   3.623  1.1249  1.1540  2.1318
  122CHL1   C2015264  -0.003   5.101   4.459  0.6133 -0.0894 -0.7382
  122CHL1   H2015265  -0.037   5.189   4.400 -0.5088 -1.0352 -1.5487
  122CHL1   C2115266   0.146   5.118   4.490  0.6889  0.2754  0.1514
  122CHL1  H21A15267   0.201   5.147   4.398  1.8333 -0.6482  0.5080
  122CHL1  H21B15268   0.190   5.023   4.528 -0.1599 -0.4230 -0.5901
  122CHL1  H21C15269   0.145   5.200   4.565 -1.1811 -1.2549  1.9214
  122CHL1   C2215270  -0.074   5.099   4.602  0.3793 -0.4357  0.1402
  122CHL1  H22A15271  -0.066   5.198   4.650 -1.3334  1.2250 -2.6928
  122CHL1  H22B15272  -0.184   5.092   4.589  0.4055 -1.5211  0.3510
  122CHL1   C2315273  -0.038   4.990   4.707  0.0349  0.2332 -1.2005
  122CHL1  H23A15274  -0.107   4.904   4.694 -2.8641  1.9815  1.2162
  122CHL1  H23B15275   0.069   4.964   4.694 -0.1495 -1.6662  0.5774
  122CHL1   C2415276  -0.064   5.043   4.848 -0.0031  0.1871  0.0274
  122CHL1  H24A15277  -0.003   4.983   4.919  1.4031 -0.7550 -1.8841
  122CHL1  H24B15278  -0.027   5.146   4.865  1.5291  0.1052 -2.2926
  122CHL1   C2515279  -0.208   5.046   4.905 -0.0290  0.9293  0.4573
  122CHL1   H2515280  -0.274   5.114   4.846  0.0943 -0.4010 -1.2738
  122CHL1   C2615281  -0.273   4.908   4.904 -0.6303  0.7315 -0.0711
  122CHL1  H26A15282  -0.372   4.916   4.956 -0.2281 -0.3091  0.8949
  122CHL1  H26B15283  -0.283   4.867   4.802 -1.1723 -2.8629  1.2781
  122CHL1  H26C15284  -0.214   4.835   4.964 -1.2405  0.6592  0.4588
  122CHL1   C2715285  -0.193   5.106   5.049  0.5436  0.1187  0.0188
  122CHL1  H27A15286  -0.125   5.195   5.050  1.5096 -0.5612 -1.3684
  122CHL1  H27B15287  -0.293   5.125   5.094  1.3524  2.9334  0.8762
  122CHL1  H27C15288  -0.144   5.032   5.115 -0.8215 -1.0823 -0.2771
  123CHL1    C315289   4.559   4.144   3.073 -0.9920 -0.0920  0.5133
  123CHL1    H315290   4.668   4.126   3.084 -0.3268  2.3952 -1.2760
  123CHL1    O315291   4.547   4.189   2.939  0.1278 -0.2838 -0.6397
  123CHL1   H3'15292   4.454   4.205   2.925 -1.3674 -5.7318  0.6447
  123CHL1    C415293   4.481   4.011   3.103  0.2911 -0.3376 -0.4790
  123CHL1   H4A15294   4.377   4.031   3.068  0.9810  1.5657 -1.5861
  123CHL1   H4B15295   4.518   3.929   3.038  0.9278  0.5535 -1.2828
  123CHL1    C515296   4.479   3.983   3.252  0.2390  0.0121  0.2811
  123CHL1    C615297   4.490   3.854   3.288 -0.2873 -0.1871 -0.1258
  123CHL1    H615298   4.491   3.776   3.211 -0.0436  1.4264 -1.8382
  123CHL1    C715299   4.485   3.819   3.433 -0.0920  0.5547 -0.9700
  123CHL1   H7A15300   4.411   3.738   3.452  1.1531  0.1688  3.2094
  123CHL1   H7B15301   4.582   3.779   3.470 -0.7345  1.7489  2.3768
  123CHL1    C815302   4.431   3.930   3.527 -0.1634 -0.0132 -0.2775
  123CHL1    H815303   4.320   3.923   3.518 -0.2045 -0.8516  0.6560
  123CHL1   C1415304   4.467   3.895   3.664  0.4257  0.2724 -0.9800
  123CHL1   H1415305   4.578   3.882   3.665  0.4435  0.2573 -1.8262
  123CHL1   C1515306   4.419   3.761   3.723 -0.1162 -0.6169  0.1605
  123CHL1  H15A15307   4.309   3.756   3.712 -0.0828 -1.2725  0.0993
  123CHL1  H15B15308   4.469   3.669   3.684  0.5008  0.3113 -1.3146
  123CHL1   C1615309   4.441   3.772   3.876 -0.4618 -0.0228 -0.0696
  123CHL1  H16A15310   4.348   3.741   3.929 -0.5513  2.0644  1.1070
  123CHL1  H16B15311   4.532   3.719   3.910 -0.7283 -0.1177  0.5217
  123CHL1   C1715312   4.460   3.930   3.903  0.3487 -0.2136 -0.0673
  123CHL1   H1715313   4.567   3.953   3.920  0.6446 -0.8519 -0.9865
  123CHL1   C1315314   4.432   4.002   3.770 -0.2209  0.5134 -0.5450
  123CHL1   C1815315   4.277   4.029   3.756 -0.1642 -0.7515  0.4689
  123CHL1  H18A15316   4.253   4.105   3.834  1.2100  0.3405 -0.1360
  123CHL1  H18B15317   4.244   4.074   3.660 -0.7846 -0.7393  0.6828
  123CHL1  H18C15318   4.216   3.939   3.780 -0.5741  0.3878  4.3773
  123CHL1   C1215319   4.516   4.119   3.739  0.0801  0.0126  0.0281
  123CHL1  H12A15320   4.511   4.207   3.807  1.8151  0.6814 -0.6396
  123CHL1  H12B15321   4.624   4.092   3.745  0.0567  0.1409  1.1215
  123CHL1   C1115322   4.491   4.171   3.595 -0.0444  0.0231 -0.6036
  123CHL1  H11A15323   4.395   4.228   3.598 -0.9209 -1.2257 -2.6528
  123CHL1  H11B15324   4.563   4.253   3.574  1.8574 -1.3056  0.4024
  123CHL1    C915325   4.497   4.062   3.491 -0.1090  0.1369  0.8191
  123CHL1    H915326   4.603   4.032   3.483 -1.2855 -4.2358 -4.1976
  123CHL1   C1015327   4.459   4.103   3.348  0.0465 -0.8070  0.1504
  123CHL1   C1915328   4.302   4.131   3.344  0.4808  0.3736  0.6452
  123CHL1  H19A15329   4.239   4.050   3.387 -1.4833  1.9831  1.0009
  123CHL1  H19B15330   4.278   4.218   3.410 -1.8621 -1.2845  2.1500
  123CHL1  H19C15331   4.271   4.164   3.243  0.9159  0.5371  0.5665
  123CHL1    C115332   4.541   4.227   3.306 -0.1612 -0.5214  0.1171
  123CHL1   H1A15333   4.515   4.319   3.362  0.0650  0.2756 -1.0542
  123CHL1   H1B15334   4.647   4.213   3.337  0.4599 -0.0088 -1.6734
  123CHL1    C215335   4.516   4.260   3.160  0.3301  0.7351 -0.0167
  123CHL1   H2A15336   4.570   4.353   3.134  1.0768  2.4323  6.1348
  123CHL1   H2B15337   4.410   4.288   3.144  0.2407  1.2443  1.3710
  123CHL1   C2015338   4.400   3.980   4.035  0.5631 -1.0532 -0.4042
  123CHL1   H2015339   4.289   3.973   4.026  0.5609 -0.5607 -0.8595
  123CHL1   C2115340   4.445   4.127   4.068  0.1543 -0.5552 -0.5447
  123CHL1  H21A15341   4.405   4.190   3.985 -1.4963 -0.8008  0.0337
  123CHL1  H21B15342   4.554   4.141   4.083 -0.0286  1.7793 -1.0242
  123CHL1  H21C15343   4.395   4.158   4.162 -2.3588  0.0232 -1.9873
  123CHL1   C2215344   4.443   3.887   4.153 -0.1260 -0.1329  0.0292
  123CHL1  H22A15345   4.404   3.786   4.129 -3.4338  1.6486 -3.1381
  123CHL1  H22B15346   4.554   3.888   4.150 -0.0922 -1.5033  0.2898
  123CHL1   C2315347   4.404   3.930   4.299 -0.4983 -0.4345  0.1238
  123CHL1  H23A15348   4.441   4.034   4.316 -0.4638 -0.6052  1.0906
  123CHL1  H23B15349   4.293   3.922   4.293 -0.3636 -2.6126  0.0195
  123CHL1   C2415350   4.460   3.829   4.401  0.4718 -0.1177  0.3174
  123CHL1  H24A15351   4.422   3.730   4.367  1.1227  0.0037 -0.8218
  123CHL1  H24B15352   4.571   3.828   4.403  0.4740  0.7310  1.6591
  123CHL1   C2515353   4.398   3.845   4.539  0.4018 -1.1507  0.3533
  123CHL1   H2515354   4.290   3.867   4.524  0.8213 -0.0976 -1.5450
  123CHL1   C2615355   4.411   3.720   4.623  0.5866 -0.0341 -0.4902
  123CHL1  H26A15356   4.377   3.734   4.727  1.6158  0.1521 -0.1591
  123CHL1  H26B15357   4.358   3.632   4.582 -0.8025  1.2809 -1.6008
  123CHL1  H26C15358   4.519   3.692   4.630  0.1711 -1.3050  1.4532
  123CHL1   C2715359   4.470   3.961   4.609  0.2142  0.4345  0.1186
  123CHL1  H27A15360   4.578   3.936   4.622  0.0999  0.6545  1.5818
  123CHL1  H27B15361   4.472   4.064   4.567 -0.6628  0.3996 -0.0304
  123CHL1  H27C15362   4.416   3.972   4.705  1.6038 -1.9272  1.2499
  124CHL1    C315363   2.987   5.421   3.511 -0.8405  0.0765  0.5690
  124CHL1    H315364   3.053   5.510   3.513 -1.3552  0.5265 -1.1625
  124CHL1    O315365   2.976   5.390   3.373  0.2607 -0.0582  0.5936
  124CHL1   H3'15366   2.939   5.302   3.363 -0.9976  0.6721 -1.9599
  124CHL1    C415367   3.043   5.304   3.594 -0.1110 -0.3603 -0.3840
  124CHL1   H4A15368   2.968   5.223   3.592  2.3657 -2.8137 -0.4900
  124CHL1   H4B15369   3.130   5.274   3.531 -0.5100 -0.7905 -0.7390
  124CHL1    C515370   3.078   5.347   3.733  1.1908 -0.3679 -0.5113
  124CHL1    C615371   3.208   5.345   3.773  0.7889  0.4284 -0.4430
  124CHL1    H615372   3.273   5.289   3.704 -0.1715 -1.6171  0.2273
  124CHL1    C715373   3.250   5.389   3.911 -0.3586  0.6406 -1.0074
  124CHL1   H7A15374   3.321   5.321   3.962  0.4819  1.7411 -0.6450
  124CHL1   H7B15375   3.298   5.489   3.895  0.3309  0.3722 -0.6660
  124CHL1    C815376   3.134   5.421   4.013  0.3662 -0.1052  0.6929
  124CHL1    H815377   3.100   5.320   4.043  0.0761 -0.6885 -1.4452
  124CHL1   C1415378   3.181   5.510   4.131  0.2489  0.5838  0.4529
  124CHL1   H1415379   3.221   5.606   4.092 -0.7520  0.9118  0.2221
  124CHL1   C1515380   3.299   5.447   4.204  0.7130 -0.2686  0.1292
  124CHL1  H15A15381   3.292   5.337   4.217  0.6148 -0.4476 -1.2884
  124CHL1  H15B15382   3.391   5.476   4.150 -0.0878  1.8090 -0.2181
  124CHL1   C1615383   3.294   5.517   4.340 -0.4372 -0.5776  0.3188
  124CHL1  H16A15384   3.275   5.446   4.423  0.1704  1.2231  2.0729
  124CHL1  H16B15385   3.380   5.582   4.365 -2.3278  1.9411  0.7669
  124CHL1   C1715386   3.163   5.607   4.340 -0.3907 -0.3806  0.3342
  124CHL1   H1715387   3.193   5.699   4.284  1.0950 -0.9434  0.1523
  124CHL1   C1315388   3.076   5.530   4.237 -0.0043  0.8178  0.2718
  124CHL1   C1815389   3.038   5.391   4.300 -0.2151  0.6602 -0.0011
  124CHL1  H18A15390   2.962   5.402   4.380 -0.1759 -1.1908  0.3348
  124CHL1  H18B15391   2.983   5.331   4.225 -1.5136 -1.0046  2.1811
  124CHL1  H18C15392   3.117   5.330   4.350 -0.4258 -0.7233 -1.3070
  124CHL1   C1215393   2.960   5.601   4.172 -0.6633  0.0702  0.2132
  124CHL1  H12A15394   2.880   5.615   4.248 -1.8377  0.1763 -1.0022
  124CHL1  H12B15395   3.006   5.696   4.136 -0.0113 -0.6079 -0.7869
  124CHL1   C1115396   2.908   5.532   4.035  0.1721 -0.1762  0.4541
  124CHL1  H11A15397   2.841   5.451   4.071  1.4934 -0.9682  1.2273
  124CHL1  H11B15398   2.844   5.610   3.987 -2.0147 -1.1307  1.6576
  124CHL1    C915399   3.018   5.487   3.934  0.8594  0.1814  0.0079
  124CHL1    H915400   3.062   5.581   3.893 -2.9124  1.8916 -0.5524
  124CHL1   C1015401   2.965   5.408   3.815 -0.2499 -0.2881  0.3221
  124CHL1   C1915402   2.870   5.298   3.865 -0.6212  0.6989 -0.3615
  124CHL1  H19A15403   2.840   5.234   3.780 -2.9320  1.7654 -0.4125
  124CHL1  H19B15404   2.918   5.236   3.944  3.7754  1.6990 -1.9592
  124CHL1  H19C15405   2.777   5.337   3.912 -0.2202  0.5535  0.5893
  124CHL1    C115406   2.883   5.504   3.722  0.6784 -0.9218 -0.3065
  124CHL1   H1A15407   2.784   5.514   3.773  0.7817 -2.2448  0.1973
  124CHL1   H1B15408   2.939   5.600   3.727 -0.6858 -0.1306  0.7639
  124CHL1    C215409   2.859   5.459   3.574  0.2405  0.3397  0.7167
  124CHL1   H2A15410   2.837   5.549   3.514 -1.3724 -0.9628 -0.7419
  124CHL1   H2B15411   2.782   5.381   3.559  1.0469 -0.2441 -0.5382
  124CHL1   C2015412   3.114   5.646   4.479 -0.0562 -0.6957 -0.2144
  124CHL1   H2015413   3.084   5.550   4.527 -0.8610 -1.3878 -2.0185
  124CHL1   C2115414   2.990   5.735   4.467  0.1654 -0.1131  0.4855
  124CHL1  H21A15415   2.967   5.778   4.566 -0.3984 -0.1062  0.3577
  124CHL1  H21B15416   2.904   5.673   4.433 -0.8572  1.9264 -0.8622
  124CHL1  H21C15417   3.004   5.826   4.404  2.0215 -1.4653 -1.1832
  124CHL1   C2215418   3.231   5.721   4.565  0.4104  0.6158  0.0239
  124CHL1  H22A15419   3.319   5.654   4.578 -0.4983 -1.0078 -1.6749
  124CHL1  H22B15420   3.263   5.811   4.509 -0.2560  0.3470 -0.8143
  124CHL1   C2315421   3.185   5.753   4.706 -0.1845 -0.2176  0.0911
  124CHL1  H23A15422   3.119   5.841   4.720  2.2547  1.6397  0.6506
  124CHL1  H23B15423   3.119   5.671   4.739 -1.0391  0.6571  0.6025
  124CHL1   C2415424   3.296   5.778   4.810 -0.1196 -0.2788  0.1446
  124CHL1  H24A15425   3.369   5.695   4.805  0.3573  0.1273  0.3112
  124CHL1  H24B15426   3.347   5.871   4.777 -1.3280 -0.4124 -2.3127
  124CHL1   C2515427   3.250   5.799   4.947  0.2618  0.0542  0.2530
  124CHL1   H2515428   3.172   5.721   4.958 -1.2326  1.2200 -1.4026
  124CHL1   C2615429   3.378   5.761   5.028  0.0829 -0.4752 -0.1565
  124CHL1  H26A15430   3.468   5.812   4.988  0.8292 -0.9055  0.9338
  124CHL1  H26B15431   3.362   5.777   5.137 -1.2280 -0.5486 -0.3282
  124CHL1  H26C15432   3.394   5.653   5.008 -1.0204 -0.4784 -1.1624
  124CHL1   C2715433   3.206   5.944   4.968  0.3813 -0.3033 -0.0668
  124CHL1  H27A15434   3.292   6.013   4.960  0.2246  0.1502  1.6935
  124CHL1  H27B15435   3.131   5.977   4.892  0.5538  1.4258  0.4579
  124CHL1  H27C15436   3.156   5.952   5.067  0.9662  1.3483  0.1342
  125CHL1    C315437   5.969   0.968   3.287  0.0030  1.5131  0.1281
  125CHL1    H315438   5.937   0.862   3.278 -0.8517  1.8411 -0.7314
  125CHL1    O315439   6.015   1.002   3.154  0.2595  0.6145 -0.7561
  125CHL1   H3'15440   6.063   1.085   3.164  2.0524 -0.5080  0.5536
  125CHL1    C415441   5.851   1.059   3.333 -0.1417  0.1398 -0.1191
  125CHL1   H4A15442   5.878   1.166   3.317 -0.3064  0.0513 -1.0431
  125CHL1   H4B15443   5.766   1.031   3.268  1.1155 -2.1332 -0.9091
  125CHL1    C515444   5.809   1.027   3.476 -0.0583  0.2472  0.5549
  125CHL1    C615445   5.679   0.998   3.504  0.7764 -0.0204 -0.2196
  125CHL1    H615446   5.595   1.006   3.433  0.4537  2.2674  0.3691
  125CHL1    C715447   5.633   0.965   3.642 -0.1054 -0.0881 -0.2117
  125CHL1   H7A15448   5.530   1.003   3.660  0.0122 -0.2931  0.9597
  125CHL1   H7B15449   5.614   0.856   3.646 -1.5035  0.0934 -1.1637
  125CHL1    C815450   5.736   1.008   3.751  0.3003 -0.2147 -0.5604
  125CHL1    H815451   5.724   1.118   3.751 -3.4616 -0.4835 -0.6250
  125CHL1   C1415452   5.698   0.956   3.887 -0.9874 -0.6896  0.2255
  125CHL1   H1415453   5.711   0.846   3.883  1.7653 -0.4310  0.0480
  125CHL1   C1515454   5.553   0.987   3.939 -0.0976  0.3644  0.2005
  125CHL1  H15A15455   5.530   1.093   3.916  0.1084  1.0155  2.7067
  125CHL1  H15B15456   5.485   0.917   3.886  0.7376 -0.8059  0.6205
  125CHL1   C1615457   5.566   0.964   4.090 -0.2165 -0.0266  0.4829
  125CHL1  H16A15458   5.530   1.058   4.137 -0.6921  0.1560 -0.2184
  125CHL1  H16B15459   5.504   0.878   4.123 -0.8862  0.0133 -0.5964
  125CHL1   C1715460   5.716   0.937   4.121 -0.1856 -0.5135  0.1330
  125CHL1   H1715461   5.724   0.826   4.111  2.6170 -0.1931 -2.8554
  125CHL1   C1315462   5.795   0.998   4.004 -0.2890  0.2983 -0.6117
  125CHL1   C1815463   5.797   1.150   4.021  0.1903  0.2388 -0.7034
  125CHL1  H18A15464   5.707   1.195   4.069  1.1438 -0.7213  2.2418
  125CHL1  H18B15465   5.885   1.181   4.082  2.6549 -2.7257 -2.5208
  125CHL1  H18C15466   5.824   1.205   3.928  1.7342  0.9404  0.1142
  125CHL1   C1215467   5.939   0.941   3.976  0.5337 -0.1929  0.1368
  125CHL1  H12A15468   6.005   0.992   4.050  2.2073 -2.2032  0.0898
  125CHL1  H12B15469   5.945   0.831   3.975  1.4344 -0.1651  1.0551
  125CHL1   C1115470   5.979   1.005   3.839 -0.4987  0.7791  0.0621
  125CHL1  H11A15471   6.004   1.112   3.850  3.1363  0.2193 -1.2772
  125CHL1  H11B15472   6.078   0.969   3.805  0.2525  1.7512  1.1438
  125CHL1    C915473   5.882   0.973   3.724 -0.1960  0.8633 -0.2678
  125CHL1    H915474   5.875   0.863   3.708 -3.2373  0.9652 -0.0928
  125CHL1   C1015475   5.927   1.021   3.575 -0.3106  0.0266  1.0352
  125CHL1   C1915476   5.965   1.171   3.585 -0.2381  0.7032 -0.2351
  125CHL1  H19A15477   5.872   1.226   3.612 -2.7220 -3.6773  1.0666
  125CHL1  H19B15478   6.043   1.197   3.660  1.5944 -0.0916 -1.7748
  125CHL1  H19C15479   6.012   1.215   3.494 -0.3950  2.3983  0.4566
  125CHL1    C115480   6.041   0.936   3.527  0.1053  0.7565  0.7354
  125CHL1   H1A15481   6.125   0.940   3.600  0.3561 -0.1371  0.5167
  125CHL1   H1B15482   6.013   0.829   3.514  0.8013  0.6282  0.1912
  125CHL1    C215483   6.084   0.976   3.383  0.1081  0.5489 -1.0786
  125CHL1   H2A15484   6.146   0.889   3.354 -1.5827 -1.6489  1.4488
  125CHL1   H2B15485   6.145   1.069   3.391  2.3693 -0.9371 -0.0940
  125CHL1   C2015486   5.758   0.964   4.268  0.0700 -0.2338  0.1901
  125CHL1   H2015487   5.791   1.070   4.263  0.9815 -0.4825  0.7325
  125CHL1   C2115488   5.873   0.873   4.291 -0.4665  0.1516 -0.3689
  125CHL1  H21A15489   5.965   0.904   4.237 -0.1369 -0.6749 -0.2982
  125CHL1  H21B15490   5.856   0.766   4.268  1.1924 -0.4598  1.0766
  125CHL1  H21C15491   5.912   0.890   4.394 -2.6874  0.1449  0.5225
  125CHL1   C2215492   5.645   0.940   4.366 -0.0370 -0.0953 -0.8922
  125CHL1  H22A15493   5.558   1.006   4.344 -0.5791 -0.3370  0.4062
  125CHL1  H22B15494   5.607   0.839   4.341  1.5128 -0.8364 -0.3742
  125CHL1   C2315495   5.669   0.961   4.518 -0.3333 -0.0728 -0.6672
  125CHL1  H23A15496   5.740   0.889   4.564  0.3678  1.7216  1.2514
  125CHL1  H23B15497   5.732   1.052   4.525 -1.3518  0.5978  0.0940
  125CHL1   C2415498   5.544   0.956   4.605  0.1946  0.4597 -0.2161
  125CHL1  H24A15499   5.473   1.041   4.592 -0.6426 -0.0489  0.8884
  125CHL1  H24B15500   5.483   0.867   4.578 -0.8726  1.0851  0.0502
  125CHL1   C2515501   5.570   0.955   4.757  0.1520  0.2546 -0.1320
  125CHL1   H2515502   5.647   1.033   4.776 -2.1904  2.6376  0.1984
  125CHL1   C2615503   5.451   1.003   4.836  0.1732  0.0754 -0.2869
  125CHL1  H26A15504   5.470   0.982   4.944  0.0615  0.7523 -0.1271
  125CHL1  H26B15505   5.438   1.112   4.818  2.6500 -0.0006 -3.2917
  125CHL1  H26C15506   5.356   0.951   4.809 -1.3288  3.4305 -2.0478
  125CHL1   C2715507   5.613   0.815   4.804  0.3499  0.0753  0.3398
  125CHL1  H27A15508   5.704   0.773   4.757  0.0042 -0.0025 -0.2640
  125CHL1  H27B15509   5.633   0.811   4.914  2.0749 -1.0682  0.0263
  125CHL1  H27C15510   5.542   0.733   4.781 -0.0399  0.7454 -0.8938
  126CHL1    C315511   3.711   6.254   3.489  0.4967  0.4110 -0.2826
  126CHL1    H315512   3.790   6.231   3.415 -0.0213  2.2776 -1.4821
  126CHL1    O315513   3.589   6.289   3.417 -0.0605  0.0515  0.4388
  126CHL1   H3'15514   3.619   6.356   3.355 -0.9233 -0.1136 -0.1770
  126CHL1    C415515   3.688   6.140   3.587 -0.0433 -0.5012 -0.4663
  126CHL1   H4A15516   3.601   6.168   3.651  1.3430  1.0838  0.8067
  126CHL1   H4B15517   3.642   6.059   3.527  0.2393 -0.5017 -0.6851
  126CHL1    C515518   3.802   6.099   3.671  1.0695  0.1743  0.4129
  126CHL1    C615519   3.848   5.972   3.677  0.0741 -0.7884 -0.3358
  126CHL1    H615520   3.794   5.892   3.624 -2.1646  1.4960 -1.7183
  126CHL1    C715521   3.951   5.928   3.774  0.2972  0.7138  0.2261
  126CHL1   H7A15522   3.914   5.830   3.812  0.3395 -0.3935 -2.3366
  126CHL1   H7B15523   4.044   5.902   3.718  0.0348 -0.6291  0.3767
  126CHL1    C815524   3.971   6.030   3.886 -0.2867  0.4472 -0.0071
  126CHL1    H815525   3.882   6.025   3.951 -0.7533  1.5385 -0.5217
  126CHL1   C1415526   4.095   5.993   3.964  0.1995 -0.2689  0.5350
  126CHL1   H1415527   4.178   6.003   3.891 -0.0373 -1.0539  0.1537
  126CHL1   C1515528   4.110   5.850   4.014  0.2077 -0.5449  0.3268
  126CHL1  H15A15529   4.010   5.817   4.047  0.3405 -0.7863  0.4902
  126CHL1  H15B15530   4.149   5.781   3.937 -0.3630 -1.0856  0.5177
  126CHL1   C1615531   4.206   5.859   4.136  0.4360  0.4299 -0.9787
  126CHL1  H16A15532   4.155   5.828   4.230  1.0097  1.6766 -0.2342
  126CHL1  H16B15533   4.290   5.791   4.111  0.3602  0.7166 -2.0889
  126CHL1   C1715534   4.251   6.010   4.144  0.0055 -0.0653 -0.0269
  126CHL1   H1715535   4.333   6.013   4.070 -0.1368  1.6934 -0.1414
  126CHL1   C1315536   4.135   6.082   4.086  0.6478  0.0301  0.2134
  126CHL1   C1815537   4.018   6.093   4.187  0.3961 -0.4033 -0.5443
  126CHL1  H18A15538   3.932   6.127   4.125  0.2364 -0.3202 -0.2775
  126CHL1  H18B15539   4.003   6.000   4.245 -2.3768  0.8443  0.9635
  126CHL1  H18C15540   4.041   6.176   4.257 -1.5395  0.3113 -0.7044
  126CHL1   C1215541   4.162   6.225   4.019 -0.5504  0.8182  0.2201
  126CHL1  H12A15542   4.190   6.297   4.099  1.0929 -0.5075  0.9018
  126CHL1  H12B15543   4.248   6.221   3.948 -1.5080 -1.4720 -0.9157
  126CHL1   C1115544   4.039   6.270   3.942  0.1742  0.3412 -0.3497
  126CHL1  H11A15545   3.954   6.289   4.011  0.0299  0.9665 -0.6889
  126CHL1  H11B15546   4.056   6.366   3.888  0.7324  0.6562  0.3755
  126CHL1    C915547   3.991   6.169   3.829 -0.8517  0.1752 -0.2618
  126CHL1    H915548   4.071   6.156   3.752 -0.1956 -0.3576  0.4944
  126CHL1   C1015549   3.858   6.219   3.757 -0.1124 -0.8439  1.0046
  126CHL1   C1915550   3.758   6.266   3.860  0.0678 -0.0715  0.2972
  126CHL1  H19A15551   3.795   6.362   3.902  1.7362 -0.6087  0.1133
  126CHL1  H19B15552   3.664   6.302   3.814  1.9887  0.7940 -3.3465
  126CHL1  H19C15553   3.740   6.189   3.938  0.2764  1.0425  1.4868
  126CHL1    C115554   3.892   6.342   3.655  0.0976  0.4728 -0.3265
  126CHL1   H1A15555   3.939   6.433   3.696  1.4375  0.4408 -1.7074
  126CHL1   H1B15556   3.961   6.299   3.580  0.3587  0.8658 -0.3117
  126CHL1    C215557   3.768   6.378   3.569  0.1974 -0.6290 -0.8375
  126CHL1   H2A15558   3.799   6.461   3.502  1.6842 -1.3505 -1.0904
  126CHL1   H2B15559   3.688   6.418   3.635  1.2138  0.1157 -0.0082
  126CHL1   C2015560   4.287   6.051   4.283 -0.5186  1.2460  0.3709
  126CHL1   H2015561   4.203   6.024   4.350 -1.5329 -1.6707 -1.8475
  126CHL1   C2115562   4.331   6.202   4.303  0.2249  0.3182 -0.3890
  126CHL1  H21A15563   4.412   6.216   4.229 -0.9552 -1.7417 -2.2129
  126CHL1  H21B15564   4.365   6.224   4.406  0.1833 -0.5927 -0.1696
  126CHL1  H21C15565   4.246   6.270   4.281 -0.3368 -0.8361 -2.0680
  126CHL1   C2215566   4.418   5.972   4.329  0.6506  0.5672 -0.9001
  126CHL1  H22A15567   4.386   5.867   4.318 -0.4464  0.9276 -1.3137
  126CHL1  H22B15568   4.506   6.003   4.269 -0.1823  0.8166 -2.0328
  126CHL1   C2315569   4.455   5.975   4.487  0.2497 -0.5369 -0.0648
  126CHL1  H23A15570   4.485   6.080   4.509 -3.5973  0.6254  0.2135
  126CHL1  H23B15571   4.362   5.954   4.544 -0.0000 -0.8526 -0.5813
  126CHL1   C2415572   4.565   5.877   4.523 -0.1479  0.1266  0.8994
  126CHL1  H24A15573   4.540   5.775   4.487 -0.4488  0.9672 -1.5084
  126CHL1  H24B15574   4.639   5.905   4.444 -0.7648  2.2515  0.9968
  126CHL1   C2515575   4.623   5.884   4.670 -0.1725  0.4994 -0.0622
  126CHL1   H2515576   4.632   5.993   4.687  2.8068  0.1031  1.6314
  126CHL1   C2615577   4.522   5.817   4.760  0.1464 -0.3686 -0.2554
  126CHL1  H26A15578   4.556   5.819   4.866  1.5479  1.9998 -0.6747
  126CHL1  H26B15579   4.424   5.867   4.748  0.6044  0.7518  0.4836
  126CHL1  H26C15580   4.518   5.710   4.732 -1.2129 -0.0929 -1.1702
  126CHL1   C2715581   4.765   5.824   4.677 -0.4765  0.2181 -0.1275
  126CHL1  H27A15582   4.826   5.857   4.764 -1.1657  0.0278  0.4373
  126CHL1  H27B15583   4.753   5.714   4.685  1.0651  0.0792  0.6418
  126CHL1  H27C15584   4.821   5.854   4.585 -1.3436  0.8603 -0.4645
  127CHL1    C315585   4.380   6.152   3.385 -0.1468 -0.3948  0.0334
  127CHL1    H315586   4.447   6.236   3.414 -0.9956  0.8100 -1.3356
  127CHL1    O315587   4.301   6.212   3.281 -0.0886  0.0898 -0.1868
  127CHL1   H3'15588   4.208   6.198   3.301 -0.1354  0.2464 -0.2921
  127CHL1    C415589   4.439   6.017   3.343  0.3632  0.3157 -0.0064
  127CHL1   H4A15590   4.357   5.959   3.296  0.0961  0.5824  0.1302
  127CHL1   H4B15591   4.504   6.046   3.258 -0.3057 -1.6537 -1.2664
  127CHL1    C515592   4.507   5.938   3.447  0.5522  1.8405  0.8414
  127CHL1    C615593   4.623   5.870   3.424 -0.2927 -0.1567 -0.6664
  127CHL1    H615594   4.670   5.894   3.328  2.6326  4.0241  1.4790
  127CHL1    C715595   4.700   5.788   3.529  0.3792 -0.2733 -0.2748
  127CHL1   H7A15596   4.732   5.689   3.490  3.3151  0.8538 -1.0089
  127CHL1   H7B15597   4.795   5.844   3.541 -0.0043  0.3295 -0.0460
  127CHL1    C815598   4.621   5.770   3.662 -0.4391  0.4395  0.6017
  127CHL1    H815599   4.545   5.690   3.648 -0.7821  0.6735  1.0851
  127CHL1   C1415600   4.719   5.743   3.774  0.1589 -0.6179  0.3439
  127CHL1   H1415601   4.785   5.831   3.787 -0.1239 -0.3446 -0.0418
  127CHL1   C1515602   4.814   5.632   3.764 -0.6043  0.7076  0.0537
  127CHL1  H15A15603   4.771   5.545   3.711 -0.8917  1.7414 -1.4460
  127CHL1  H15B15604   4.913   5.665   3.724 -0.4814  1.1655  0.7076
  127CHL1   C1615605   4.841   5.585   3.907  0.4724  0.9063 -0.2931
  127CHL1  H16A15606   4.801   5.483   3.926  0.5896  0.7969 -0.6278
  127CHL1  H16B15607   4.951   5.569   3.918  0.3955 -0.6636 -1.3806
  127CHL1   C1715608   4.767   5.689   4.005 -0.1955 -0.1417  0.2111
  127CHL1   H1715609   4.831   5.779   4.009 -0.7378  0.2243  0.8389
  127CHL1   C1315610   4.654   5.719   3.910  0.6826  0.6107  1.0969
  127CHL1   C1815611   4.552   5.595   3.903 -0.7997 -0.6151 -0.2908
  127CHL1  H18A15612   4.486   5.590   3.814  0.4273 -1.4429 -1.2036
  127CHL1  H18B15613   4.608   5.499   3.905  1.1586  0.4707 -0.4135
  127CHL1  H18C15614   4.488   5.584   3.992  0.4991 -1.0910  0.6132
  127CHL1   C1215615   4.565   5.845   3.945 -0.4526  0.4576  0.5381
  127CHL1  H12A15616   4.516   5.806   4.036  0.3315  0.3567  0.9304
  127CHL1  H12B15617   4.632   5.932   3.966  2.0643 -0.8101 -1.6349
  127CHL1   C1115618   4.465   5.874   3.833  0.3470 -0.1873 -0.0234
  127CHL1  H11A15619   4.394   5.789   3.825  2.4804 -2.0498 -0.1304
  127CHL1  H11B15620   4.412   5.966   3.866  0.4948 -0.4732  1.0547
  127CHL1    C915621   4.535   5.889   3.696 -0.1896  0.9204 -0.4792
  127CHL1    H915622   4.595   5.982   3.707 -0.0356  0.5512  2.3476
  127CHL1   C1015623   4.437   5.929   3.584 -0.1653  0.5749  0.0198
  127CHL1   C1915624   4.327   5.819   3.572  0.0315 -0.0091 -0.2163
  127CHL1  H19A15625   4.261   5.847   3.487 -1.6060  0.9586  1.3124
  127CHL1  H19B15626   4.360   5.712   3.571  0.8510  0.1970  1.5277
  127CHL1  H19C15627   4.267   5.819   3.665  1.6703  0.0885  0.8913
  127CHL1    C115628   4.380   6.070   3.621  0.2298 -0.0461 -0.6745
  127CHL1   H1A15629   4.314   6.075   3.710 -1.0121 -0.8729 -1.5305
  127CHL1   H1B15630   4.458   6.149   3.632 -0.2431  0.3303  0.0723
  127CHL1    C215631   4.283   6.127   3.506 -0.6764  0.0321  0.0723
  127CHL1   H2A15632   4.241   6.227   3.533  1.5531  1.0972 -0.1404
  127CHL1   H2B15633   4.199   6.063   3.472 -2.0964  2.3177 -1.0420
  127CHL1   C2015634   4.739   5.652   4.150 -0.3535  0.0129  0.2621
  127CHL1   H2015635   4.649   5.586   4.156 -0.0107 -0.6730 -1.4614
  127CHL1   C2115636   4.730   5.773   4.233 -0.2086 -0.3793 -0.2799
  127CHL1  H21A15637   4.706   5.754   4.340  1.1536  0.9806  0.3190
  127CHL1  H21B15638   4.640   5.828   4.198  1.2328  1.5873 -1.1284
  127CHL1  H21C15639   4.822   5.836   4.232 -0.5417  0.3663  3.0703
  127CHL1   C2215640   4.859   5.564   4.209 -0.1495 -0.5164  0.3548
  127CHL1  H22A15641   4.881   5.473   4.150 -1.5796 -1.6575  1.5066
  127CHL1  H22B15642   4.937   5.642   4.219 -1.7228  1.1603  0.1250
  127CHL1   C2315643   4.825   5.507   4.348 -0.6058 -0.6108 -0.5934
  127CHL1  H23A15644   4.779   5.586   4.410 -1.1582 -2.5275  1.5687
  127CHL1  H23B15645   4.741   5.434   4.347 -0.1443 -1.3224  2.3426
  127CHL1   C2415646   4.945   5.442   4.419  0.0310  0.4083  0.1274
  127CHL1  H24A15647   4.973   5.345   4.372 -0.1129  1.2319 -1.7580
  127CHL1  H24B15648   5.036   5.505   4.402 -0.6718  1.1176 -1.2138
  127CHL1   C2515649   4.925   5.418   4.568 -0.7569 -0.3097  0.0544
  127CHL1   H2515650   4.911   5.519   4.613  1.0314  0.3568 -0.7932
  127CHL1   C2615651   4.793   5.339   4.590  0.4883  0.5857 -0.6815
  127CHL1  H26A15652   4.707   5.410   4.585  0.9044  1.0961 -0.7016
  127CHL1  H26B15653   4.785   5.267   4.506  2.2050  2.2781 -2.4179
  127CHL1  H26C15654   4.789   5.308   4.697 -1.0713  0.5791 -0.7215
  127CHL1   C2715655   5.050   5.350   4.631 -0.1076 -0.2674  0.7743
  127CHL1  H27A15656   5.134   5.419   4.609 -0.3205 -0.7848 -2.0637
  127CHL1  H27B15657   5.035   5.325   4.738 -0.6396 -0.7317  0.5930
  127CHL1  H27C15658   5.079   5.254   4.585 -2.0026 -0.5229  0.0262
  128CHL1    C315659   1.635   1.703   3.041  0.4529  0.1004  0.3449
  128CHL1    H315660   1.701   1.792   3.036 -0.2399  0.7449  1.8814
  128CHL1    O315661   1.595   1.650   2.915 -0.0765  0.0957  0.4743
  128CHL1   H3'15662   1.504   1.624   2.928 -0.3151  1.4053  1.6547
  128CHL1    C415663   1.685   1.590   3.117  0.6158  0.4879 -0.6110
  128CHL1   H4A15664   1.614   1.506   3.103 -0.0865  1.4226 -3.1693
  128CHL1   H4B15665   1.780   1.553   3.072  0.1565 -0.3095 -0.9563
  128CHL1    C515666   1.701   1.607   3.267  0.9955 -0.0953  0.6043
  128CHL1    C615667   1.812   1.569   3.333  0.0043 -0.3655 -0.7109
  128CHL1    H615668   1.903   1.530   3.285  1.3699 -0.2306  1.5886
  128CHL1    C715669   1.835   1.598   3.477 -0.1731  0.0236 -0.3700
  128CHL1   H7A15670   1.888   1.514   3.528  2.3360  0.9277 -1.3117
  128CHL1   H7B15671   1.908   1.681   3.491  0.5551 -0.8191  1.1201
  128CHL1    C815672   1.705   1.627   3.559  0.5680 -0.8838 -0.3925
  128CHL1    H815673   1.648   1.532   3.564 -1.9006  0.4854 -0.5695
  128CHL1   C1415674   1.746   1.686   3.696 -0.5685 -0.0842 -0.1151
  128CHL1   H1415675   1.794   1.785   3.678  0.3476  0.0575  2.6455
  128CHL1   C1515676   1.856   1.612   3.784 -0.4197  0.3961 -0.0276
  128CHL1  H15A15677   1.823   1.506   3.780 -1.2458  0.6316  0.3010
  128CHL1  H15B15678   1.955   1.604   3.736 -0.6002 -2.5628 -0.1055
  128CHL1   C1615679   1.850   1.691   3.917  0.3494  0.6317 -0.3820
  128CHL1  H16A15680   1.877   1.625   4.002  0.3465 -0.2795 -1.0736
  128CHL1  H16B15681   1.932   1.764   3.901  2.8184 -0.9396  3.6103
  128CHL1   C1715682   1.715   1.771   3.913 -0.0344  0.0589 -0.2206
  128CHL1   H1715683   1.750   1.874   3.888  2.2333 -0.7761 -0.6949
  128CHL1   C1315684   1.634   1.724   3.792 -0.7877  0.9997 -0.2281
  128CHL1   C1815685   1.557   1.593   3.834 -0.0519 -0.9332 -0.3682
  128CHL1  H18A15686   1.623   1.518   3.883  0.7806 -0.8135 -1.2778
  128CHL1  H18B15687   1.484   1.622   3.913 -0.0860  1.5858 -1.2257
  128CHL1  H18C15688   1.516   1.539   3.746  2.6377 -1.9371 -1.0973
  128CHL1   C1215689   1.539   1.820   3.717 -0.6985 -0.3328  0.4432
  128CHL1  H12A15690   1.445   1.829   3.774  0.0611  2.3601  1.4260
  128CHL1  H12B15691   1.587   1.920   3.727  1.3323 -1.4257  2.3338
  128CHL1   C1115692   1.498   1.775   3.572  0.8466  0.8094  0.5996
  128CHL1  H11A15693   1.429   1.688   3.581  2.7598 -0.7829  0.8015
  128CHL1  H11B15694   1.437   1.853   3.521 -1.4319 -1.8394 -1.0236
  128CHL1    C915695   1.615   1.728   3.476  0.0104  0.6186 -0.2771
  128CHL1    H915696   1.681   1.817   3.468  0.4154  0.2336 -1.5236
  128CHL1   C1015697   1.578   1.670   3.337  0.0517 -0.2989  0.2359
  128CHL1   C1915698   1.470   1.563   3.339 -0.1301 -0.0058 -0.1852
  128CHL1  H19A15699   1.444   1.516   3.242 -1.2135 -0.8459  0.4863
  128CHL1  H19B15700   1.494   1.491   3.420 -1.4427  1.0073  1.1560
  128CHL1  H19C15701   1.374   1.611   3.365  0.7392  1.4249  0.5168
  128CHL1    C115702   1.533   1.790   3.253 -0.0802  0.5062  0.2728
  128CHL1   H1A15703   1.455   1.852   3.302  2.0705  2.7999  1.0092
  128CHL1   H1B15704   1.616   1.864   3.257  0.6607 -0.2856 -0.2187
  128CHL1    C215705   1.506   1.765   3.105 -0.3989  0.5289 -0.7169
  128CHL1   H2A15706   1.478   1.855   3.045  1.5483  1.3047 -0.5259
  128CHL1   H2B15707   1.420   1.695   3.097 -0.3562  0.6749 -3.6252
  128CHL1   C2015708   1.651   1.783   4.052 -0.0557  0.4176  0.8747
  128CHL1   H2015709   1.624   1.682   4.091  0.6230  0.9874  2.9831
  128CHL1   C2115710   1.527   1.875   4.042 -0.0836 -0.4946 -0.7296
  128CHL1  H21A15711   1.498   1.918   4.140  0.6673  0.5348 -0.9331
  128CHL1  H21B15712   1.431   1.830   4.012 -1.2946  2.2571 -1.3586
  128CHL1  H21C15713   1.551   1.967   3.983  1.3406  0.7238  1.5883
  128CHL1   C2215714   1.753   1.838   4.163  0.0114 -0.1839  0.3709
  128CHL1  H22A15715   1.849   1.781   4.158 -0.1760 -0.4840  0.1590
  128CHL1  H22B15716   1.771   1.944   4.137  1.2546 -0.6956 -0.9797
  128CHL1   C2315717   1.708   1.822   4.310 -0.0407  0.7763  1.0535
  128CHL1  H23A15718   1.611   1.875   4.326  0.3805  0.9912  3.3816
  128CHL1  H23B15719   1.687   1.713   4.319 -1.4184  1.0251  1.0369
  128CHL1   C2415720   1.791   1.879   4.426  0.0940  0.4782  0.0081
  128CHL1  H24A15721   1.889   1.827   4.430 -0.2500 -0.1175  1.7790
  128CHL1  H24B15722   1.807   1.988   4.414  1.1992  0.2045 -1.2532
  128CHL1   C2515723   1.727   1.848   4.568 -0.6411  0.2386 -0.1977
  128CHL1   H2515724   1.625   1.891   4.563 -0.7838  0.4615  3.0805
  128CHL1   C2615725   1.719   1.697   4.590 -0.4719  0.0379  0.1256
  128CHL1  H26A15726   1.820   1.653   4.576 -0.2635  0.7955 -0.9305
  128CHL1  H26B15727   1.680   1.662   4.688  2.2116 -0.2541  1.1758
  128CHL1  H26C15728   1.660   1.646   4.510  2.1852 -0.2577 -1.7820
  128CHL1   C2715729   1.812   1.910   4.673 -0.2803 -0.0670 -0.5597
  128CHL1  H27A15730   1.910   1.857   4.680  0.4718  1.0563 -1.9791
  128CHL1  H27B15731   1.838   2.010   4.633  0.6628 -0.2590 -0.4578
  128CHL1  H27C15732   1.758   1.933   4.767 -2.7397  1.0478 -2.1458
  129CHL1    C315733   6.303   7.278   3.399  1.3737  0.1071 -0.0699
  129CHL1    H315734   6.229   7.195   3.397  0.9876  0.4172  0.9668
  129CHL1    O315735   6.347   7.318   3.267  0.3002  0.1069 -0.3331
  129CHL1   H3'15736   6.314   7.408   3.267 -1.6180 -0.5454 -0.2004
  129CHL1    C415737   6.251   7.393   3.480 -0.2343 -0.2001 -0.4033
  129CHL1   H4A15738   6.328   7.473   3.482 -1.1286  0.7199  1.9309
  129CHL1   H4B15739   6.157   7.435   3.439 -0.4283  2.6236  2.5360
  129CHL1    C515740   6.236   7.370   3.627 -0.0174  0.2774 -1.0760
  129CHL1    C615741   6.123   7.387   3.694  0.7270  0.1038  0.4453
  129CHL1    H615742   6.028   7.421   3.650  1.0266  1.0349  0.5041
  129CHL1    C715743   6.098   7.357   3.839  0.2533 -0.4411  0.4283
  129CHL1   H7A15744   6.035   7.432   3.891  0.6703 -0.6196  1.1931
  129CHL1   H7B15745   6.037   7.264   3.844 -0.3962 -0.0203  0.5444
  129CHL1    C815746   6.229   7.321   3.912 -0.4622 -0.7402 -0.2410
  129CHL1    H815747   6.271   7.422   3.930 -3.0588  0.3085  0.5009
  129CHL1   C1415748   6.206   7.248   4.044 -0.4524 -0.1337  0.4237
  129CHL1   H1415749   6.159   7.154   4.009  0.3555 -0.0556 -0.9539
  129CHL1   C1515750   6.102   7.304   4.146  0.9948  0.1271 -0.0286
  129CHL1  H15A15751   6.121   7.413   4.161 -1.6151  0.5760  0.4959
  129CHL1  H15B15752   5.997   7.296   4.109  0.6696  0.6668  0.7380
  129CHL1   C1615753   6.134   7.238   4.282 -0.0332 -0.3023 -0.6679
  129CHL1  H16A15754   6.153   7.321   4.353 -2.1761  1.1812 -1.7189
  129CHL1  H16B15755   6.048   7.180   4.324  0.4363  1.5261  3.2664
  129CHL1   C1715756   6.262   7.157   4.243  0.8492 -0.0589 -0.1615
  129CHL1   H1715757   6.220   7.069   4.190 -0.2476  1.0783 -1.2193
  129CHL1   C1315758   6.334   7.221   4.126 -0.1141  0.0227  0.1575
  129CHL1   C1815759   6.402   7.355   4.155 -0.8165 -0.2230  0.5413
  129CHL1  H18A15760   6.438   7.415   4.069  1.3938  0.3317  1.7694
  129CHL1  H18B15761   6.336   7.422   4.214 -0.0881  2.1847 -1.2072
  129CHL1  H18C15762   6.495   7.332   4.212 -0.3374  0.6498  0.1286
  129CHL1   C1215763   6.427   7.128   4.058  0.2045  0.0648  0.5693
  129CHL1  H12A15764   6.517   7.109   4.119  0.9886 -4.6377 -1.5934
  129CHL1  H12B15765   6.379   7.028   4.045  1.4882 -0.4288 -0.5489
  129CHL1   C1115766   6.447   7.178   3.910 -0.2493 -0.4806  0.3130
  129CHL1  H11A15767   6.523   7.259   3.920  0.4600 -1.1608  0.5267
  129CHL1  H11B15768   6.493   7.097   3.850  0.6346  0.7322 -0.7297
  129CHL1    C915769   6.322   7.228   3.828  0.2572 -0.6716 -0.5610
  129CHL1    H915770   6.256   7.141   3.806  0.8330 -1.1000 -0.6119
  129CHL1   C1015771   6.359   7.294   3.694 -0.1303 -0.2074  0.0151
  129CHL1   C1915772   6.459   7.408   3.701  0.3322 -0.2853  0.2230
  129CHL1  H19A15773   6.555   7.366   3.737  1.0572  1.6905  0.7009
  129CHL1  H19B15774   6.487   7.455   3.604 -2.9872  1.9527  0.2009
  129CHL1  H19C15775   6.435   7.479   3.783  1.0538 -0.8687  0.9504
  129CHL1    C115776   6.415   7.185   3.604 -0.6033  0.6186  0.2998
  129CHL1   H1A15777   6.518   7.165   3.639 -1.1243  0.8612  2.0441
  129CHL1   H1B15778   6.348   7.096   3.610 -1.6039  1.0891 -2.4089
  129CHL1    C215779   6.435   7.226   3.462 -0.1128 -0.2029  0.6713
  129CHL1   H2A15780   6.471   7.139   3.403  1.9583  0.1323  1.3807
  129CHL1   H2B15781   6.505   7.311   3.450 -0.0936 -0.5859 -3.6526
  129CHL1   C2015782   6.335   7.114   4.370 -0.2710  0.6605 -0.3450
  129CHL1   H2015783   6.427   7.061   4.337 -2.2155 -3.2975 -0.0169
  129CHL1   C2115784   6.249   7.003   4.445  0.3373  0.0969 -0.0173
  129CHL1  H21A15785   6.222   6.933   4.363 -1.2389  1.5605 -0.8084
  129CHL1  H21B15786   6.161   7.062   4.478  0.7651  1.5623 -1.3482
  129CHL1  H21C15787   6.296   6.954   4.533 -0.0006  0.8221  0.5783
  129CHL1   C2215788   6.388   7.226   4.475 -0.0165  0.2119 -0.4981
  129CHL1  H22A15789   6.435   7.301   4.407  1.8218  0.3137  0.8182
  129CHL1  H22B15790   6.299   7.273   4.521 -0.1303  1.1266 -1.5890
  129CHL1   C2315791   6.485   7.172   4.579  0.0619 -0.2246  0.2047
  129CHL1  H23A15792   6.454   7.075   4.623 -3.8015  1.5323  1.8350
  129CHL1  H23B15793   6.581   7.155   4.525  0.4630  0.0902  0.8062
  129CHL1   C2415794   6.524   7.269   4.690  0.0578 -0.1463  0.3047
  129CHL1  H24A15795   6.609   7.217   4.740  0.1342 -1.8776 -1.4688
  129CHL1  H24B15796   6.547   7.366   4.642 -1.0467  0.3150  0.6815
  129CHL1   C2515797   6.424   7.284   4.807 -0.1477  0.4487 -0.3288
  129CHL1   H2515798   6.326   7.305   4.760 -0.1207 -0.3345 -0.7520
  129CHL1   C2615799   6.398   7.160   4.890  0.5471  0.4111 -0.3802
  129CHL1  H26A15800   6.376   7.188   4.995  1.1073 -1.0378  0.1539
  129CHL1  H26B15801   6.308   7.105   4.856  0.2692 -0.1029  1.1137
  129CHL1  H26C15802   6.493   7.103   4.900  0.1652 -0.1120  0.3585
  129CHL1   C2715803   6.461   7.405   4.892 -0.2694  0.0742 -0.7383
  129CHL1  H27A15804   6.390   7.420   4.976 -1.1985 -1.8810 -1.1403
  129CHL1  H27B15805   6.564   7.405   4.935 -0.4599  2.7489 -0.0531
  129CHL1  H27C15806   6.455   7.500   4.834 -1.4612 -0.0135 -0.7830
  130CHL1    C315807   3.109   6.666   3.286 -0.1969  0.0766  0.0971
  130CHL1    H315808   3.192   6.594   3.303  0.6758  1.0668  0.1707
  130CHL1    O315809   3.097   6.694   3.146  0.1469  0.1300 -0.2196
  130CHL1   H3'15810   3.011   6.736   3.139  0.6110  1.0490 -0.6246
  130CHL1    C415811   2.988   6.610   3.346  1.0139 -0.5204  0.2581
  130CHL1   H4A15812   2.905   6.682   3.329  1.3417 -0.2648 -0.2712
  130CHL1   H4B15813   2.964   6.519   3.288 -1.4838  0.3568 -0.2088
  130CHL1    C515814   2.994   6.583   3.495  0.2530  0.5235 -0.1515
  130CHL1    C615815   2.976   6.457   3.542  0.4850  0.5550  0.2362
  130CHL1    H615816   2.962   6.365   3.483 -1.7338  0.2818  1.1003
  130CHL1    C715817   2.960   6.432   3.691 -0.3712 -0.0251  0.2427
  130CHL1   H7A15818   2.876   6.361   3.705 -0.3468  0.4833  3.9370
  130CHL1   H7B15819   3.046   6.374   3.732  0.2480  0.8653  0.2430
  130CHL1    C815820   2.952   6.564   3.782  0.0249  0.5080 -0.2157
  130CHL1    H815821   2.849   6.603   3.793  0.1065 -0.0709  4.4859
  130CHL1   C1415822   2.992   6.531   3.919  0.2956  0.1614  0.3385
  130CHL1   H1415823   3.094   6.488   3.903  1.4146  2.1818  1.6426
  130CHL1   C1515824   2.928   6.416   3.991  0.1884  0.0468 -0.0366
  130CHL1  H15A15825   2.819   6.433   3.985 -0.0266  0.0045  2.7764
  130CHL1  H15B15826   2.940   6.313   3.950 -0.2095  0.7470 -2.0404
  130CHL1   C1615827   2.963   6.433   4.134 -0.0698  0.8556  0.3971
  130CHL1  H16A15828   2.873   6.450   4.197 -1.6754 -1.9746 -0.9336
  130CHL1  H16B15829   3.021   6.348   4.177 -1.7137  0.5741  2.2097
  130CHL1   C1715830   3.054   6.563   4.141  0.8733 -0.3518 -0.3667
  130CHL1   H1715831   3.157   6.530   4.116  0.5997 -1.1894 -0.4230
  130CHL1   C1315832   3.000   6.642   4.021 -0.5576  0.4716 -0.2208
  130CHL1   C1815833   2.861   6.697   4.055 -0.2414 -0.5733  0.3231
  130CHL1  H18A15834   2.793   6.686   3.967  1.0164 -1.2502 -0.6183
  130CHL1  H18B15835   2.810   6.653   4.143  1.2550 -1.0628  0.9873
  130CHL1  H18C15836   2.869   6.806   4.073 -1.0639 -0.3000 -0.8518
  130CHL1   C1215837   3.088   6.747   3.963  0.1525  0.2518  0.0391
  130CHL1  H12A15838   3.081   6.840   4.024 -1.0470 -0.0496  0.4028
  130CHL1  H12B15839   3.189   6.702   3.963  1.1678  2.2661  2.6639
  130CHL1   C1115840   3.049   6.788   3.821  0.3015 -0.0875 -1.0986
  130CHL1  H11A15841   2.948   6.833   3.828  0.1192 -0.7303  1.7965
  130CHL1  H11B15842   3.115   6.859   3.767 -1.2034  0.7009 -1.9751
  130CHL1    C915843   3.046   6.669   3.728  0.1843 -0.0797  0.3513
  130CHL1    H915844   3.149   6.629   3.743  0.0775  0.3930  2.6888
  130CHL1   C1015845   3.019   6.699   3.575 -0.0276 -0.4013 -0.0672
  130CHL1   C1915846   2.898   6.788   3.572 -0.9348  0.9592  0.8855
  130CHL1  H19A15847   2.898   6.876   3.641  0.2551  1.3469  0.4127
  130CHL1  H19B15848   2.874   6.832   3.473 -0.4472 -0.3649  0.1598
  130CHL1  H19C15849   2.807   6.726   3.588  0.4921 -1.3112  0.5353
  130CHL1    C115850   3.146   6.766   3.515  1.1604 -0.1384  0.5071
  130CHL1   H1A15851   3.157   6.864   3.566 -1.4384  1.5145 -1.8049
  130CHL1   H1B15852   3.240   6.707   3.521  1.5237  0.1442 -1.6873
  130CHL1    C215853   3.140   6.796   3.363  0.0593 -0.6943 -0.4659
  130CHL1   H2A15854   3.237   6.837   3.326 -0.3439  1.2152  0.4951
  130CHL1   H2B15855   3.056   6.867   3.346 -0.3633 -0.6333  1.6234
  130CHL1   C2015856   3.057   6.629   4.280  0.4177  0.6434  0.2214
  130CHL1   H2015857   2.952   6.657   4.306  0.0477 -0.1997 -0.3111
  130CHL1   C2115858   3.122   6.772   4.281  0.2571  0.2098 -0.5904
  130CHL1  H21A15859   3.228   6.768   4.246  0.1843  0.4084 -0.8329
  130CHL1  H21B15860   3.121   6.810   4.386  0.5307  0.7499 -0.7792
  130CHL1  H21C15861   3.066   6.850   4.226  2.5110  1.7840 -0.8084
  130CHL1   C2215862   3.108   6.535   4.395  0.2930 -1.2937 -0.2464
  130CHL1  H22A15863   3.041   6.448   4.413 -3.1384  1.0981 -0.5089
  130CHL1  H22B15864   3.207   6.495   4.367  2.0557 -1.1057  4.7537
  130CHL1   C2315865   3.127   6.592   4.538 -0.1498  0.5564 -0.0273
  130CHL1  H23A15866   3.194   6.527   4.598  0.1423  0.5461 -0.3661
  130CHL1  H23B15867   3.172   6.693   4.532  0.6569  0.1278 -1.8910
  130CHL1   C2415868   2.989   6.598   4.612 -0.5049  0.2452  0.5257
  130CHL1  H24A15869   2.907   6.644   4.553 -1.3086  0.1704  1.5708
  130CHL1  H24B15870   2.970   6.493   4.640 -1.0451  0.4845  1.0699
  130CHL1   C2515871   2.991   6.665   4.748  0.0541 -0.2411 -0.2051
  130CHL1   H2515872   3.057   6.753   4.735  0.0502 -0.3576 -1.0425
  130CHL1   C2615873   2.853   6.698   4.806 -0.1478  0.7262 -0.0533
  130CHL1  H26A15874   2.802   6.601   4.827  1.0460  0.5373  2.3356
  130CHL1  H26B15875   2.851   6.755   4.901  1.4751  2.0572 -0.7740
  130CHL1  H26C15876   2.782   6.754   4.740 -1.5099  0.9272  1.5093
  130CHL1   C2715877   3.062   6.581   4.860  0.3705  0.2737  0.4486
  130CHL1  H27A15878   3.070   6.630   4.959  0.0532  0.5349  0.3454
  130CHL1  H27B15879   3.006   6.485   4.864  0.0179  0.2755 -2.6273
  130CHL1  H27C15880   3.165   6.551   4.831  0.8201 -0.5605  2.7079
  131CHL1    C315881   3.191   5.867   3.633  0.2279 -0.0561  0.1049
  131CHL1    H315882   3.098   5.894   3.688  1.5007  0.3705  2.1272
  131CHL1    O315883   3.153   5.813   3.511  0.0797 -0.1260  0.0312
  131CHL1   H3'15884   3.239   5.791   3.474  0.0426 -0.1216 -0.0578
  131CHL1    C415885   3.277   5.993   3.618  0.4595 -0.8185 -0.1504
  131CHL1   H4A15886   3.362   5.968   3.551  0.3645 -0.0566 -0.5608
  131CHL1   H4B15887   3.219   6.069   3.562 -0.2664 -2.0136 -1.0701
  131CHL1    C515888   3.323   6.043   3.760  0.2383 -0.1227  0.6862
  131CHL1    C615889   3.300   6.167   3.810  1.0511 -0.2828  0.3201
  131CHL1    H615890   3.253   6.238   3.741 -0.0540 -0.4819  0.8446
  131CHL1    C715891   3.323   6.213   3.945  0.5755 -0.2997  0.1567
  131CHL1   H7A15892   3.365   6.315   3.955 -0.8702  0.4173 -0.7315
  131CHL1   H7B15893   3.224   6.214   3.995 -0.2437 -0.4478 -1.3995
  131CHL1    C815894   3.411   6.123   4.033  0.0827  0.7348 -0.8459
  131CHL1    H815895   3.516   6.131   3.998  0.5451 -0.9200  0.0595
  131CHL1   C1415896   3.405   6.149   4.180  0.4272 -0.3651 -0.0054
  131CHL1   H1415897   3.298   6.129   4.204 -0.2412  0.7364 -1.8589
  131CHL1   C1515898   3.419   6.294   4.221  0.2950 -1.1641  0.4960
  131CHL1  H15A15899   3.486   6.349   4.151  0.2734 -0.8815  0.6950
  131CHL1  H15B15900   3.319   6.340   4.219  0.6970 -0.0880  2.5197
  131CHL1   C1615901   3.466   6.291   4.369 -0.7273 -0.3770  0.4644
  131CHL1  H16A15902   3.557   6.352   4.384 -1.2761  0.3660  0.8524
  131CHL1  H16B15903   3.385   6.325   4.437  0.4164 -1.7751  2.6459
  131CHL1   C1715904   3.489   6.150   4.409 -0.7027  0.6654 -0.3710
  131CHL1   H1715905   3.393   6.112   4.451 -1.2441  0.6837 -1.5363
  131CHL1   C1315906   3.492   6.069   4.272 -0.1814 -0.0387 -0.5531
  131CHL1   C1815907   3.639   6.082   4.220 -0.0031  0.3171 -0.3618
  131CHL1  H18A15908   3.713   6.015   4.270  0.8846  2.4705  1.4081
  131CHL1  H18B15909   3.648   6.060   4.112  2.6356 -1.1998  0.0709
  131CHL1  H18C15910   3.680   6.185   4.233  1.2344 -0.3487  1.5440
  131CHL1   C1215911   3.428   5.927   4.254 -0.0327  0.0175  0.2992
  131CHL1  H12A15912   3.477   5.850   4.317  1.0836 -0.9845 -1.7304
  131CHL1  H12B15913   3.321   5.938   4.284 -0.0383  0.9729 -0.0278
  131CHL1   C1115914   3.431   5.879   4.109 -0.2500  1.0657 -0.4190
  131CHL1  H11A15915   3.533   5.845   4.083 -1.2779 -2.6287 -0.2800
  131CHL1  H11B15916   3.369   5.787   4.102  1.7265 -0.4684  0.9651
  131CHL1    C915917   3.365   5.975   4.013 -0.4739  0.2054  0.2011
  131CHL1    H915918   3.258   5.964   4.038 -0.4620  2.5839  1.5875
  131CHL1   C1015919   3.376   5.929   3.862 -0.3263  0.1695  0.4306
  131CHL1   C1915920   3.526   5.905   3.828  0.3719  0.1284  0.0348
  131CHL1  H19A15921   3.544   5.870   3.725  1.3115 -0.0885  0.2605
  131CHL1  H19B15922   3.585   5.998   3.844  2.7530 -1.0479 -1.5145
  131CHL1  H19C15923   3.559   5.827   3.900  1.4615  0.6474  0.1230
  131CHL1    C115924   3.302   5.790   3.845 -0.3903 -0.4770  0.2106
  131CHL1   H1A15925   3.360   5.706   3.890  1.9463  1.1578  0.4335
  131CHL1   H1B15926   3.206   5.794   3.900 -0.2870  1.6780  0.3089
  131CHL1    C215927   3.271   5.755   3.700  0.1798  0.4735 -0.1771
  131CHL1   H2A15928   3.202   5.668   3.709  2.6990 -1.5033  1.5211
  131CHL1   H2B15929   3.362   5.721   3.647 -0.8635  0.1442 -1.8301
  131CHL1   C2015930   3.608   6.119   4.507  0.2852  0.2884  0.1769
  131CHL1   H2015931   3.707   6.142   4.462  0.5204  2.3923  1.6120
  131CHL1   C2115932   3.586   5.967   4.543  0.7183  0.1259 -0.3376
  131CHL1  H21A15933   3.648   5.937   4.630 -0.1303 -1.8751 -0.3825
  131CHL1  H21B15934   3.621   5.907   4.456 -0.2675 -0.8577 -0.0688
  131CHL1  H21C15935   3.478   5.954   4.562  0.6551  0.7468 -0.2292
  131CHL1   C2215936   3.600   6.216   4.630 -0.1029  0.0683 -0.3855
  131CHL1  H22A15937   3.616   6.321   4.599  1.2526 -0.2268 -0.7487
  131CHL1  H22B15938   3.493   6.208   4.660 -0.7113  2.8085 -1.5196
  131CHL1   C2315939   3.700   6.196   4.740 -0.7642  0.4119  0.1013
  131CHL1  H23A15940   3.686   6.092   4.775 -1.6019  0.4346 -0.1268
  131CHL1  H23B15941   3.802   6.201   4.697 -0.6507  0.6155  0.3970
  131CHL1   C2415942   3.674   6.292   4.850 -0.5894 -0.3807  0.2943
  131CHL1  H24A15943   3.690   6.395   4.812 -3.6331 -0.6197 -2.0537
  131CHL1  H24B15944   3.568   6.291   4.885 -0.8641 -0.2897 -0.5096
  131CHL1   C2515945   3.777   6.270   4.963  0.1348 -0.3042  0.6439
  131CHL1   H2515946   3.877   6.262   4.914  0.2284  0.0057  0.7828
  131CHL1   C2615947   3.775   6.385   5.059  0.2414  0.0181 -0.2582
  131CHL1  H26A15948   3.757   6.486   5.015  2.5607  0.5071 -0.1810
  131CHL1  H26B15949   3.704   6.361   5.141  0.1511  0.1719 -0.2903
  131CHL1  H26C15950   3.880   6.385   5.093  0.0536  1.6183  0.4164
  131CHL1   C2715951   3.758   6.136   5.032  0.1097  0.1835 -0.3262
  131CHL1  H27A15952   3.753   6.049   4.962  1.8020 -0.4006  0.2396
  131CHL1  H27B15953   3.833   6.105   5.108 -0.8427 -0.2357  0.4766
  131CHL1  H27C15954   3.668   6.132   5.098  1.4243 -0.5293  1.4967
  132CHL1    C315955   4.509   0.511   3.055 -0.1711 -0.3928  0.3454
  132CHL1    H315956   4.616   0.521   3.082 -0.0514  0.4163 -0.4042
  132CHL1    O315957   4.494   0.527   2.914 -0.2492  0.6840 -0.2019
  132CHL1   H3'15958   4.540   0.453   2.872  0.2575 -0.0015  1.4575
  132CHL1    C415959   4.461   0.373   3.093 -0.1275  0.2603 -1.0834
  132CHL1   H4A15960   4.358   0.377   3.052 -0.0252 -0.2399 -1.4011
  132CHL1   H4B15961   4.525   0.300   3.038 -0.4798  0.2954 -1.5478
  132CHL1    C515962   4.466   0.344   3.249  0.2891 -0.0347  0.2132
  132CHL1    C615963   4.542   0.251   3.312  0.3335 -0.6212  0.0275
  132CHL1    H615964   4.610   0.191   3.250  0.3571 -2.3393  1.6457
  132CHL1    C715965   4.552   0.219   3.456  0.1001  0.3179  0.5898
  132CHL1   H7A15966   4.515   0.117   3.477  1.7039 -0.4493 -0.1341
  132CHL1   H7B15967   4.654   0.224   3.500  0.3539  0.6590 -0.0314
  132CHL1    C815968   4.454   0.307   3.543  0.2970 -0.3768  0.3427
  132CHL1    H815969   4.355   0.260   3.525  1.2167 -2.4279  0.3778
  132CHL1   C1415970   4.487   0.310   3.690  0.1862  0.4286  0.2364
  132CHL1   H1415971   4.587   0.357   3.702  0.1551  0.6332 -0.3019
  132CHL1   C1515972   4.506   0.172   3.761 -0.2239 -0.4031  0.5226
  132CHL1  H15A15973   4.428   0.100   3.728 -0.4889  0.4152 -0.7001
  132CHL1  H15B15974   4.607   0.131   3.738 -0.7563 -0.2825 -2.5607
  132CHL1   C1615975   4.496   0.213   3.911 -0.0851  0.2811  0.4141
  132CHL1  H16A15976   4.419   0.148   3.958 -0.9693  0.4064 -0.8154
  132CHL1  H16B15977   4.596   0.203   3.959  0.1624 -0.3688 -0.2148
  132CHL1   C1715978   4.441   0.361   3.924  0.1392 -0.5505 -0.8044
  132CHL1   H1715979   4.526   0.430   3.940  2.2931 -2.9022 -1.4336
  132CHL1   C1315980   4.387   0.393   3.778  0.0849 -0.3296 -0.2871
  132CHL1   C1815981   4.243   0.332   3.755 -1.0429  0.3437  0.0234
  132CHL1  H18A15982   4.157   0.380   3.806 -2.7280 -1.0643 -1.3761
  132CHL1  H18B15983   4.216   0.329   3.647  0.9079  2.9068 -0.6372
  132CHL1  H18C15984   4.247   0.226   3.788 -1.5990  0.4756  0.5334
  132CHL1   C1215985   4.400   0.537   3.722 -0.3125 -0.6950 -0.0596
  132CHL1  H12A15986   4.326   0.596   3.781  0.4958  0.3916 -0.0995
  132CHL1  H12B15987   4.504   0.566   3.750  0.2907 -0.9684 -1.8836
  132CHL1   C1115988   4.371   0.550   3.573  0.0348 -1.1795  0.0488
  132CHL1  H11A15989   4.262   0.528   3.575 -0.9388  2.6169  3.7268
  132CHL1  H11B15990   4.378   0.651   3.529  1.3070 -1.4448 -0.4132
  132CHL1    C915991   4.444   0.455   3.485 -0.1954  0.2190  0.1392
  132CHL1    H915992   4.550   0.489   3.479 -0.5508  1.1765 -3.5523
  132CHL1   C1015993   4.394   0.449   3.338 -0.1869 -0.5396  0.3561
  132CHL1   C1915994   4.249   0.417   3.339  0.6979  0.2562  0.0838
  132CHL1  H19A15995   4.234   0.310   3.369  0.0649 -0.2506 -1.9086
  132CHL1  H19B15996   4.199   0.492   3.403  1.2643 -0.3519  1.2786
  132CHL1  H19C15997   4.217   0.431   3.234  0.6007  0.5381  0.1502
  132CHL1    C115998   4.425   0.596   3.277  0.0484  0.7070 -0.0065
  132CHL1   H1A15999   4.347   0.656   3.329 -0.0488  0.3181  0.2970
  132CHL1   H1B16000   4.524   0.632   3.313 -0.9542  0.6253  3.1123
  132CHL1    C216001   4.416   0.611   3.125  0.1401 -0.5436 -0.1859
  132CHL1   H2A16002   4.452   0.710   3.091  2.6759 -1.0732  0.7068
  132CHL1   H2B16003   4.309   0.600   3.096  0.1947  0.7286 -0.9333
  132CHL1   C2016004   4.352   0.377   4.045 -1.0502 -0.4121  0.2380
  132CHL1   H2016005   4.262   0.314   4.028 -0.1617 -2.2814  2.0379
  132CHL1   C2116006   4.298   0.522   4.040  0.2961  0.0606  0.2480
  132CHL1  H21A16007   4.380   0.594   4.018  0.3853 -0.8462 -2.8122
  132CHL1  H21B16008   4.242   0.542   4.134 -0.3482 -1.2134  0.1678
  132CHL1  H21C16009   4.227   0.542   3.957 -0.5491  0.2027  0.9895
  132CHL1   C2216010   4.412   0.332   4.175 -0.6169 -0.0546  0.3265
  132CHL1  H22A16011   4.332   0.331   4.252 -1.4458 -2.4735 -0.4820
  132CHL1  H22B16012   4.435   0.224   4.171  2.3110  0.4871  0.0673
  132CHL1   C2316013   4.539   0.408   4.211 -0.1030 -0.5392 -0.3313
  132CHL1  H23A16014   4.595   0.447   4.124 -1.4349 -0.5058 -1.2140
  132CHL1  H23B16015   4.511   0.497   4.272 -0.9229  0.6619 -2.3340
  132CHL1   C2416016   4.621   0.328   4.309 -0.2966  0.8757  0.0817
  132CHL1  H24A16017   4.560   0.303   4.399  2.2658 -0.5750  1.5316
  132CHL1  H24B16018   4.652   0.234   4.258 -1.7082  1.1179 -1.2829
  132CHL1   C2516019   4.747   0.397   4.369  0.6653 -0.1994  0.0654
  132CHL1   H2516020   4.719   0.501   4.396 -0.8555 -0.4491 -0.4704
  132CHL1   C2616021   4.784   0.322   4.498  0.2117 -0.7896 -0.1808
  132CHL1  H26A16022   4.878   0.372   4.529  0.3874 -0.7686 -0.7387
  132CHL1  H26B16023   4.720   0.338   4.588  2.0671 -0.5448  1.1435
  132CHL1  H26C16024   4.801   0.214   4.475  0.6560 -0.6092 -0.7123
  132CHL1   C2716025   4.865   0.393   4.270  1.0646 -0.5147 -0.2168
  132CHL1  H27A16026   4.914   0.295   4.289  2.6977  0.0833 -1.1330
  132CHL1  H27B16027   4.834   0.397   4.164  0.3625  0.6340  0.0154
  132CHL1  H27C16028   4.932   0.479   4.293 -1.6783  1.6947  0.0638
  133CHL1    C316029   1.717   0.974   3.231  0.1929 -0.4304  0.9854
  133CHL1    H316030   1.828   0.970   3.230  0.2180 -0.3059 -0.7472
  133CHL1    O316031   1.683   0.928   3.097 -0.2671  0.3667 -0.6410
  133CHL1   H3'16032   1.694   0.833   3.105  0.6252  0.6024  1.7430
  133CHL1    C416033   1.641   0.887   3.326  0.6174  0.0462 -0.5150
  133CHL1   H4A16034   1.533   0.906   3.309  0.3940  0.2226  0.9337
  133CHL1   H4B16035   1.671   0.783   3.299  0.3306  0.5924 -3.1789
  133CHL1    C516036   1.675   0.919   3.468  0.0308  0.0945  0.9353
  133CHL1    C616037   1.749   0.838   3.546  0.7646 -0.2121  0.5473
  133CHL1    H616038   1.770   0.737   3.506  2.7066  0.4855 -0.2868
  133CHL1    C716039   1.790   0.860   3.688  0.1234 -0.4080  0.3206
  133CHL1   H7A16040   1.782   0.770   3.752  0.0837  0.3261  1.3807
  133CHL1   H7B16041   1.896   0.894   3.678 -0.1231  0.0452 -0.9730
  133CHL1    C816042   1.705   0.975   3.753  0.0650 -0.3141  0.0281
  133CHL1    H816043   1.603   0.938   3.776 -0.1977  1.1311  1.3745
  133CHL1   C1416044   1.778   1.008   3.883  0.3249 -0.5101  0.4100
  133CHL1   H1416045   1.882   1.033   3.851 -0.1624  0.0258 -0.7978
  133CHL1   C1516046   1.801   0.888   3.986  0.4156 -0.0217 -0.3793
  133CHL1  H15A16047   1.714   0.821   4.002  0.8771 -0.2815  1.1864
  133CHL1  H15B16048   1.891   0.829   3.958  0.9187  0.4597  0.2023
  133CHL1   C1616049   1.832   0.969   4.109  0.3776 -0.0555 -0.0153
  133CHL1  H16A16050   1.770   0.939   4.197 -0.2330  0.8474 -0.1149
  133CHL1  H16B16051   1.934   0.957   4.151  0.3031  0.8001  0.4542
  133CHL1   C1716052   1.799   1.122   4.085 -0.3951 -0.1299 -0.3584
  133CHL1   H1716053   1.898   1.169   4.063  0.4866 -0.4741  2.4186
  133CHL1   C1316054   1.714   1.125   3.957 -0.0710  0.1760 -0.2833
  133CHL1   C1816055   1.566   1.096   4.000 -0.6658 -0.3063  0.7154
  133CHL1  H18A16056   1.518   1.183   4.051 -2.3022 -0.4814 -0.4466
  133CHL1  H18B16057   1.507   1.067   3.910  1.6421  0.2133 -1.0454
  133CHL1  H18C16058   1.562   1.015   4.076 -0.5862  0.3718  1.4532
  133CHL1   C1216059   1.718   1.249   3.871  0.1371 -1.0332  0.5529
  133CHL1  H12A16060   1.675   1.338   3.922  0.5266  0.3392 -1.3985
  133CHL1  H12B16061   1.824   1.265   3.845 -0.8750  2.8804 -2.0957
  133CHL1   C1116062   1.655   1.222   3.728  0.0741 -0.0638 -0.0190
  133CHL1  H11A16063   1.547   1.218   3.753 -0.4038 -0.5524 -1.9682
  133CHL1  H11B16064   1.677   1.311   3.666  0.4070 -1.2438 -1.6701
  133CHL1    C916065   1.704   1.096   3.656 -0.0224  0.0009  0.4523
  133CHL1    H916066   1.810   1.121   3.638 -0.5130  0.6982 -1.7112
  133CHL1   C1016067   1.642   1.061   3.517  0.0919 -0.3253 -0.5920
  133CHL1   C1916068   1.485   1.065   3.529 -0.0133  0.5721  0.4974
  133CHL1  H19A16069   1.446   0.988   3.599 -0.5912  1.4309  1.1361
  133CHL1  H19B16070   1.456   1.169   3.556  2.2880  1.6075 -0.6620
  133CHL1  H19C16071   1.437   1.044   3.431  0.1553  1.7464  0.1411
  133CHL1    C116072   1.697   1.163   3.410 -0.9628  0.1253  0.1448
  133CHL1   H1A16073   1.639   1.258   3.419  1.6511  1.9983 -1.4924
  133CHL1   H1B16074   1.806   1.173   3.424 -0.6746 -1.4201 -0.7964
  133CHL1    C216075   1.681   1.122   3.257 -0.9700  0.3031  0.1542
  133CHL1   H2A16076   1.750   1.191   3.205  0.3772 -1.0302  0.0812
  133CHL1   H2B16077   1.579   1.154   3.228 -0.1691  3.8833  0.8694
  133CHL1   C2016078   1.754   1.206   4.208  0.7900 -0.1865  0.5658
  133CHL1   H2016079   1.656   1.164   4.239  0.5488 -0.1203 -0.0937
  133CHL1   C2116080   1.720   1.351   4.179 -0.5775 -0.0832  0.1768
  133CHL1  H21A16081   1.801   1.387   4.112  0.8789  0.8947  2.3612
  133CHL1  H21B16082   1.726   1.414   4.270  0.0984 -2.0585  1.5436
  133CHL1  H21C16083   1.620   1.362   4.132 -0.8507  0.6349  0.9154
  133CHL1   C2216084   1.850   1.199   4.331  0.7361  0.4616 -0.3587
  133CHL1  H22A16085   1.808   1.259   4.415  1.7764 -0.5606  0.9549
  133CHL1  H22B16086   1.856   1.091   4.360 -1.3842 -0.0684 -1.7018
  133CHL1   C2316087   1.996   1.255   4.307  0.2388  0.4537  0.3873
  133CHL1  H23A16088   2.043   1.171   4.253  0.4975  1.5409 -1.1173
  133CHL1  H23B16089   2.001   1.344   4.241  2.2777 -0.1626 -0.3420
  133CHL1   C2416090   2.091   1.261   4.430  0.0354 -0.0928  0.6049
  133CHL1  H24A16091   2.094   1.162   4.481  1.3274 -0.0833  0.5933
  133CHL1  H24B16092   2.195   1.279   4.394 -0.7766  0.1270 -1.8001
  133CHL1   C2516093   2.054   1.365   4.535 -0.0155 -0.0593  0.2986
  133CHL1   H2516094   1.955   1.334   4.574 -0.0589  1.5590  1.5903
  133CHL1   C2616095   2.153   1.346   4.658 -0.1348 -0.4781  0.2138
  133CHL1  H26A16096   2.119   1.255   4.712 -1.5098  0.9347  1.8526
  133CHL1  H26B16097   2.256   1.341   4.616 -0.6857  0.7155 -1.3668
  133CHL1  H26C16098   2.145   1.432   4.729 -0.2495 -2.1688  2.3637
  133CHL1   C2716099   2.056   1.511   4.488 -0.6793  0.3802  0.4925
  133CHL1  H27A16100   2.143   1.518   4.419 -1.6524 -1.4093 -1.0376
  133CHL1  H27B16101   1.959   1.537   4.439 -0.0439  0.1461 -0.9402
  133CHL1  H27C16102   2.077   1.577   4.574 -2.0729 -0.4360  1.5071
  134CHL1    C316103   5.082   3.986   2.976  0.2216  0.4629 -0.0182
  134CHL1    H316104   5.161   4.064   2.983 -0.0286  0.8081 -0.9387
  134CHL1    O316105   5.063   3.961   2.835 -0.7178 -0.0180  0.8692
  134CHL1   H3'16106   5.111   3.881   2.813 -0.1906  0.5525 -0.0891
  134CHL1    C416107   5.133   3.858   3.048  0.0218  0.5602  0.4199
  134CHL1   H4A16108   5.060   3.778   3.025 -1.8117  2.0255  0.8440
  134CHL1   H4B16109   5.221   3.827   2.988 -1.6257 -0.1879 -1.7519
  134CHL1    C516110   5.146   3.872   3.199  0.3108  0.1854  0.3569
  134CHL1    C616111   5.257   3.837   3.265 -0.1456  0.6805 -0.0718
  134CHL1    H616112   5.336   3.795   3.201 -1.5920 -0.6649 -1.0691
  134CHL1    C716113   5.266   3.845   3.415 -0.0283  1.0493  0.2993
  134CHL1   H7A16114   5.319   3.756   3.457  0.0397  0.9070 -0.0912
  134CHL1   H7B16115   5.305   3.946   3.443 -1.1560  1.1678  1.5564
  134CHL1    C816116   5.116   3.848   3.474 -0.0586  0.1148  0.1392
  134CHL1    H816117   5.070   3.748   3.455 -0.3634 -0.0678  1.7375
  134CHL1   C1416118   5.130   3.863   3.620  0.1926 -0.5797  0.0739
  134CHL1   H1416119   5.168   3.966   3.636 -0.7849 -0.1235 -0.4410
  134CHL1   C1516120   5.222   3.756   3.702  0.4732 -0.5889  0.4013
  134CHL1  H15A16121   5.214   3.656   3.654  3.8261 -1.8425  2.1535
  134CHL1  H15B16122   5.329   3.783   3.712  0.1974  0.5282  0.5295
  134CHL1   C1616123   5.161   3.738   3.847  0.3121 -0.0219 -0.1893
  134CHL1  H16A16124   5.120   3.635   3.862 -0.6023  0.0441 -1.9494
  134CHL1  H16B16125   5.237   3.754   3.926 -0.7517  3.1109  0.3325
  134CHL1   C1716126   5.046   3.849   3.843  0.6717  0.2096  0.2110
  134CHL1   H1716127   5.092   3.948   3.864  0.1692  1.1348 -2.6682
  134CHL1   C1316128   4.995   3.863   3.694  0.0699  0.4575 -0.1720
  134CHL1   C1816129   4.899   3.738   3.664  0.4585 -0.0474 -1.1565
  134CHL1  H18A16130   4.803   3.747   3.719  0.8023  2.3210 -0.8131
  134CHL1  H18B16131   4.878   3.729   3.556 -0.4578  0.9252 -1.0786
  134CHL1  H18C16132   4.949   3.643   3.692  3.2382  1.5357 -0.3686
  134CHL1   C1216133   4.919   3.986   3.638  0.1837 -0.4963 -0.8039
  134CHL1  H12A16134   4.819   3.980   3.686  0.6189  1.0865  0.3990
  134CHL1  H12B16135   4.976   4.078   3.663 -2.5049  1.3159 -0.8789
  134CHL1   C1116136   4.904   3.999   3.486 -0.1136  0.2532  0.5759
  134CHL1  H11A16137   4.830   3.919   3.464  0.0839  0.5102 -1.1527
  134CHL1  H11B16138   4.863   4.098   3.458 -0.3013 -0.3652 -1.4929
  134CHL1    C916139   5.030   3.958   3.410  0.0433 -0.5733 -0.0361
  134CHL1    H916140   5.082   4.056   3.413 -2.8666  1.1185 -0.2389
  134CHL1   C1016141   5.015   3.932   3.256 -0.0013 -0.2997 -0.8874
  134CHL1   C1916142   4.899   3.826   3.243  0.4867 -0.1907  0.7066
  134CHL1  H19A16143   4.896   3.793   3.137  3.2861  2.7293 -0.4698
  134CHL1  H19B16144   4.928   3.741   3.308  1.9243 -1.5130 -1.4898
  134CHL1  H19C16145   4.795   3.857   3.267 -0.2277 -1.5553 -0.4464
  134CHL1    C116146   4.971   4.066   3.188 -0.0439  1.2764  0.4391
  134CHL1   H1A16147   4.872   4.084   3.236 -0.2248 -3.2206  2.3040
  134CHL1   H1B16148   5.047   4.144   3.210 -0.2033  1.6706 -0.4013
  134CHL1    C216149   4.956   4.050   3.037  0.5026 -0.4890 -0.0923
  134CHL1   H2A16150   4.952   4.152   2.992 -0.1102 -0.2370  0.5083
  134CHL1   H2B16151   4.866   3.996   3.003  0.7835  0.2045 -2.0480
  134CHL1   C2016152   4.940   3.825   3.964  0.0535  0.6209  1.3317
  134CHL1   H2016153   4.889   3.732   3.932 -0.8043  1.1480  1.1362
  134CHL1   C2116154   4.826   3.936   3.962 -0.4790 -0.3761  0.2163
  134CHL1  H21A16155   4.866   4.039   3.963  1.3980 -1.0562  0.9650
  134CHL1  H21B16156   4.749   3.916   4.039 -0.9688 -0.4980 -0.2935
  134CHL1  H21C16157   4.770   3.909   3.870 -0.6397 -1.9707  0.7575
  134CHL1   C2216158   5.014   3.815   4.097 -0.4484  0.0326 -0.6549
  134CHL1  H22A16159   5.068   3.719   4.109  0.5133  0.8391  2.2385
  134CHL1  H22B16160   5.100   3.886   4.102  0.1369 -0.5152 -2.2349
  134CHL1   C2316161   4.932   3.841   4.223 -0.2825  0.5492 -0.6633
  134CHL1  H23A16162   4.881   3.940   4.227 -0.4267  0.4420  2.6243
  134CHL1  H23B16163   4.852   3.765   4.215  0.6578 -0.2981 -3.1348
  134CHL1   C2416164   5.019   3.816   4.346 -0.3010  0.8804 -0.6210
  134CHL1  H24A16165   5.072   3.719   4.332 -0.9014  0.3182  0.8095
  134CHL1  H24B16166   5.095   3.897   4.350  1.0003 -0.3244 -0.0356
  134CHL1   C2516167   4.949   3.812   4.472  0.0583 -0.3220 -0.0666
  134CHL1   H2516168   4.883   3.723   4.482 -0.2844  0.1080  2.1566
  134CHL1   C2616169   5.044   3.787   4.594 -0.5735 -0.3344  0.9963
  134CHL1  H26A16170   5.119   3.867   4.613 -1.2155  0.7027 -0.5828
  134CHL1  H26B16171   4.988   3.769   4.688 -0.1297 -1.0519  1.1328
  134CHL1  H26C16172   5.099   3.693   4.573 -0.5991  0.1857 -1.8450
  134CHL1   C2716173   4.863   3.937   4.496  0.0586  0.6778  0.5247
  134CHL1  H27A16174   4.912   4.031   4.464 -2.3628  2.0999  0.7035
  134CHL1  H27B16175   4.767   3.933   4.439 -0.4971  1.7816  1.3363
  134CHL1  H27C16176   4.848   3.942   4.607  1.2326  1.8698  0.6434
  135CHL1    C316177   5.582   2.862   3.060 -0.2722  0.2135 -0.6777
  135CHL1    H316178   5.653   2.777   3.064  0.3769  0.7802  3.2616
  135CHL1    O316179   5.557   2.909   2.931  0.4716 -0.2177 -0.4440
  135CHL1   H3'16180   5.488   2.976   2.927 -0.9864 -1.5430  0.6845
  135CHL1    C416181   5.450   2.808   3.111  0.4829 -0.0834 -0.1364
  135CHL1   H4A16182   5.376   2.890   3.099 -2.6697 -2.7993 -0.8715
  135CHL1   H4B16183   5.415   2.726   3.044  0.1161  0.4264 -0.5785
  135CHL1    C516184   5.448   2.763   3.252  0.9302 -0.1592  0.4564
  135CHL1    C616185   5.410   2.639   3.289 -0.3628 -0.2032  0.5274
  135CHL1    H616186   5.375   2.567   3.214  0.9540 -0.9291  0.5754
  135CHL1    C716187   5.411   2.585   3.427  0.5397  0.2257 -0.1397
  135CHL1   H7A16188   5.317   2.527   3.439 -0.1311  1.3293  0.0330
  135CHL1   H7B16189   5.502   2.523   3.437 -1.5408 -3.3820 -1.6572
  135CHL1    C816190   5.425   2.691   3.539  0.5341 -0.7983  0.4300
  135CHL1    H816191   5.327   2.743   3.540  0.9595  0.1237 -1.7101
  135CHL1   C1416192   5.465   2.624   3.671  0.2167 -0.5333 -0.5395
  135CHL1   H1416193   5.562   2.572   3.652 -0.4818 -1.2427 -2.4269
  135CHL1   C1516194   5.376   2.514   3.726  0.5550 -0.3835  0.0390
  135CHL1  H15A16195   5.271   2.536   3.697  0.4800 -0.6870  0.0708
  135CHL1  H15B16196   5.397   2.414   3.681  2.3954 -1.3676  2.8304
  135CHL1   C1616197   5.399   2.510   3.875  0.1194 -0.3834 -0.1938
  135CHL1  H16A16198   5.307   2.537   3.931 -0.2384  1.9105 -1.7406
  135CHL1  H16B16199   5.443   2.411   3.898  3.9003  0.1940 -3.6689
  135CHL1   C1716200   5.507   2.621   3.907 -0.0732  0.0396 -0.1085
  135CHL1   H1716201   5.609   2.581   3.891 -0.8230 -1.8181 -0.5577
  135CHL1   C1316202   5.484   2.725   3.790  0.1987  0.6963 -0.4996
  135CHL1   C1816203   5.357   2.806   3.828 -0.0759 -0.1048  0.5583
  135CHL1  H18A16204   5.319   2.889   3.764  1.1653 -1.9722 -2.8368
  135CHL1  H18B16205   5.274   2.737   3.849  0.1166 -1.4018 -2.4295
  135CHL1  H18C16206   5.365   2.866   3.921  0.0961  0.9516 -0.1174
  135CHL1   C1216207   5.597   2.830   3.741  0.5917  0.4699  0.1100
  135CHL1  H12A16208   5.618   2.895   3.829 -2.1680 -1.3062  2.2648
  135CHL1  H12B16209   5.692   2.776   3.724  1.1579  1.8771 -1.4152
  135CHL1   C1116210   5.563   2.906   3.610  0.1748 -0.3944 -0.4972
  135CHL1  H11A16211   5.470   2.963   3.635 -0.1513 -0.9061 -0.5392
  135CHL1  H11B16212   5.645   2.979   3.596 -0.8039  1.0233  0.7359
  135CHL1    C916213   5.530   2.803   3.493 -0.0425  0.4253 -0.4801
  135CHL1    H916214   5.624   2.748   3.475 -0.8226 -0.8051 -0.8840
  135CHL1   C1016215   5.499   2.875   3.352 -0.4727 -0.3194  0.7450
  135CHL1   C1916216   5.394   2.984   3.369 -0.3240  0.4281  0.3022
  135CHL1  H19A16217   5.439   3.077   3.411  1.2930 -0.9518  1.7671
  135CHL1  H19B16218   5.351   3.011   3.270  1.3096 -1.5156 -1.0167
  135CHL1  H19C16219   5.315   2.953   3.441  0.6915 -2.6691  0.2208
  135CHL1    C116220   5.636   2.933   3.300 -0.0677 -0.2833 -0.1764
  135CHL1   H1A16221   5.665   3.013   3.371  1.5120 -1.8387  1.0463
  135CHL1   H1B16222   5.718   2.860   3.317  1.3160  1.4487  0.8691
  135CHL1    C216223   5.630   2.974   3.152  0.1010 -0.0769 -0.3466
  135CHL1   H2A16224   5.734   2.996   3.123  0.4091  0.9824  1.4010
  135CHL1   H2B16225   5.562   3.062   3.146 -0.6372 -0.7385 -2.8143
  135CHL1   C2016226   5.501   2.675   4.052  0.4239  0.0203  0.0204
  135CHL1   H2016227   5.402   2.719   4.079  0.5741 -0.5013  1.5343
  135CHL1   C2116228   5.601   2.791   4.073 -0.1343  0.0057 -1.0036
  135CHL1  H21A16229   5.698   2.763   4.027  0.2039  1.4038 -1.1852
  135CHL1  H21B16230   5.611   2.807   4.182  1.0753  0.2922 -1.1464
  135CHL1  H21C16231   5.562   2.880   4.020 -0.3872 -0.6144 -1.8932
  135CHL1   C2216232   5.526   2.557   4.158 -0.4913  0.2812 -0.2651
  135CHL1  H22A16233   5.499   2.460   4.111 -1.3409  0.8382 -0.9602
  135CHL1  H22B16234   5.632   2.556   4.190 -0.3157 -0.5328 -0.8459
  135CHL1   C2316235   5.431   2.581   4.286  0.3351 -0.3418  0.5495
  135CHL1  H23A16236   5.445   2.681   4.333 -0.4214  1.3959 -2.6271
  135CHL1  H23B16237   5.324   2.577   4.258  0.5337  0.7290 -0.4838
  135CHL1   C2416238   5.446   2.472   4.392  0.9120 -0.7532  0.1015
  135CHL1  H24A16239   5.428   2.377   4.336  2.5062 -0.6173 -0.6865
  135CHL1  H24B16240   5.551   2.458   4.423  2.0535  1.3267 -2.4850
  135CHL1   C2516241   5.345   2.480   4.511  0.1403 -0.0599 -0.1261
  135CHL1   H2516242   5.246   2.513   4.473 -0.7569 -1.7228  0.6800
  135CHL1   C2616243   5.333   2.340   4.576 -0.3170 -0.0021 -0.2212
  135CHL1  H26A16244   5.243   2.334   4.642 -0.3384  0.0229 -0.2478
  135CHL1  H26B16245   5.299   2.268   4.499 -1.1347  0.2330 -0.0908
  135CHL1  H26C16246   5.428   2.322   4.632 -1.6735 -1.6353  1.7171
  135CHL1   C2716247   5.400   2.587   4.608 -0.6402  0.2519 -0.5989
  135CHL1  H27A16248   5.506   2.562   4.631 -1.3010 -1.5909  0.5650
  135CHL1  H27B16249   5.389   2.687   4.559 -0.0836  0.4470 -0.3348
  135CHL1  H27C16250   5.335   2.591   4.697 -1.6436 -0.2453 -1.2900
  136CHL1    C316251   4.216   2.034   3.177 -0.4701 -0.0390  0.8222
  136CHL1    H316252   4.107   2.013   3.164 -0.7206  1.2961  0.6583
  136CHL1    O316253   4.284   2.013   3.052 -0.6135  0.1777 -0.1748
  136CHL1   H3'16254   4.261   2.093   3.005  0.7944  1.0654  0.5934
  136CHL1    C416255   4.243   2.176   3.220 -0.9726 -0.6830  0.5148
  136CHL1   H4A16256   4.351   2.201   3.213 -1.4594  2.0079  1.5539
  136CHL1   H4B16257   4.194   2.239   3.142 -1.1408  1.9488  2.6101
  136CHL1    C516258   4.214   2.219   3.360 -0.5294  0.3657 -0.1529
  136CHL1    C616259   4.149   2.336   3.393 -0.9031  0.0396  0.2468
  136CHL1    H616260   4.115   2.406   3.315 -2.7437 -0.7109  0.3175
  136CHL1    C716261   4.118   2.370   3.534  0.3394  0.3830 -0.2666
  136CHL1   H7A16262   4.147   2.474   3.559 -0.8007  1.0944 -1.7541
  136CHL1   H7B16263   4.011   2.358   3.558 -0.0675 -0.9330 -2.4337
  136CHL1    C816264   4.191   2.279   3.637  0.5503 -0.3570  0.4884
  136CHL1    H816265   4.294   2.320   3.636  0.4583 -0.1223  0.3346
  136CHL1   C1416266   4.130   2.292   3.777 -0.1209 -0.2313 -0.0282
  136CHL1   H1416267   4.026   2.254   3.766 -0.4036  0.3943  0.4672
  136CHL1   C1516268   4.122   2.428   3.841  0.5433 -0.5055 -0.7336
  136CHL1  H15A16269   4.218   2.483   3.832 -0.1634  1.1250  1.0142
  136CHL1  H15B16270   4.037   2.482   3.794  0.2553 -0.3373 -0.0381
  136CHL1   C1616271   4.095   2.393   3.981 -0.7673 -0.0215  0.0381
  136CHL1  H16A16272   4.160   2.457   4.045 -0.1129  0.3881 -1.0112
  136CHL1  H16B16273   3.993   2.414   4.018 -0.0898  1.8483  0.9933
  136CHL1   C1716274   4.117   2.244   4.006  0.2572 -0.9070 -0.3188
  136CHL1   H1716275   4.018   2.200   3.985  0.0934  0.5627 -3.0927
  136CHL1   C1316276   4.196   2.203   3.879  1.0601 -0.0858 -0.2885
  136CHL1   C1816277   4.346   2.242   3.900  0.1362  0.3161 -0.2495
  136CHL1  H18A16278   4.349   2.331   3.967 -2.8657  1.4043 -1.3744
  136CHL1  H18B16279   4.400   2.164   3.958  0.6243  1.4987  0.9502
  136CHL1  H18C16280   4.395   2.258   3.802  1.8302 -1.4070  0.2512
  136CHL1   C1216281   4.182   2.055   3.841  0.0393 -0.4266  0.0826
  136CHL1  H12A16282   4.235   1.984   3.909  0.0894 -0.1931  0.2890
  136CHL1  H12B16283   4.073   2.031   3.845  0.0834 -0.6777 -0.2216
  136CHL1   C1116284   4.232   2.025   3.704  0.7522 -0.0662  0.9756
  136CHL1  H11A16285   4.343   2.011   3.705  0.5585 -2.2606 -0.4804
  136CHL1  H11B16286   4.190   1.930   3.666  1.9386 -0.1197 -0.3149
  136CHL1    C916287   4.188   2.136   3.596 -0.5934 -0.4234 -0.3687
  136CHL1    H916288   4.081   2.111   3.576 -1.0214  0.7373  0.3817
  136CHL1   C1016289   4.257   2.111   3.463 -0.1926 -0.7830 -0.0332
  136CHL1   C1916290   4.407   2.129   3.475  0.3697 -0.1919  0.2913
  136CHL1  H19A16291   4.461   2.112   3.379 -1.7287  0.7303 -1.1269
  136CHL1  H19B16292   4.427   2.233   3.509 -0.4924 -0.2387  0.9976
  136CHL1  H19C16293   4.455   2.059   3.547 -0.0361  0.1171  0.8681
  136CHL1    C116294   4.224   1.966   3.413 -0.1740 -0.0809 -0.3224
  136CHL1   H1A16295   4.263   1.889   3.483 -0.9691 -0.5091 -0.3259
  136CHL1   H1B16296   4.114   1.955   3.401 -0.1754 -0.2895 -0.1337
  136CHL1    C216297   4.276   1.934   3.272  0.0731  0.0916 -0.2705
  136CHL1   H2A16298   4.239   1.834   3.241  0.8133 -0.3906  0.3446
  136CHL1   H2B16299   4.386   1.937   3.260 -0.0634  1.1744 -1.4627
  136CHL1   C2016300   4.162   2.207   4.145  0.7909  0.1315  0.2398
  136CHL1   H2016301   4.263   2.249   4.160  0.8269  1.0558 -2.1679
  136CHL1   C2116302   4.165   2.055   4.165 -0.4893  0.5075 -0.1762
  136CHL1  H21A16303   4.239   2.015   4.092 -1.6577 -1.6455 -0.2507
  136CHL1  H21B16304   4.069   2.005   4.146 -0.5403  0.0957  1.0803
  136CHL1  H21C16305   4.197   2.019   4.265  0.1224  0.4022 -0.4029
  136CHL1   C2216306   4.068   2.263   4.248 -0.0195 -0.7362  0.0463
  136CHL1  H22A16307   4.076   2.374   4.243  1.3541 -0.7472  1.3234
  136CHL1  H22B16308   3.960   2.239   4.237 -0.9404  2.1478  1.6070
  136CHL1   C2316309   4.108   2.227   4.388 -0.5780 -0.8068 -0.7283
  136CHL1  H23A16310   4.048   2.292   4.455  0.6081  1.7308 -2.0106
  136CHL1  H23B16311   4.078   2.123   4.412  1.8282 -1.6668 -1.2200
  136CHL1   C2416312   4.255   2.247   4.436  0.5775 -0.4796 -0.2683
  136CHL1  H24A16313   4.327   2.232   4.352  1.3384 -1.9616  0.5841
  136CHL1  H24B16314   4.267   2.355   4.457  0.4909 -0.4813 -0.2091
  136CHL1   C2516315   4.293   2.167   4.558 -0.7349 -0.3710  0.6062
  136CHL1   H2516316   4.401   2.191   4.568 -0.6001  1.2449 -2.9990
  136CHL1   C2616317   4.223   2.206   4.684  0.1848  0.5016 -0.2078
  136CHL1  H26A16318   4.234   2.313   4.712 -2.3778  0.6599  0.4291
  136CHL1  H26B16319   4.113   2.198   4.672  0.1820  1.3222 -0.8396
  136CHL1  H26C16320   4.253   2.150   4.775 -2.1364 -0.9951 -0.3007
  136CHL1   C2716321   4.284   2.021   4.527  0.2897  0.6070 -0.3427
  136CHL1  H27A16322   4.341   1.964   4.604 -0.0826  0.1778 -0.3768
  136CHL1  H27B16323   4.179   1.986   4.526  0.4517  0.1261 -0.8042
  136CHL1  H27C16324   4.322   1.991   4.427 -0.2087  0.7645 -0.5795
  137CHL1    C316325   1.110   3.480   3.341 -0.2516  0.3651 -0.9651
  137CHL1    H316326   1.108   3.369   3.334 -0.6651  0.3257 -0.3171
  137CHL1    O316327   1.189   3.522   3.236 -0.2563 -0.0424 -0.6241
  137CHL1   H3'16328   1.176   3.453   3.170  0.5557 -1.1993  0.3833
  137CHL1    C416329   0.972   3.540   3.345 -0.2340  0.0831  0.3913
  137CHL1   H4A16330   0.979   3.651   3.337  3.8594 -0.1366 -1.6637
  137CHL1   H4B16331   0.922   3.512   3.250 -1.0095  2.4039  0.0495
  137CHL1    C516332   0.894   3.496   3.470  0.7770 -0.0582 -0.5261
  137CHL1    C616333   0.772   3.436   3.462 -0.3398 -0.3684  0.2043
  137CHL1    H616334   0.722   3.428   3.364  0.3181 -1.5227 -0.0532
  137CHL1    C716335   0.697   3.380   3.587 -0.1824 -0.1361 -0.2654
  137CHL1   H7A16336   0.589   3.403   3.569 -0.1269 -0.8140 -1.5369
  137CHL1   H7B16337   0.708   3.270   3.587 -0.4893 -0.1920  1.5933
  137CHL1    C816338   0.759   3.425   3.718  0.3745 -0.9972  0.9244
  137CHL1    H816339   0.736   3.533   3.730 -1.3525 -0.8160 -2.6357
  137CHL1   C1416340   0.700   3.342   3.825 -0.0120 -0.1576 -0.4204
  137CHL1   H1416341   0.725   3.235   3.806  0.2951 -0.3531  0.9133
  137CHL1   C1516342   0.551   3.339   3.835  0.6909  0.5345 -0.2117
  137CHL1  H15A16343   0.503   3.438   3.821 -1.8245 -0.5898  0.0020
  137CHL1  H15B16344   0.501   3.276   3.758 -1.2273  2.3043 -0.5063
  137CHL1   C1616345   0.537   3.261   3.979  0.4194 -0.2043  1.2446
  137CHL1  H16A16346   0.454   3.313   4.032  0.2284  0.2552  0.5114
  137CHL1  H16B16347   0.507   3.155   3.966 -2.5523  0.7403 -0.7533
  137CHL1   C1716348   0.676   3.271   4.044 -0.0930 -0.3300  0.1873
  137CHL1   H1716349   0.724   3.174   4.021  2.5115  1.0692 -0.6668
  137CHL1   C1316350   0.757   3.378   3.961 -0.5269  0.7973  0.9040
  137CHL1   C1816351   0.726   3.523   4.001  0.5776  0.0207 -0.0096
  137CHL1  H18A16352   0.616   3.541   4.007  0.8978  1.7539  1.6914
  137CHL1  H18B16353   0.774   3.549   4.098  0.3016  0.0111  0.1298
  137CHL1  H18C16354   0.769   3.592   3.925 -2.1429  2.0769  0.1433
  137CHL1   C1216355   0.905   3.355   3.972 -0.2265 -0.4775  0.0397
  137CHL1  H12A16356   0.940   3.383   4.073  0.5510 -1.3025  0.0110
  137CHL1  H12B16357   0.940   3.250   3.959  1.0180 -0.1272  0.4626
  137CHL1   C1116358   0.977   3.442   3.866  0.0467 -0.1066 -0.0977
  137CHL1  H11A16359   0.973   3.547   3.901  0.5043 -0.7723  2.1711
  137CHL1  H11B16360   1.083   3.410   3.865  0.1675  0.2939 -0.0986
  137CHL1    C916361   0.913   3.421   3.724 -0.7054  0.0368  0.5856
  137CHL1    H916362   0.940   3.316   3.700 -1.5620  0.0854 -0.7177
  137CHL1   C1016363   0.974   3.505   3.608  0.8054 -0.8300 -0.0963
  137CHL1   C1916364   0.979   3.654   3.649 -0.1381 -0.4183  0.4337
  137CHL1  H19A16365   0.886   3.703   3.687  0.5449  0.9038  0.4685
  137CHL1  H19B16366   1.040   3.666   3.741 -1.6425  3.4424  1.1444
  137CHL1  H19C16367   1.015   3.726   3.573 -0.4741  1.2523  1.7755
  137CHL1    C116368   1.119   3.460   3.590  0.5684 -0.7161 -0.2570
  137CHL1   H1A16369   1.185   3.489   3.675 -1.2663 -0.7902  1.2385
  137CHL1   H1B16370   1.121   3.349   3.583 -1.6435 -0.7537 -0.8718
  137CHL1    C216371   1.188   3.521   3.467 -0.8541 -0.4555 -0.3082
  137CHL1   H2A16372   1.294   3.490   3.469 -1.4287 -2.7031  3.0405
  137CHL1   H2B16373   1.184   3.632   3.464 -0.5836 -0.3673  1.6505
  137CHL1   C2016374   0.683   3.282   4.199  0.1034 -0.2447 -0.1273
  137CHL1   H2016375   0.772   3.346   4.220  0.8945 -0.8166 -1.5538
  137CHL1   C2116376   0.707   3.141   4.249 -1.1604 -0.0604 -0.1622
  137CHL1  H21A16377   0.626   3.073   4.216  0.1661 -1.7820 -0.0125
  137CHL1  H21B16378   0.728   3.135   4.358 -0.2827  1.7792 -0.1854
  137CHL1  H21C16379   0.803   3.111   4.202 -0.8834  1.5364 -0.6808
  137CHL1   C2216380   0.556   3.345   4.257  0.2648  0.1343 -0.2621
  137CHL1  H22A16381   0.524   3.438   4.205  0.0899  0.5394  0.5460
  137CHL1  H22B16382   0.475   3.269   4.248 -1.2284  1.4695  1.1368
  137CHL1   C2316383   0.571   3.388   4.404 -0.4596  0.1727 -0.4483
  137CHL1  H23A16384   0.590   3.298   4.466 -0.2073 -1.4165 -2.6758
  137CHL1  H23B16385   0.659   3.454   4.419 -0.0349 -0.1676 -1.3679
  137CHL1   C2416386   0.438   3.441   4.467 -0.6791  1.0001 -0.4250
  137CHL1  H24A16387   0.354   3.434   4.394 -0.2424  0.0694 -0.8480
  137CHL1  H24B16388   0.405   3.380   4.553 -0.3569  1.8306  0.3067
  137CHL1   C2516389   0.441   3.589   4.519 -0.1655 -0.0708 -0.4475
  137CHL1   H2516390   0.491   3.641   4.435  0.1544 -0.5223 -0.5412
  137CHL1   C2616391   0.296   3.640   4.529 -0.5132  0.2849 -0.0579
  137CHL1  H26A16392   0.237   3.567   4.589  1.2136 -1.7524 -0.7421
  137CHL1  H26B16393   0.299   3.730   4.594  2.8494 -0.9999  1.8006
  137CHL1  H26C16394   0.257   3.677   4.432 -1.8249  2.6739  1.2861
  137CHL1   C2716395   0.510   3.605   4.651 -0.5569 -0.4059 -0.7991
  137CHL1  H27A16396   0.510   3.709   4.691  0.2095 -0.4586 -0.6486
  137CHL1  H27B16397   0.467   3.542   4.732  0.7555 -0.3040  0.0004
  137CHL1  H27C16398   0.614   3.570   4.632 -1.3502 -2.3884 -1.6895
  138CHL1    C316399   5.707   1.408   3.178 -0.1173 -0.8832  0.2084
  138CHL1    H316400   5.714   1.300   3.200 -2.1692 -0.7265  1.8853
  138CHL1    O316401   5.714   1.434   3.037  0.3520  0.4212 -0.3144
  138CHL1   H3'16402   5.622   1.445   3.012  0.2580 -0.4118 -0.3648
  138CHL1    C416403   5.572   1.461   3.228 -0.1098 -0.5954 -0.3031
  138CHL1   H4A16404   5.564   1.565   3.190  0.3531 -1.0508 -1.7023
  138CHL1   H4B16405   5.494   1.411   3.168  1.7710 -0.2911 -3.1959
  138CHL1    C516406   5.562   1.459   3.382  0.1247  0.4464  0.6132
  138CHL1    C616407   5.473   1.384   3.438 -0.2244  0.0913  0.0259
  138CHL1    H616408   5.396   1.337   3.376 -2.0626  2.9906 -0.0902
  138CHL1    C716409   5.456   1.378   3.587 -0.7436 -0.5688  0.2168
  138CHL1   H7A16410   5.349   1.379   3.619 -0.5202  2.4664  1.1375
  138CHL1   H7B16411   5.498   1.279   3.615 -0.9879 -0.6539  0.2941
  138CHL1    C816412   5.535   1.495   3.664 -0.3681 -0.4400  0.8531
  138CHL1    H816413   5.474   1.583   3.632  1.8456  0.4737 -1.1292
  138CHL1   C1416414   5.541   1.466   3.816  0.3694 -0.0699  0.3969
  138CHL1   H1416415   5.579   1.363   3.830 -0.2056 -0.2632  0.6075
  138CHL1   C1516416   5.400   1.449   3.882 -0.4586 -0.7112 -0.1035
  138CHL1  H15A16417   5.329   1.530   3.854  1.5246  0.9987 -0.4940
  138CHL1  H15B16418   5.369   1.346   3.855 -0.8685 -0.5621 -0.2049
  138CHL1   C1616419   5.443   1.466   4.034  0.4011  0.5256 -0.5572
  138CHL1  H16A16420   5.365   1.533   4.077 -1.4356 -2.0508  0.3954
  138CHL1  H16B16421   5.434   1.367   4.084 -3.7991  0.7125 -0.5696
  138CHL1   C1716422   5.590   1.522   4.046 -0.1160 -0.1090  0.5385
  138CHL1   H1716423   5.651   1.431   4.063 -2.3647 -1.2109  3.5884
  138CHL1   C1316424   5.616   1.564   3.904 -0.5010 -0.5280  0.1562
  138CHL1   C1816425   5.549   1.705   3.875 -0.1368 -0.0741  0.4187
  138CHL1  H18A16426   5.556   1.736   3.769  0.3526 -2.0368 -0.1610
  138CHL1  H18B16427   5.440   1.702   3.897 -0.0540  2.1325  1.3625
  138CHL1  H18C16428   5.603   1.786   3.929 -1.2993  0.8386  0.2506
  138CHL1   C1216429   5.760   1.560   3.847 -0.4044 -0.3991 -0.1849
  138CHL1  H12A16430   5.831   1.616   3.911 -2.2953  1.2230  0.6298
  138CHL1  H12B16431   5.801   1.457   3.848 -1.7864 -0.9800 -0.0058
  138CHL1   C1116432   5.765   1.602   3.696 -0.0140 -0.5910  0.0845
  138CHL1  H11A16433   5.737   1.710   3.692 -1.8406 -0.9761  1.2018
  138CHL1  H11B16434   5.866   1.586   3.653  0.7269 -1.9367  2.1753
  138CHL1    C916435   5.674   1.507   3.611  0.3874  0.0007  0.4058
  138CHL1    H916436   5.724   1.408   3.615  0.4820 -0.0816 -1.7900
  138CHL1   C1016437   5.668   1.540   3.457  0.3037 -0.0742 -0.2484
  138CHL1   C1916438   5.645   1.690   3.432  1.0713 -0.1342 -0.0902
  138CHL1  H19A16439   5.543   1.722   3.461  1.7779  1.4442  0.7781
  138CHL1  H19B16440   5.706   1.766   3.485 -1.0575  1.4756  0.1684
  138CHL1  H19C16441   5.641   1.713   3.323 -3.3737  0.3405 -0.0003
  138CHL1    C116442   5.806   1.498   3.405  0.4464 -0.2028  0.7454
  138CHL1   H1A16443   5.879   1.570   3.448  3.2443 -2.9010  0.9083
  138CHL1   H1B16444   5.824   1.391   3.428  0.9993 -0.3727 -0.3777
  138CHL1    C216445   5.822   1.498   3.248 -0.1409  0.0946  0.7204
  138CHL1   H2A16446   5.920   1.450   3.224  1.4853  2.1203  2.8434
  138CHL1   H2B16447   5.819   1.596   3.197  0.3028 -0.7961 -1.1150
  138CHL1   C2016448   5.613   1.610   4.167  0.4246  0.1233 -0.7744
  138CHL1   H2016449   5.565   1.710   4.170  1.9608  0.9118 -1.3828
  138CHL1   C2116450   5.765   1.644   4.176 -0.3638  0.4667  0.1708
  138CHL1  H21A16451   5.834   1.562   4.207  1.1105  1.9968  1.0978
  138CHL1  H21B16452   5.781   1.717   4.258  0.1122  0.5164  0.0341
  138CHL1  H21C16453   5.798   1.693   4.082 -1.3755 -1.9184 -1.5433
  138CHL1   C2216454   5.576   1.526   4.287  0.3268  0.8793  0.3016
  138CHL1  H22A16455   5.473   1.485   4.288  0.3899  0.7162  1.3644
  138CHL1  H22B16456   5.650   1.443   4.287 -0.0476  0.5388 -0.1840
  138CHL1   C2316457   5.594   1.584   4.428 -1.1430 -0.7467  0.0847
  138CHL1  H23A16458   5.702   1.607   4.437 -0.5863 -1.3407 -3.6827
  138CHL1  H23B16459   5.543   1.679   4.454 -0.0804 -0.6082  1.8409
  138CHL1   C2416460   5.568   1.494   4.541  0.0094  0.1530 -0.1585
  138CHL1  H24A16461   5.522   1.559   4.619 -0.1792  1.5987 -1.4285
  138CHL1  H24B16462   5.494   1.418   4.512 -1.6867  1.4274  0.6277
  138CHL1   C2516463   5.689   1.418   4.608 -0.0845 -0.2623  0.3473
  138CHL1   H2516464   5.754   1.498   4.650 -1.8585  0.6038  1.5688
  138CHL1   C2616465   5.636   1.332   4.719 -0.7347 -0.5558  0.3448
  138CHL1  H26A16466   5.590   1.395   4.798 -1.1862 -1.6712  0.9948
  138CHL1  H26B16467   5.568   1.257   4.674 -0.8758  1.1989 -2.6604
  138CHL1  H26C16468   5.719   1.279   4.770  0.0138  0.8850  0.6870
  138CHL1   C2716469   5.766   1.336   4.502  0.1759 -0.4211  0.0835
  138CHL1  H27A16470   5.841   1.267   4.546 -0.8123 -2.1166 -0.8069
  138CHL1  H27B16471   5.692   1.274   4.448  0.0892  0.2483 -0.5864
  138CHL1  H27C16472   5.831   1.398   4.436  0.0357 -1.8268 -1.4352
  139CHL1    C316473   0.258   5.741   3.082  0.5350  0.0548 -0.7216
  139CHL1    H316474   0.246   5.639   3.126 -2.5199  1.4475  2.0686
  139CHL1    O316475   0.279   5.739   2.942  0.3729  0.9510 -0.4983
  139CHL1   H3'16476   0.327   5.817   2.914  1.7436 -0.4214 -2.2340
  139CHL1    C416477   0.121   5.815   3.104  0.7984 -0.1412 -0.1085
  139CHL1   H4A16478   0.106   5.904   3.039 -0.9415  0.5233  1.1298
  139CHL1   H4B16479   0.051   5.745   3.054  1.7277 -1.0265 -0.1965
  139CHL1    C516480   0.088   5.843   3.247 -0.3552  0.7542 -0.4073
  139CHL1    C616481  -0.015   5.795   3.316  0.8319 -0.1917  0.5544
  139CHL1    H616482  -0.083   5.723   3.268  2.3005 -1.7352  0.6980
  139CHL1    C716483  -0.051   5.816   3.459  0.1199 -0.3182 -0.4332
  139CHL1   H7A16484  -0.160   5.840   3.455 -0.8730 -4.1463 -0.2239
  139CHL1   H7B16485  -0.039   5.723   3.517 -0.2210  0.6133  1.2042
  139CHL1    C816486   0.023   5.934   3.515 -0.3271  0.3444  0.2270
  139CHL1    H816487  -0.012   6.030   3.471  0.5533  0.9274  0.7374
  139CHL1   C1416488   0.015   5.937   3.667 -0.4781  0.3419  0.6496
  139CHL1   H1416489   0.039   5.838   3.712  0.1630  1.4434  2.8556
  139CHL1   C1516490  -0.125   5.948   3.728  0.0907  0.1214  0.1443
  139CHL1  H15A16491  -0.170   6.045   3.695 -0.8683  0.1015  1.3319
  139CHL1  H15B16492  -0.194   5.862   3.714  2.8408 -2.0633 -0.9023
  139CHL1   C1616493  -0.094   5.956   3.879 -0.4677  0.6772  0.1033
  139CHL1  H16A16494  -0.161   6.020   3.941 -1.2822 -0.3383  0.2968
  139CHL1  H16B16495  -0.107   5.853   3.918  0.0059  0.5769  0.0012
  139CHL1   C1716496   0.058   6.001   3.887 -0.3338  0.7179 -0.0948
  139CHL1   H1716497   0.115   5.909   3.909 -1.3772 -0.0284 -0.3998
  139CHL1   C1316498   0.098   6.037   3.742 -0.4296  0.1183 -0.7909
  139CHL1   C1816499   0.058   6.184   3.722  0.6136  0.2570  0.6423
  139CHL1  H18A16500  -0.038   6.200   3.776 -0.8704 -0.3055 -1.6759
  139CHL1  H18B16501   0.149   6.235   3.759  4.2221 -2.2348 -3.7115
  139CHL1  H18C16502   0.039   6.215   3.617  0.1426  1.5705  1.0913
  139CHL1   C1216503   0.245   6.009   3.705  0.1613  0.2888  0.7834
  139CHL1  H12A16504   0.312   6.083   3.754 -0.1064  1.0088  0.0829
  139CHL1  H12B16505   0.276   5.906   3.734 -2.4826 -1.2991 -1.5603
  139CHL1   C1116506   0.266   6.017   3.551 -0.0727 -0.2960  0.1312
  139CHL1  H11A16507   0.237   6.122   3.527 -0.3208 -0.0420  1.4550
  139CHL1  H11B16508   0.372   5.989   3.535 -0.4343 -1.0813 -1.0361
  139CHL1    C916509   0.172   5.918   3.471 -0.8700  0.6893 -0.3841
  139CHL1    H916510   0.205   5.816   3.502  0.1643  1.2756  0.5359
  139CHL1   C1016511   0.206   5.916   3.324  0.6598  0.4596 -0.9873
  139CHL1   C1916512   0.210   6.064   3.275 -0.1015  0.1310  0.6138
  139CHL1  H19A16513   0.203   6.053   3.164 -0.7364 -1.9848  0.8325
  139CHL1  H19B16514   0.121   6.127   3.298 -0.9786 -0.8076 -0.1193
  139CHL1  H19C16515   0.308   6.110   3.298  0.3683  0.1373 -1.2553
  139CHL1    C116516   0.348   5.860   3.295  0.3718  0.4528 -0.5284
  139CHL1   H1A16517   0.427   5.926   3.336 -0.6570  0.6384  1.2936
  139CHL1   H1B16518   0.364   5.770   3.358  0.3911  0.3702 -0.6509
  139CHL1    C216519   0.372   5.821   3.148 -0.7003 -0.0011 -0.6818
  139CHL1   H2A16520   0.459   5.752   3.144 -0.3877  0.3332  0.1600
  139CHL1   H2B16521   0.416   5.909   3.098  1.1660 -1.2479 -1.3551
  139CHL1   C2016522   0.092   6.107   3.998 -0.1746 -0.1300 -0.4290
  139CHL1   H2016523   0.035   6.197   3.968  1.8747  1.7071  0.9174
  139CHL1   C2116524   0.237   6.139   4.029 -0.3778  0.2045  0.2306
  139CHL1  H21A16525   0.234   6.231   4.091 -1.7768  0.1141  0.3265
  139CHL1  H21B16526   0.290   6.164   3.934 -0.0351  0.3174  0.4482
  139CHL1  H21C16527   0.293   6.057   4.079 -1.2831  0.1446  1.1603
  139CHL1   C2216528   0.034   6.049   4.134 -0.2269  0.3095 -0.3642
  139CHL1  H22A16529  -0.062   5.994   4.122 -0.4601  1.1723 -3.5165
  139CHL1  H22B16530   0.109   5.971   4.158  1.9880  2.4227 -0.0216
  139CHL1   C2316531   0.020   6.146   4.249 -0.1892  0.2580 -0.2880
  139CHL1  H23A16532   0.121   6.176   4.285 -1.6953  1.4592  3.5005
  139CHL1  H23B16533  -0.029   6.243   4.225  1.8126  1.6909  0.9880
  139CHL1   C2416534  -0.037   6.081   4.376 -0.1097  0.3269 -0.5322
  139CHL1  H24A16535  -0.145   6.064   4.360 -0.1716 -0.9226  0.9854
  139CHL1  H24B16536   0.002   5.978   4.392  3.2978  1.5933  0.2414
  139CHL1   C2516537  -0.016   6.174   4.498  0.3504  0.4719 -0.3774
  139CHL1   H2516538   0.093   6.179   4.518  0.2781  0.7285 -0.0406
  139CHL1   C2616539  -0.071   6.318   4.469  0.0141  0.1637  0.2092
  139CHL1  H26A16540  -0.079   6.364   4.570 -0.5234 -0.4160  0.4339
  139CHL1  H26B16541  -0.009   6.372   4.394 -0.9172 -1.2399 -1.6311
  139CHL1  H26C16542  -0.175   6.310   4.432  0.4925  0.3743 -1.2328
  139CHL1   C2716543  -0.101   6.118   4.605  0.9556 -0.5583 -0.1906
  139CHL1  H27A16544  -0.082   6.009   4.612 -2.5323 -1.2497  0.8019
  139CHL1  H27B16545  -0.091   6.165   4.705 -0.2320 -0.2549 -0.1947
  139CHL1  H27C16546  -0.210   6.124   4.582  0.6415 -0.4189  1.2304
  140CHL1    C316547   0.557   0.142   3.307  0.5109  0.4983 -0.1813
  140CHL1    H316548   0.589   0.246   3.329 -0.2264  1.0148 -1.3848
  140CHL1    O316549   0.457   0.134   3.200 -0.1778  0.0041  0.0289
  140CHL1   H3'16550   0.495   0.095   3.122  0.5995 -0.5994  0.6940
  140CHL1    C416551   0.676   0.050   3.272  0.7732 -0.1636  0.9082
  140CHL1   H4A16552   0.640  -0.054   3.256 -1.0948  0.4236  1.1454
  140CHL1   H4B16553   0.723   0.079   3.176 -0.9066 -2.1424 -0.6042
  140CHL1    C516554   0.770   0.067   3.389 -0.6062 -0.3756  0.2082
  140CHL1    C616555   0.886   0.139   3.376 -0.6879  1.0803 -0.1308
  140CHL1    H616556   0.921   0.182   3.281  0.8849  0.8207  0.3163
  140CHL1    C716557   0.986   0.153   3.488  0.1743 -0.4281  0.3337
  140CHL1   H7A16558   1.089   0.139   3.448  0.2220 -0.3141  0.4145
  140CHL1   H7B16559   0.979   0.258   3.524  2.8136  0.4245 -1.3167
  140CHL1    C816560   0.968   0.063   3.608  0.2384 -0.1948  0.3400
  140CHL1    H816561   1.010  -0.037   3.583  0.0460 -0.8516  2.4054
  140CHL1   C1416562   1.058   0.125   3.724 -0.2210 -0.1007  0.1782
  140CHL1   H1416563   1.022   0.227   3.746 -1.0013 -0.3233 -0.0345
  140CHL1   C1516564   1.208   0.142   3.705  0.3696  0.5978  0.0261
  140CHL1  H15A16565   1.234   0.044   3.660 -3.1132 -1.2307  1.5902
  140CHL1  H15B16566   1.245   0.231   3.650 -0.3524  0.4112 -0.7747
  140CHL1   C1616567   1.273   0.139   3.837  0.0821 -0.7184 -0.4614
  140CHL1  H16A16568   1.343   0.052   3.844  0.4187 -0.3838  0.6246
  140CHL1  H16B16569   1.335   0.225   3.871 -0.2434  0.6204 -3.0636
  140CHL1   C1716570   1.151   0.118   3.934  0.0613 -0.1703 -0.5457
  140CHL1   H1716571   1.115   0.220   3.960 -1.5242 -0.8024 -0.1551
  140CHL1   C1316572   1.045   0.048   3.855  0.0651  0.3844  0.4789
  140CHL1   C1816573   1.088  -0.104   3.839  0.0795 -0.0873 -0.4299
  140CHL1  H18A16574   1.037  -0.159   3.756  1.8759 -0.3871 -1.3977
  140CHL1  H18B16575   1.194  -0.117   3.809 -0.0741 -2.3632 -0.1880
  140CHL1  H18C16576   1.072  -0.160   3.933  1.1285 -0.8070 -0.6668
  140CHL1   C1216577   0.891   0.071   3.888  0.1220 -0.1229 -0.1357
  140CHL1  H12A16578   0.869   0.020   3.984 -1.0583  0.0499 -0.2994
  140CHL1  H12B16579   0.892   0.181   3.908 -0.4820 -0.1353 -0.0259
  140CHL1   C1116580   0.799   0.003   3.785  0.2039  0.3421 -0.5452
  140CHL1  H11A16581   0.808  -0.107   3.773 -1.6096  0.0375  0.5408
  140CHL1  H11B16582   0.691   0.020   3.805 -0.0145 -1.0947 -0.4047
  140CHL1    C916583   0.820   0.065   3.647 -0.2102 -0.1769  0.7003
  140CHL1    H916584   0.788   0.170   3.664 -0.6835 -0.3025  0.6080
  140CHL1   C1016585   0.719   0.018   3.530  0.3200  0.2195 -0.3758
  140CHL1   C1916586   0.716  -0.140   3.516 -0.4266 -0.0646 -0.5474
  140CHL1  H19A16587   0.681  -0.196   3.606 -0.8364 -0.0484 -0.6971
  140CHL1  H19B16588   0.679  -0.173   3.416  1.3587  2.1139 -2.0085
  140CHL1  H19C16589   0.818  -0.183   3.506 -0.8704 -1.2502 -0.2128
  140CHL1    C116590   0.577   0.074   3.552 -0.0411  0.5032 -1.1105
  140CHL1   H1A16591   0.531   0.031   3.643  2.1784  1.1935  0.4189
  140CHL1   H1B16592   0.583   0.183   3.577  0.3386  0.4042 -0.7626
  140CHL1    C216593   0.483   0.084   3.431 -0.8864 -0.7473  0.1214
  140CHL1   H2A16594   0.397   0.149   3.458  0.0156 -0.2757  2.0210
  140CHL1   H2B16595   0.446  -0.020   3.412 -0.6401 -0.8151  0.0082
  140CHL1   C2016596   1.194   0.053   4.068 -0.4050  0.6586  0.3306
  140CHL1   H2016597   1.239  -0.046   4.047 -0.9219  0.5993 -0.5735
  140CHL1   C2116598   1.067   0.023   4.150  0.4827  0.0147  0.6488
  140CHL1  H21A16599   1.094  -0.009   4.252 -1.1356  0.8524  1.3753
  140CHL1  H21B16600   1.008  -0.060   4.106  0.7012  0.4341 -0.4788
  140CHL1  H21C16601   1.000   0.111   4.156  0.3885  0.2778 -2.5490
  140CHL1   C2216602   1.301   0.135   4.145  0.8657 -0.1522  0.1586
  140CHL1  H22A16603   1.378   0.189   4.085 -0.9438  3.5374  0.9165
  140CHL1  H22B16604   1.239   0.212   4.195  1.1523  1.6953 -2.1620
  140CHL1   C2316605   1.370   0.049   4.256 -0.1639  0.1738  0.4369
  140CHL1  H23A16606   1.417   0.113   4.334 -1.8328 -0.7762  2.3142
  140CHL1  H23B16607   1.296  -0.021   4.300 -1.4764  1.9164  1.1188
  140CHL1   C2416608   1.480  -0.042   4.194 -0.6463 -0.5976  0.0663
  140CHL1  H24A16609   1.448  -0.118   4.119  1.1827  0.5998 -2.0407
  140CHL1  H24B16610   1.547   0.028   4.141 -1.4460  0.9935  1.0665
  140CHL1   C2516611   1.569  -0.120   4.297  1.0779 -0.1572 -1.1978
  140CHL1   H2516612   1.641  -0.174   4.232  1.8577 -0.7569  0.1156
  140CHL1   C2616613   1.484  -0.224   4.376 -0.6774  0.0918  0.7842
  140CHL1  H26A16614   1.428  -0.300   4.318  1.1180 -0.8834  0.2337
  140CHL1  H26B16615   1.550  -0.289   4.437  1.6670 -1.1432 -2.7240
  140CHL1  H26C16616   1.415  -0.172   4.446  0.2248 -0.1905  1.9118
  140CHL1   C2716617   1.643  -0.030   4.395  0.3475 -0.3440 -0.6079
  140CHL1  H27A16618   1.723   0.019   4.335 -0.1985 -2.3403 -3.1048
  140CHL1  H27B16619   1.578   0.053   4.429  0.8552  0.2047 -0.9504
  140CHL1  H27C16620   1.688  -0.081   4.483  1.0036  0.2668 -0.5720
  141DOPC     N16621   3.906   5.270   6.948 -0.4473  0.2106 -0.2890
  141DOPC   C1216622   3.826   5.144   6.964  0.8340 -0.4257  0.1813
  141DOPC  H12A16623   3.769   5.158   7.055  1.0497 -0.5401  0.3350
  141DOPC  H12B16624   3.884   5.054   6.980  2.1000  0.0595 -1.3620
  141DOPC   C1316625   3.812   5.385   6.933  0.1180 -0.0725 -0.0807
  141DOPC  H13A16626   3.763   5.397   7.029  0.5861  2.4091 -0.0820
  141DOPC  H13B16627   3.855   5.482   6.915  1.7393 -0.7910 -0.2317
  141DOPC  H13C16628   3.742   5.362   6.855 -1.2502 -1.6291  1.5070
  141DOPC   C1416629   3.991   5.260   6.823  0.4742 -0.3513 -0.5413
  141DOPC  H14A16630   3.927   5.246   6.737 -1.2251 -0.4781  0.7185
  141DOPC  H14B16631   4.031   5.359   6.804 -1.2660  0.2979 -0.9781
  141DOPC  H14C16632   4.065   5.182   6.827  2.1036  1.1763  1.7077
  141DOPC   C1516633   3.993   5.299   7.061 -0.5756  0.4482  0.1495
  141DOPC  H15A16634   3.937   5.305   7.153  0.6823  1.0810  0.9072
  141DOPC  H15B16635   4.045   5.394   7.054 -1.4739  0.9223 -0.1957
  141DOPC  H15C16636   4.069   5.227   7.086 -2.2571 -1.1944  0.7062
  141DOPC   C1116637   3.730   5.106   6.848  0.0014  0.0649  0.4897
  141DOPC  H11A16638   3.777   5.144   6.754 -1.9283  0.7828 -0.2456
  141DOPC  H11B16639   3.725   4.996   6.830 -0.3248  0.1951 -0.2520
  141DOPC     P16640   3.503   5.233   6.765 -0.0379  0.0576  0.5379
  141DOPC   O1316641   3.572   5.347   6.694 -0.0414  0.1823  0.4201
  141DOPC   O1416642   3.379   5.273   6.828  0.0954  0.4961  0.9054
  141DOPC   O1216643   3.599   5.167   6.877 -0.4614  0.2564  0.2896
  141DOPC   O1116644   3.480   5.109   6.660 -0.5111  0.0269  0.0874
  141DOPC    C116645   3.383   5.004   6.691 -0.6119 -0.2389 -0.0743
  141DOPC    HA16646   3.348   5.026   6.794  1.8191  1.4950  0.4623
  141DOPC    HB16647   3.434   4.906   6.701 -0.3417 -0.0462  0.4931
  141DOPC    C216648   3.266   4.980   6.589 -0.9208 -0.2962 -0.4893
  141DOPC    HS16649   3.231   4.874   6.594 -1.5529 -0.0697 -0.0516
  141DOPC   O2116650   3.308   5.027   6.455 -0.0643  0.2771  0.5850
  141DOPC   C2116651   3.394   4.944   6.388  0.5534 -0.6099 -0.2945
  141DOPC   O2216652   3.424   4.832   6.427  0.3562  0.1838  0.1358
  141DOPC   C2216653   3.434   5.014   6.256  0.2375 -0.0810 -0.2429
  141DOPC   H2R16654   3.541   5.041   6.249 -0.4042  3.0873  0.5968
  141DOPC   H2S16655   3.373   5.105   6.234  1.2316  0.4212 -0.9789
  141DOPC    C316656   3.146   5.063   6.630  0.3096  0.1830 -0.9120
  141DOPC    HX16657   3.179   5.169   6.627  2.8971 -0.4750  0.9439
  141DOPC    HY16658   3.120   5.043   6.736  1.4890  0.3286 -0.5836
  141DOPC   O3116659   3.034   5.039   6.540  0.3061 -0.2688  0.5507
  141DOPC   C3116660   2.969   4.917   6.558  1.1137 -0.1742  0.9530
  141DOPC   O3216661   3.001   4.829   6.632 -0.5818  0.0392 -0.4036
  141DOPC   C3216662   2.853   4.913   6.459 -0.0781  0.1451  0.3570
  141DOPC   H2X16663   2.764   4.938   6.521  0.1102  0.1124  0.6452
  141DOPC   H2Y16664   2.873   4.997   6.389  3.2445 -0.1575  0.7469
  141DOPC   C2316665   3.396   4.924   6.137 -0.8212  0.3226 -0.0384
  141DOPC   H3R16666   3.289   4.896   6.142 -0.3562 -1.3181  2.2528
  141DOPC   H3S16667   3.440   4.822   6.143  1.6830  1.2230 -1.3211
  141DOPC   C2416668   3.440   4.985   6.005  0.8301 -0.6111 -0.9792
  141DOPC   H4R16669   3.546   5.018   6.001  0.5900  0.4983  0.7080
  141DOPC   H4S16670   3.378   5.072   5.975 -0.2916 -1.9703 -2.7704
  141DOPC   C2516671   3.410   4.900   5.884 -0.5054 -0.7134  0.5640
  141DOPC   H5R16672   3.316   4.842   5.893 -1.3312  0.8651  3.8548
  141DOPC   H5S16673   3.494   4.829   5.869 -0.4136 -0.4474 -0.2092
  141DOPC   C2616674   3.405   4.998   5.767  0.1408  0.1833  0.1980
  141DOPC   H6R16675   3.484   5.072   5.791  0.8621 -0.5310  0.0970
  141DOPC   H6S16676   3.308   5.050   5.774  0.2767  0.5696 -0.6683
  141DOPC   C2716677   3.447   4.942   5.627 -0.4523 -0.5249  0.6240
  141DOPC   H7R16678   3.554   4.912   5.628  0.3186  2.0048  0.5162
  141DOPC   H7S16679   3.435   5.011   5.540  0.6059 -0.9198  0.1497
  141DOPC   C2816680   3.366   4.817   5.587 -0.5023  0.5976 -0.1513
  141DOPC   H8R16681   3.401   4.745   5.664  0.0874  0.6449 -0.3667
  141DOPC   H8S16682   3.391   4.782   5.484 -2.0178 -2.4537  0.4139
  141DOPC   C2916683   3.218   4.839   5.578 -0.3270  0.5824 -1.0088
  141DOPC   H9R16684   3.176   4.936   5.608 -1.8359  0.0219 -1.1872
  141DOPC  C21016685   3.137   4.738   5.544  0.1306 -0.1541  0.4966
  141DOPC  H10R16686   3.030   4.760   5.529  0.3078 -0.1906 -0.9311
  141DOPC  C21116687   3.194   4.593   5.506 -0.7159 -0.0725  0.2326
  141DOPC  H11R16688   3.133   4.504   5.529  0.3037 -0.5965  0.9739
  141DOPC  H11S16689   3.300   4.572   5.534  0.1852  0.6321 -2.2823
  141DOPC  C21216690   3.201   4.591   5.351  0.0513  0.4158  0.1957
  141DOPC  H12R16691   3.292   4.652   5.334  0.7595  0.0273  2.2783
  141DOPC  H12S16692   3.113   4.639   5.303 -0.3874 -1.2457 -0.7696
  141DOPC  C21316693   3.230   4.448   5.304  0.1563  0.0809  0.4795
  141DOPC  H13R16694   3.146   4.384   5.337 -0.0421 -0.2068 -0.5671
  141DOPC  H13S16695   3.317   4.411   5.362  0.9471  3.6436  1.8351
  141DOPC  C21416696   3.245   4.449   5.155  0.7131 -0.0236 -0.0933
  141DOPC  H14R16697   3.326   4.518   5.125  3.1966 -3.2069 -1.3996
  141DOPC  H14S16698   3.151   4.483   5.107  0.5608  0.5158  0.5692
  141DOPC  C21516699   3.276   4.308   5.100  0.3062  0.1189 -0.5196
  141DOPC  H15R16700   3.188   4.244   5.121  0.1808  0.2745 -0.5675
  141DOPC  H15S16701   3.362   4.273   5.162 -1.0199 -1.7198  0.3881
  141DOPC  C21616702   3.310   4.307   4.951 -0.2041  0.4578 -0.0495
  141DOPC  H16R16703   3.385   4.387   4.936  2.3079 -1.7676 -0.0383
  141DOPC  H16S16704   3.222   4.343   4.893 -2.6890 -0.8174  2.6895
  141DOPC  C21716705   3.364   4.177   4.895 -0.1785  0.5055 -0.5537
  141DOPC  H17R16706   3.289   4.099   4.923  0.9741  0.5365  3.0470
  141DOPC  H17S16707   3.452   4.151   4.957 -0.8383  2.1552  1.1459
  141DOPC  C21816708   3.393   4.183   4.745  0.2368  0.5370 -0.3054
  141DOPC  H18R16709   3.407   4.083   4.699 -1.7337 -0.5259  1.2333
  141DOPC  H18S16710   3.482   4.247   4.727  1.4476 -0.1082  2.7416
  141DOPC  H18T16711   3.304   4.234   4.701 -1.5380 -1.3370  0.8870
  141DOPC   C3316712   2.843   4.777   6.388 -0.1499  0.5402  0.5986
  141DOPC   H3X16713   2.804   4.710   6.468  0.9502 -0.3117  0.4361
  141DOPC   H3Y16714   2.939   4.747   6.341  0.5204  1.9535  1.0097
  141DOPC   C3416715   2.731   4.784   6.284 -0.3717  0.6160  0.3174
  141DOPC   H4X16716   2.756   4.853   6.200  1.2291 -0.7376 -0.3778
  141DOPC   H4Y16717   2.640   4.827   6.331  0.2844  1.7213  0.6357
  141DOPC   C3516718   2.700   4.652   6.207  0.4652 -0.3003 -0.7369
  141DOPC   H5X16719   2.689   4.576   6.288 -1.9881  1.8128  1.0986
  141DOPC   H5Y16720   2.786   4.642   6.138  0.1729 -0.5461 -1.0665
  141DOPC   C3616721   2.568   4.659   6.129  0.2219 -0.0834  0.3615
  141DOPC   H6X16722   2.547   4.554   6.100  0.6475  0.4132 -1.8651
  141DOPC   H6Y16723   2.484   4.696   6.193 -0.2290 -1.2823  0.4823
  141DOPC   C3716724   2.563   4.749   6.001 -0.1919 -0.2076  0.3460
  141DOPC   H7X16725   2.578   4.855   6.029 -2.3522  0.6505 -1.3876
  141DOPC   H7Y16726   2.657   4.716   5.951 -0.8602 -2.0967  0.2364
  141DOPC   C3816727   2.450   4.710   5.907 -0.4001 -0.3932  0.0878
  141DOPC   H8X16728   2.466   4.605   5.874  0.6618 -0.1331 -0.2860
  141DOPC   H8Y16729   2.468   4.780   5.822  0.7628  1.8479  2.0353
  141DOPC   C3916730   2.311   4.736   5.945 -0.0734  0.0583  0.0266
  141DOPC   H9X16731   2.286   4.832   5.992 -0.8406 -0.0702 -0.0924
  141DOPC  C31016732   2.212   4.648   5.940 -0.5666  0.0470  0.2815
  141DOPC  H10X16733   2.110   4.679   5.965 -0.4245  0.0761  0.8451
  141DOPC  C31116734   2.224   4.510   5.880  0.1679  0.0490  0.0983
  141DOPC  H11X16735   2.285   4.519   5.788  1.3612  0.1499  0.8846
  141DOPC  H11Y16736   2.120   4.482   5.851  0.4239 -0.4420 -0.3714
  141DOPC  C31216737   2.278   4.414   5.983  0.4519 -0.3910  0.1794
  141DOPC  H12X16738   2.361   4.449   6.048  0.4691 -1.4047  0.7155
  141DOPC  H12Y16739   2.315   4.327   5.925  0.2530 -0.8622  0.7539
  141DOPC  C31316740   2.170   4.366   6.081 -0.2783  0.3739  0.3557
  141DOPC  H13X16741   2.135   4.447   6.149 -2.3703 -0.2964  0.1514
  141DOPC  H13Y16742   2.079   4.340   6.024  1.5040 -4.3861 -0.7647
  141DOPC  C31416743   2.208   4.241   6.169  0.4247 -0.0335  0.2752
  141DOPC  H14X16744   2.125   4.220   6.239  1.5776 -0.0705  1.6936
  141DOPC  H14Y16745   2.207   4.160   6.094  1.2961  1.8497 -1.9073
  141DOPC  C31516746   2.342   4.255   6.235 -0.2640  0.3859  0.4559
  141DOPC  H15X16747   2.429   4.262   6.166  1.5795  1.4103  2.7409
  141DOPC  H15Y16748   2.364   4.158   6.286  1.3474  0.4929  0.0155
  141DOPC  C31616749   2.368   4.373   6.338 -0.9489 -0.1186 -0.1128
  141DOPC  H16X16750   2.371   4.466   6.277 -1.0718  1.7002  2.4951
  141DOPC  H16Y16751   2.279   4.378   6.405 -1.0445  0.6146 -0.2816
  141DOPC  C31716752   2.512   4.347   6.403  1.5146  0.0540 -0.2802
  141DOPC  H17X16753   2.581   4.317   6.321  0.8764 -1.7837 -0.1853
  141DOPC  H17Y16754   2.544   4.444   6.447  1.1274 -1.1525  2.9509
  141DOPC  C31816755   2.516   4.242   6.518 -0.2556  0.0764  0.6125
  141DOPC  H18X16756   2.489   4.143   6.476  1.2355  0.2550 -0.8728
  141DOPC  H18Y16757   2.623   4.228   6.543 -0.2842 -1.1513  0.0939
  141DOPC  H18Z16758   2.463   4.269   6.611 -0.9043 -0.0157  0.2749
  142DOPC     N16759   5.619   3.423   7.296  0.4471  0.1632 -0.3815
  142DOPC   C1216760   5.580   3.442   7.152 -0.0798 -0.7595 -0.2917
  142DOPC  H12A16761   5.666   3.401   7.102  0.3739 -1.7224  1.1884
  142DOPC  H12B16762   5.564   3.547   7.134  2.0261 -0.4173 -0.5132
  142DOPC   C1316763   5.505   3.473   7.376  0.0112  0.6130 -0.5471
  142DOPC  H13A16764   5.528   3.450   7.479  0.4096 -0.5548 -0.8770
  142DOPC  H13B16765   5.497   3.580   7.364  1.8360  0.6778 -1.6081
  142DOPC  H13C16766   5.410   3.427   7.355 -0.1525  0.0898  1.1553
  142DOPC   C1416767   5.742   3.501   7.331  0.4972 -0.8405  0.0980
  142DOPC  H14A16768   5.726   3.605   7.305 -0.6257 -1.6263 -2.6895
  142DOPC  H14B16769   5.760   3.497   7.438 -0.1745 -0.7752  0.2143
  142DOPC  H14C16770   5.824   3.460   7.274 -0.7429 -0.8257 -1.7833
  142DOPC   C1516771   5.645   3.276   7.323 -0.0636  0.1516 -0.2578
  142DOPC  H15A16772   5.730   3.245   7.264  1.9540  1.8721  1.5598
  142DOPC  H15B16773   5.555   3.220   7.301 -0.1521  0.3991 -0.5264
  142DOPC  H15C16774   5.672   3.269   7.427  3.4229  1.3514 -0.9460
  142DOPC   C1116775   5.458   3.371   7.093 -0.2171 -0.0985  0.0016
  142DOPC  H11A16776   5.477   3.372   6.984 -0.2925  0.6523 -0.0046
  142DOPC  H11B16777   5.453   3.268   7.136 -1.5289  0.7079  1.8995
  142DOPC     P16778   5.269   3.558   7.069 -0.0494 -0.2870  0.1570
  142DOPC   O1316779   5.349   3.681   7.090  0.0997  0.3232 -0.0968
  142DOPC   O1416780   5.131   3.569   7.116  0.6626  0.4776  0.3142
  142DOPC   O1216781   5.334   3.432   7.137  0.0966  0.0839 -0.4800
  142DOPC   O1116782   5.277   3.519   6.915 -0.1863 -0.7220 -0.5609
  142DOPC    C116783   5.154   3.460   6.864 -0.2471  0.0479  0.6279
  142DOPC    HA16784   5.062   3.467   6.925 -0.1462 -0.9943  0.9304
  142DOPC    HB16785   5.164   3.353   6.834 -0.4138 -0.3495  1.9266
  142DOPC    C216786   5.111   3.534   6.730 -0.4434 -0.4158 -0.0975
  142DOPC    HS16787   5.001   3.525   6.717 -0.0437 -1.7121 -3.5423
  142DOPC   O2116788   5.175   3.482   6.610 -0.6094  0.4508 -0.0052
  142DOPC   C2116789   5.111   3.393   6.549  0.2275  0.3102 -0.3378
  142DOPC   O2216790   4.997   3.347   6.573 -0.1326  0.3920  0.8592
  142DOPC   C2216791   5.211   3.340   6.439 -0.4337 -0.4569  0.7927
  142DOPC   H2R16792   5.265   3.430   6.403 -1.9202  1.0164  2.0767
  142DOPC   H2S16793   5.158   3.294   6.353  0.7739  1.1365 -0.8919
  142DOPC    C316794   5.126   3.688   6.741 -0.4359 -0.3189 -0.3611
  142DOPC    HX16795   5.228   3.725   6.761 -0.9734 -0.4007  3.0189
  142DOPC    HY16796   5.082   3.715   6.839  2.6061 -0.9612  1.3150
  142DOPC   O3116797   5.065   3.758   6.637 -0.3393  0.2657 -0.3679
  142DOPC   C3116798   5.143   3.811   6.541  0.1435 -0.0289 -0.5417
  142DOPC   O3216799   5.264   3.818   6.541 -0.0865 -0.4828  0.2275
  142DOPC   C3216800   5.061   3.870   6.427  0.2074 -0.1414  0.9579
  142DOPC   H2X16801   4.962   3.819   6.426  0.3407 -0.4012  0.2430
  142DOPC   H2Y16802   5.047   3.979   6.439 -1.9123 -0.2952  0.2966
  142DOPC   C2316803   5.307   3.242   6.507  0.4225 -0.1069 -0.2921
  142DOPC   H3R16804   5.315   3.261   6.616  2.5241  0.1459 -0.4575
  142DOPC   H3S16805   5.410   3.237   6.468  0.3028 -3.0708 -0.4278
  142DOPC   C2416806   5.255   3.094   6.496 -0.3482 -0.2800  0.1041
  142DOPC   H4R16807   5.146   3.099   6.478 -0.0713  2.4733 -1.4282
  142DOPC   H4S16808   5.282   3.037   6.587 -0.4838 -1.4573 -0.5790
  142DOPC   C2516809   5.307   3.003   6.384  0.1566  0.4324  0.8002
  142DOPC   H5R16810   5.255   2.905   6.386  0.7962  0.0045 -1.0504
  142DOPC   H5S16811   5.413   2.983   6.406  0.7341  0.7933 -1.3888
  142DOPC   C2616812   5.292   3.065   6.240 -0.2092 -0.1770 -0.2793
  142DOPC   H6R16813   5.349   3.159   6.228  0.1041 -0.3568 -0.2063
  142DOPC   H6S16814   5.184   3.089   6.227 -0.1306 -0.0462 -0.6841
  142DOPC   C2716815   5.344   2.956   6.137 -0.4583  0.2902  0.1687
  142DOPC   H7R16816   5.264   2.879   6.135  1.7145 -2.1418  0.2684
  142DOPC   H7S16817   5.438   2.903   6.165  0.1325  0.7572 -0.8964
  142DOPC   C2816818   5.362   3.012   6.000 -0.2406 -0.2675 -0.5193
  142DOPC   H8R16819   5.455   3.072   6.000 -0.8969  0.7717 -0.3444
  142DOPC   H8S16820   5.279   3.085   5.987  1.1665  1.8487  1.5506
  142DOPC   C2916821   5.359   2.907   5.885 -0.0190  0.6645 -0.5643
  142DOPC   H9R16822   5.300   2.815   5.888  0.3055  0.4303 -1.2621
  142DOPC  C21016823   5.419   2.934   5.770  0.1425  0.7805  0.9495
  142DOPC  H10R16824   5.443   2.848   5.706  0.5629  2.2030 -0.8954
  142DOPC  C21116825   5.502   3.054   5.732  0.9199  0.7026  0.0357
  142DOPC  H11R16826   5.455   3.143   5.778 -0.7363  0.2475 -0.6869
  142DOPC  H11S16827   5.500   3.069   5.622  0.3679  0.3224 -0.0089
  142DOPC  C21216828   5.646   3.057   5.786 -0.3653  0.1922 -0.1729
  142DOPC  H12R16829   5.643   3.022   5.892  0.6012  0.5740 -0.0110
  142DOPC  H12S16830   5.687   3.160   5.783 -1.6102  0.7653  1.0646
  142DOPC  C21316831   5.753   2.974   5.703 -0.6802  0.6311  0.3194
  142DOPC  H13R16832   5.717   2.870   5.722 -0.3647  0.6539  1.0684
  142DOPC  H13S16833   5.845   2.977   5.766  0.8734 -0.8299 -1.7252
  142DOPC  C21416834   5.779   3.013   5.558 -0.1292  0.5806 -0.1503
  142DOPC  H14R16835   5.811   3.119   5.551 -1.7706  1.0951 -0.3311
  142DOPC  H14S16836   5.681   3.011   5.505  0.5133 -0.7940 -1.3320
  142DOPC  C21516837   5.885   2.920   5.499  0.2864  1.1534  0.7870
  142DOPC  H15R16838   5.848   2.816   5.501 -0.5237  1.2997 -1.9054
  142DOPC  H15S16839   5.976   2.932   5.561 -0.0812  2.0459  1.1745
  142DOPC  C21616840   5.921   2.937   5.354 -0.4149 -0.2041 -0.2599
  142DOPC  H16R16841   6.013   2.881   5.326 -0.6263 -1.7418  1.9174
  142DOPC  H16S16842   5.946   3.045   5.339 -0.6292 -0.3394 -1.8171
  142DOPC  C21716843   5.809   2.897   5.260 -0.2191  0.5179 -0.5291
  142DOPC  H17R16844   5.724   2.963   5.286 -0.6282 -0.5359  0.9237
  142DOPC  H17S16845   5.783   2.790   5.275  2.2127  0.1108  1.4567
  142DOPC  C21816846   5.850   2.901   5.120 -0.4355  0.0458  0.0288
  142DOPC  H18R16847   5.936   2.834   5.097  1.2218  1.4385  1.8596
  142DOPC  H18S16848   5.881   3.003   5.088 -1.4541  1.0789  2.1243
  142DOPC  H18T16849   5.767   2.867   5.054  1.3528 -3.2905 -0.7480
  142DOPC   C3316850   5.137   3.841   6.292  0.2709 -0.1424 -0.3629
  142DOPC   H3X16851   5.144   3.733   6.266  1.4845  0.5869 -3.4636
  142DOPC   H3Y16852   5.242   3.877   6.297 -0.0889  1.0812 -1.1614
  142DOPC   C3416853   5.072   3.920   6.174  0.5929  0.1183 -0.2132
  142DOPC   H4X16854   5.065   4.024   6.212  0.3397 -0.6789  2.0860
  142DOPC   H4Y16855   4.966   3.888   6.165  0.7323 -0.3373 -0.2332
  142DOPC   C3516856   5.153   3.900   6.043  1.1164 -0.2467  0.2073
  142DOPC   H5X16857   5.193   3.797   6.034  1.8693 -0.1996  2.4846
  142DOPC   H5Y16858   5.238   3.971   6.047 -0.3433  1.5812  0.0130
  142DOPC   C3616859   5.065   3.939   5.918 -0.7525  0.6847 -0.5301
  142DOPC   H6X16860   5.135   3.945   5.831  1.0738 -1.0681  0.7341
  142DOPC   H6Y16861   4.998   3.852   5.905  1.9548 -1.3718 -1.7901
  142DOPC   C3716862   4.982   4.069   5.914 -0.2867  0.3818  0.0903
  142DOPC   H7X16863   4.933   4.079   6.013 -0.4602  0.0824  0.0360
  142DOPC   H7Y16864   5.053   4.154   5.911 -0.5436  0.5752 -0.8001
  142DOPC   C3816865   4.886   4.060   5.790 -0.0626 -0.0515  0.0396
  142DOPC   H8X16866   4.794   4.120   5.807 -1.4071 -1.7260 -1.0046
  142DOPC   H8Y16867   4.837   3.961   5.781 -1.7597  0.5959  1.5380
  142DOPC   C3916868   4.948   4.116   5.667  0.4364 -0.1240 -0.2179
  142DOPC   H9X16869   5.054   4.093   5.653  0.1470 -0.4994 -1.9422
  142DOPC  C31016870   4.893   4.180   5.564  0.9700 -0.1915 -0.9198
  142DOPC  H10X16871   4.955   4.203   5.476  2.1476 -0.2104 -0.1161
  142DOPC  C31116872   4.750   4.204   5.548  0.0163  0.4365 -0.1625
  142DOPC  H11X16873   4.727   4.253   5.645  0.9587  0.1364  0.2265
  142DOPC  H11Y16874   4.694   4.110   5.531  0.7018  0.2012 -1.2333
  142DOPC  C31216875   4.709   4.291   5.426 -0.2527  0.1954 -0.2720
  142DOPC  H12X16876   4.768   4.385   5.429  2.1578 -1.2199 -0.6273
  142DOPC  H12Y16877   4.605   4.324   5.446  1.0258  3.6527  1.5197
  142DOPC  C31316878   4.726   4.217   5.292  0.5010  0.2178 -0.4659
  142DOPC  H13X16879   4.829   4.180   5.277  0.8710  1.1002 -0.1564
  142DOPC  H13Y16880   4.646   4.139   5.295 -0.9490  1.5813 -1.9539
  142DOPC  C31416881   4.690   4.306   5.175 -0.4126 -0.7437  0.1079
  142DOPC  H14X16882   4.579   4.315   5.176 -0.5342 -2.0266  0.6558
  142DOPC  H14Y16883   4.731   4.405   5.203 -1.3542 -0.3447  0.1237
  142DOPC  C31516884   4.718   4.251   5.041  0.1861  0.0483  0.3336
  142DOPC  H15X16885   4.685   4.145   5.037 -0.2476  0.2081 -3.9118
  142DOPC  H15Y16886   4.826   4.236   5.019 -0.3473 -4.4684 -0.1194
  142DOPC  C31616887   4.657   4.328   4.919  0.0261 -0.4220  0.1055
  142DOPC  H16X16888   4.547   4.313   4.914  0.3250 -2.8109 -0.7727
  142DOPC  H16Y16889   4.674   4.437   4.911  2.5297 -0.8039 -0.5555
  142DOPC  C31716890   4.705   4.258   4.791 -0.6318  0.0424  0.2149
  142DOPC  H17X16891   4.813   4.280   4.792 -0.6355  0.0450  1.6903
  142DOPC  H17Y16892   4.684   4.148   4.794 -0.5149  0.0249  0.3564
  142DOPC  C31816893   4.637   4.324   4.668 -0.2127  0.2642 -0.2563
  142DOPC  H18X16894   4.682   4.287   4.573 -0.7034  0.4035 -0.5435
  142DOPC  H18Y16895   4.531   4.294   4.678 -0.2254  0.2270 -0.5026
  142DOPC  H18Z16896   4.649   4.435   4.675  0.8561  0.1286  0.2959
  143DOPC     N16897   2.147   4.997   7.215  0.8762 -0.5829  0.8266
  143DOPC   C1216898   2.045   4.899   7.164 -0.7443  0.0354 -0.1381
  143DOPC  H12A16899   2.009   4.937   7.070 -1.4775  0.3157  0.2495
  143DOPC  H12B16900   1.957   4.890   7.225 -1.2271 -1.9331 -1.0330
  143DOPC   C1316901   2.263   4.996   7.120 -0.7021 -0.6213  0.1327
  143DOPC  H13A16902   2.305   4.896   7.121 -1.1292 -0.8288 -1.2153
  143DOPC  H13B16903   2.233   5.014   7.018 -0.9376  0.8412  0.4458
  143DOPC  H13C16904   2.337   5.072   7.141 -1.6038  1.1694 -2.6711
  143DOPC   C1416905   2.189   4.974   7.348  0.1878  0.1574 -0.2172
  143DOPC  H14A16906   2.186   4.867   7.357  0.8111 -0.1638 -2.8196
  143DOPC  H14B16907   2.290   5.002   7.373  0.1914  1.2182 -1.3006
  143DOPC  H14C16908   2.129   5.016   7.427 -0.7458  0.2165 -0.9355
  143DOPC   C1516909   2.091   5.141   7.216 -0.7919 -0.1277 -0.1988
  143DOPC  H15A16910   2.006   5.156   7.281 -0.1302  3.2077  0.0461
  143DOPC  H15B16911   2.053   5.180   7.123 -2.8863 -0.1217  0.6196
  143DOPC  H15C16912   2.175   5.199   7.253  1.3247 -3.1352  0.0939
  143DOPC   C1116913   2.095   4.749   7.133  0.1552 -0.8019  0.2844
  143DOPC  H11A16914   2.006   4.698   7.091 -1.2377  0.4666  1.5678
  143DOPC  H11B16915   2.171   4.763   7.054 -0.4504 -1.8336 -0.4907
  143DOPC     P16916   2.083   4.588   7.332  0.0937  0.6731 -0.0690
  143DOPC   O1316917   1.942   4.622   7.332  0.1405 -0.0923  0.2997
  143DOPC   O1416918   2.138   4.576   7.467  0.9252 -0.1977  0.4775
  143DOPC   O1216919   2.158   4.691   7.243 -0.4305 -0.2701 -0.1324
  143DOPC   O1116920   2.096   4.462   7.241  0.3020 -0.1111  0.6481
  143DOPC    C116921   2.022   4.341   7.271  0.0347 -0.5457 -0.2663
  143DOPC    HA16922   1.921   4.371   7.304  0.8165  0.6584  1.1499
  143DOPC    HB16923   2.058   4.286   7.361  4.0698  0.8346 -0.8351
  143DOPC    C216924   2.020   4.229   7.159 -0.5834 -0.1429 -0.3280
  143DOPC    HS16925   1.987   4.137   7.210  1.6332 -1.1620 -0.6099
  143DOPC   O2116926   2.158   4.213   7.113  0.0049 -0.0528  0.1629
  143DOPC   C2116927   2.222   4.122   7.188 -1.1571 -0.2812 -0.5907
  143DOPC   O2216928   2.192   4.068   7.291 -0.2398  0.5403 -0.3220
  143DOPC   C2216929   2.349   4.097   7.103  0.4660 -0.8053 -0.2258
  143DOPC   H2R16930   2.423   4.173   7.138 -1.6968  0.6438  1.4813
  143DOPC   H2S16931   2.324   4.114   6.996 -1.6102 -0.6585  0.2456
  143DOPC    C316932   1.923   4.255   7.050  0.7879  0.5572  0.3277
  143DOPC    HX16933   1.965   4.324   6.974  1.4352 -0.3357 -0.1384
  143DOPC    HY16934   1.836   4.313   7.088  1.1100  1.6382 -0.5324
  143DOPC   O3116935   1.892   4.128   6.987 -0.0383  0.1387 -0.5740
  143DOPC   C3116936   1.782   4.068   7.038  0.4881  0.6040  0.8473
  143DOPC   O3216937   1.707   4.122   7.115 -0.0497  0.0430 -0.0681
  143DOPC   C3216938   1.765   3.932   6.979  0.7021  0.5685  0.8832
  143DOPC   H2X16939   1.855   3.911   6.917  0.4032  1.1996  0.2260
  143DOPC   H2Y16940   1.770   3.845   7.049 -1.7344 -0.8704 -0.5852
  143DOPC   C2316941   2.421   3.956   7.120  0.0894  0.2602  0.3374
  143DOPC   H3R16942   2.419   3.923   7.226 -0.5849  2.2408  0.9876
  143DOPC   H3S16943   2.527   3.968   7.090 -0.1689  0.2103 -0.6221
  143DOPC   C2416944   2.360   3.850   7.035 -0.9462  0.4764  0.0668
  143DOPC   H4R16945   2.371   3.869   6.926 -0.8822 -2.0758 -0.4473
  143DOPC   H4S16946   2.255   3.826   7.064 -1.3434  0.7614 -1.0610
  143DOPC   C2516947   2.443   3.720   7.053  0.2279 -0.3818  0.3196
  143DOPC   H5R16948   2.416   3.677   7.152  0.6928 -0.4479  0.4188
  143DOPC   H5S16949   2.551   3.744   7.043  0.6141 -2.2201 -0.2845
  143DOPC   C2616950   2.400   3.618   6.942  0.2104  0.0037 -0.4239
  143DOPC   H6R16951   2.425   3.659   6.842 -0.5939  0.3810 -0.4735
  143DOPC   H6S16952   2.290   3.606   6.950  0.2175 -1.3551 -1.6728
  143DOPC   C2716953   2.456   3.479   6.966 -0.3085 -0.8469 -0.4017
  143DOPC   H7R16954   2.452   3.448   7.072  1.1813  1.1152  0.2825
  143DOPC   H7S16955   2.567   3.483   6.957 -0.3345 -0.4175 -0.5512
  143DOPC   C2816956   2.412   3.379   6.863  0.7632 -0.3645 -0.0405
  143DOPC   H8R16957   2.344   3.309   6.916  0.9163 -2.1836 -2.0756
  143DOPC   H8S16958   2.500   3.314   6.845 -0.4289 -2.5247  1.4775
  143DOPC   C2916959   2.342   3.416   6.733  0.2878  0.1742  0.3021
  143DOPC   H9R16960   2.256   3.482   6.745  0.1758 -0.0376  0.7006
  143DOPC  C21016961   2.386   3.388   6.611  0.3747 -0.2211  1.0872
  143DOPC  H10R16962   2.323   3.426   6.530  0.3109 -1.4780  0.5313
  143DOPC  C21116963   2.500   3.300   6.571  0.0537  0.3976  0.5073
  143DOPC  H11R16964   2.486   3.240   6.478  0.3341 -1.3009  1.5101
  143DOPC  H11S16965   2.525   3.224   6.649 -2.2800  0.1028  1.0271
  143DOPC  C21216966   2.629   3.381   6.523  0.5990  0.6840 -0.8050
  143DOPC  H12R16967   2.588   3.459   6.456 -1.7087  0.2404 -0.0310
  143DOPC  H12S16968   2.712   3.316   6.490  1.2241  1.6728 -1.1958
  143DOPC  C21316969   2.686   3.468   6.642  0.0064 -0.1723 -0.3931
  143DOPC  H13R16970   2.718   3.409   6.731 -0.1174 -1.5693 -1.2418
  143DOPC  H13S16971   2.608   3.536   6.682 -0.6493 -0.8341 -0.5287
  143DOPC  C21416972   2.809   3.550   6.589  0.9422  0.1342  0.7354
  143DOPC  H14R16973   2.767   3.615   6.509  0.6289  1.8281  2.2259
  143DOPC  H14S16974   2.881   3.474   6.553  0.8836  0.2282  0.4118
  143DOPC  C21516975   2.866   3.653   6.687  0.1258 -0.3317 -0.1629
  143DOPC  H15R16976   2.937   3.714   6.626  1.3791 -2.2018 -0.6699
  143DOPC  H15S16977   2.910   3.591   6.768 -0.0098  0.0584  0.2095
  143DOPC  C21616978   2.761   3.749   6.746  0.2745  0.3099  0.8269
  143DOPC  H16R16979   2.806   3.831   6.807  0.8762  0.7609 -0.2128
  143DOPC  H16S16980   2.686   3.697   6.810  1.0150 -1.0477  0.6172
  143DOPC  C21716981   2.665   3.809   6.640 -0.0610 -0.2638  0.3100
  143DOPC  H17R16982   2.597   3.742   6.583 -0.0353  2.3627 -3.1718
  143DOPC  H17S16983   2.735   3.864   6.573  2.0456 -1.7375  1.2119
  143DOPC  C21816984   2.572   3.916   6.696  0.5052  0.1983  0.8064
  143DOPC  H18R16985   2.520   3.867   6.782  0.4288  0.7520  1.0771
  143DOPC  H18S16986   2.504   3.961   6.620  2.6821  1.7484 -0.3226
  143DOPC  H18T16987   2.637   3.995   6.738 -0.4389  0.2895  2.1734
  143DOPC   C3316988   1.633   3.922   6.902 -0.8868 -0.4824 -0.7874
  143DOPC   H3X16989   1.546   3.936   6.969  1.2676 -1.2594  2.3942
  143DOPC   H3Y16990   1.629   3.821   6.855  1.0239 -1.5197  1.0672
  143DOPC   C3416991   1.619   4.028   6.791 -0.3580 -0.2803  0.3087
  143DOPC   H4X16992   1.640   4.132   6.825 -1.9308  0.3000 -0.3682
  143DOPC   H4Y16993   1.519   4.018   6.744  0.0839 -1.1872 -0.4712
  143DOPC   C3516994   1.721   4.015   6.671  0.0281  0.1547 -0.0638
  143DOPC   H5X16995   1.700   3.917   6.622  1.5681 -0.4596  0.4380
  143DOPC   H5Y16996   1.829   4.019   6.699  0.2885  1.0860 -1.1108
  143DOPC   C3616997   1.705   4.128   6.571  0.0650  0.9796  0.4320
  143DOPC   H6X16998   1.603   4.112   6.528  0.0126 -0.2940  0.9718
  143DOPC   H6Y16999   1.709   4.226   6.623 -2.7377  2.4621 -1.8333
  143DOPC   C3717000   1.813   4.119   6.456 -0.5007  0.6584  0.3128
  143DOPC   H7X17001   1.911   4.151   6.498  0.1420  0.3377 -0.9071
  143DOPC   H7Y17002   1.816   4.015   6.417  1.0789  0.7223  0.2134
  143DOPC   C3817003   1.765   4.215   6.342  0.1691 -0.1550  0.2089
  143DOPC   H8X17004   1.852   4.238   6.277 -1.6617  1.8952 -1.6640
  143DOPC   H8Y17005   1.721   4.307   6.386 -0.9201 -0.0585 -1.0454
  143DOPC   C3917006   1.657   4.165   6.249 -0.0587  0.3125  0.3874
  143DOPC   H9X17007   1.563   4.220   6.263  0.9758  2.0957  0.6686
  143DOPC  C31017008   1.658   4.068   6.161 -0.5750 -0.5022  0.7391
  143DOPC  H10X17009   1.568   4.042   6.103  0.5840  1.1527 -1.9838
  143DOPC  C31117010   1.766   3.970   6.128  0.2802 -0.1212 -0.2196
  143DOPC  H11X17011   1.711   3.875   6.145 -1.0991  0.5610 -0.6789
  143DOPC  H11Y17012   1.854   3.980   6.196 -0.7598 -0.1165  1.1729
  143DOPC  C31217013   1.817   3.972   5.984  0.4617  0.6123 -0.4482
  143DOPC  H12X17014   1.731   3.951   5.917 -0.3587  0.9188  0.4758
  143DOPC  H12Y17015   1.871   3.876   5.991 -1.4171 -0.3966  4.0429
  143DOPC  C31317016   1.902   4.094   5.946 -0.1729  0.5786 -0.6256
  143DOPC  H13X17017   1.850   4.190   5.969  0.4434  0.4669  1.4813
  143DOPC  H13Y17018   1.992   4.091   6.011 -1.2450 -1.4631  0.9034
  143DOPC  C31417019   1.946   4.100   5.800  0.7463 -0.1276  0.4151
  143DOPC  H14X17020   2.018   4.016   5.796  0.0598 -0.7066 -0.1566
  143DOPC  H14Y17021   1.859   4.077   5.734  1.7769 -1.7161 -0.4538
  143DOPC  C31517022   2.017   4.229   5.757 -0.5557 -0.0883 -0.0045
  143DOPC  H15X17023   2.110   4.221   5.817 -0.3870 -0.4330 -0.3088
  143DOPC  H15Y17024   1.953   4.319   5.771  0.2767  0.5066  0.0730
  143DOPC  C31617025   2.076   4.222   5.611  0.3644 -0.4316 -0.2321
  143DOPC  H16X17026   2.118   4.119   5.621  1.2478 -0.2524 -1.8100
  143DOPC  H16Y17027   1.998   4.220   5.533 -0.2782 -0.3187  0.3998
  143DOPC  C31717028   2.203   4.309   5.585  0.0853 -0.0752 -0.0178
  143DOPC  H17X17029   2.166   4.413   5.596 -0.7980 -0.4346  0.6047
  143DOPC  H17Y17030   2.287   4.291   5.656  0.1094  2.0637  0.5564
  143DOPC  C31817031   2.245   4.277   5.440 -0.0632 -0.4931  0.2831
  143DOPC  H18X17032   2.298   4.180   5.430 -0.1084 -0.4324 -0.6512
  143DOPC  H18Y17033   2.160   4.275   5.368  0.7095 -0.6466 -0.6446
  143DOPC  H18Z17034   2.313   4.355   5.398 -0.9065 -0.0201 -0.2250
  144DOPC     N17035   1.368   1.992   6.938  0.2588  0.3927 -0.1328
  144DOPC   C1217036   1.504   1.970   6.882 -0.5369  0.2720  0.4288
  144DOPC  H12A17037   1.507   1.876   6.829 -0.4320  0.8138 -0.5403
  144DOPC  H12B17038   1.559   1.959   6.974 -0.4652 -1.1973  0.2426
  144DOPC   C1317039   1.314   1.865   7.004  0.3097  0.0955 -0.3359
  144DOPC  H13A17040   1.349   1.845   7.104 -1.1103  0.5314  0.2704
  144DOPC  H13B17041   1.207   1.877   7.010  0.4701  1.4002  0.2852
  144DOPC  H13C17042   1.340   1.785   6.936 -1.7593  0.4176 -1.5826
  144DOPC   C1417043   1.281   2.025   6.817 -1.0663  0.6927 -0.9248
  144DOPC  H14A17044   1.175   2.014   6.835 -0.8043 -0.3105  0.1251
  144DOPC  H14B17045   1.295   2.126   6.784 -0.1104  0.6668 -0.6226
  144DOPC  H14C17046   1.298   1.957   6.734 -1.3270 -1.6416  0.8178
  144DOPC   C1517047   1.369   2.104   7.043  0.5264  0.3597  0.1681
  144DOPC  H15A17048   1.435   2.186   7.019 -0.9774  2.1083  1.6908
  144DOPC  H15B17049   1.404   2.068   7.139  1.5343 -2.9627 -1.2785
  144DOPC  H15C17050   1.268   2.140   7.046  1.6261  3.7731  1.0889
  144DOPC   C1117051   1.564   2.085   6.806  0.0124  0.0250  1.0431
  144DOPC  H11A17052   1.546   2.062   6.699 -0.2555  0.8870  0.8965
  144DOPC  H11B17053   1.514   2.180   6.834 -1.2996 -0.8573  1.8091
  144DOPC     P17054   1.783   2.118   6.949 -0.3532  0.0630  0.2328
  144DOPC   O1317055   1.914   2.047   6.952  0.0507  0.5522  0.2125
  144DOPC   O1417056   1.687   2.087   7.061 -0.7801  0.1994  0.4283
  144DOPC   O1217057   1.707   2.095   6.816 -0.4061 -0.8215  0.1755
  144DOPC   O1117058   1.811   2.277   6.948  0.2592 -0.0191  0.5433
  144DOPC    C117059   1.744   2.369   6.856 -0.1043  0.2768 -0.3123
  144DOPC    HA17060   1.698   2.456   6.907  0.7610  1.9556 -2.2167
  144DOPC    HB17061   1.648   2.333   6.815 -0.4506 -0.0126  0.7329
  144DOPC    C217062   1.843   2.418   6.745  1.2926  0.1022  0.3484
  144DOPC    HS17063   1.807   2.502   6.682  2.9091  0.0800 -0.6816
  144DOPC   O2117064   1.884   2.305   6.665 -0.2057  0.2303  0.1967
  144DOPC   C2117065   1.786   2.260   6.583  0.5403  0.6232 -0.4259
  144DOPC   O2217066   1.674   2.307   6.578 -0.4424  0.3148  0.8299
  144DOPC   C2217067   1.832   2.129   6.502  0.4560  0.3269 -0.4167
  144DOPC   H2R17068   1.791   2.042   6.557  1.5216 -0.9522 -1.5929
  144DOPC   H2S17069   1.943   2.126   6.511  0.4754 -2.5628 -0.6562
  144DOPC    C317070   1.980   2.460   6.806  0.2050 -0.2407 -0.8330
  144DOPC    HX17071   2.032   2.371   6.847 -0.0940 -0.4084 -0.8158
  144DOPC    HY17072   1.952   2.531   6.887 -1.2753  1.3316 -2.6432
  144DOPC   O3117073   2.054   2.536   6.710  0.5374 -1.0428  0.2205
  144DOPC   C3117074   2.121   2.470   6.614  0.2165 -0.9998  0.3287
  144DOPC   O3217075   2.139   2.351   6.609 -0.0277  0.4897  0.2146
  144DOPC   C3217076   2.191   2.575   6.527 -0.6536  0.2372 -0.7218
  144DOPC   H2X17077   2.110   2.642   6.493 -1.0199 -0.8955 -2.1510
  144DOPC   H2Y17078   2.272   2.628   6.581 -1.4953  2.4256 -1.4963
  144DOPC   C2317079   1.788   2.119   6.351  0.4171 -1.2191 -0.0798
  144DOPC   H3R17080   1.678   2.104   6.337 -0.1725  1.6731  0.7595
  144DOPC   H3S17081   1.830   2.030   6.300  0.7400 -0.5182 -1.0584
  144DOPC   C2417082   1.827   2.241   6.263  0.2197 -0.7137  0.8900
  144DOPC   H4R17083   1.925   2.278   6.299  0.4850  1.3351 -1.7086
  144DOPC   H4S17084   1.759   2.329   6.271 -0.5300 -1.0569 -1.0781
  144DOPC   C2517085   1.834   2.191   6.108  0.0408 -0.5126 -0.2952
  144DOPC   H5R17086   1.727   2.191   6.080 -0.1842  0.0240  0.5561
  144DOPC   H5S17087   1.890   2.094   6.105 -0.3174 -0.7679  0.8880
  144DOPC   C2617088   1.903   2.304   6.037 -0.4449 -0.4050 -0.4375
  144DOPC   H6R17089   1.995   2.323   6.097 -1.4078  0.5994  0.7981
  144DOPC   H6S17090   1.832   2.390   6.038  0.7815  0.6426 -0.5412
  144DOPC   C2717091   1.941   2.265   5.891  0.1849 -0.3660 -0.4526
  144DOPC   H7R17092   1.850   2.232   5.836 -0.1928  0.4936 -0.3683
  144DOPC   H7S17093   2.015   2.182   5.889 -0.2047 -0.7123 -0.5727
  144DOPC   C2817094   2.001   2.389   5.817  0.2914 -0.0917 -0.1471
  144DOPC   H8R17095   2.090   2.427   5.872  1.4827  0.4027 -2.3098
  144DOPC   H8S17096   1.921   2.465   5.814 -0.1676 -0.6053 -1.3774
  144DOPC   C2917097   2.030   2.352   5.669 -0.1574 -0.3685 -0.0480
  144DOPC   H9R17098   2.098   2.269   5.646  0.7533  0.8068 -1.8318
  144DOPC  C21017099   1.976   2.418   5.560  0.5589  0.1064 -0.1133
  144DOPC  H10R17100   1.989   2.369   5.462 -3.0678  0.1653 -0.7448
  144DOPC  C21117101   1.866   2.524   5.549  0.2692  0.0806  0.1784
  144DOPC  H11R17102   1.829   2.545   5.652  0.6449  4.2361 -0.3575
  144DOPC  H11S17103   1.782   2.471   5.500 -0.4842 -0.4997  2.0210
  144DOPC  C21217104   1.903   2.653   5.472 -0.3876  0.0887  0.0356
  144DOPC  H12R17105   1.997   2.698   5.512 -1.7203  0.8960  2.4757
  144DOPC  H12S17106   1.825   2.726   5.504  0.4200  0.3352  1.5779
  144DOPC  C21317107   1.898   2.645   5.318  0.1134 -0.5361  0.4682
  144DOPC  H13R17108   1.795   2.616   5.286 -0.9421  0.4771  2.6805
  144DOPC  H13S17109   1.960   2.558   5.287  1.0154  0.3474 -0.2498
  144DOPC  C21417110   1.957   2.759   5.233  1.0893 -0.0337  1.0847
  144DOPC  H14R17111   1.953   2.731   5.125 -0.6080  2.5263  0.3871
  144DOPC  H14S17112   2.059   2.778   5.273  2.4113 -0.6829 -1.7350
  144DOPC  C21517113   1.887   2.901   5.238  1.2154  0.1931 -0.2913
  144DOPC  H15R17114   1.958   2.980   5.205  0.1731  0.9409 -0.7829
  144DOPC  H15S17115   1.874   2.923   5.346  0.2403 -1.9825  0.0980
  144DOPC  C21617116   1.760   2.907   5.149 -0.5515  0.2060 -0.3966
  144DOPC  H16R17117   1.686   2.830   5.178 -0.3343  0.0891 -0.1527
  144DOPC  H16S17118   1.795   2.891   5.045 -0.8130 -0.3384 -0.4061
  144DOPC  C21717119   1.692   3.042   5.165  0.0100  0.4039 -0.3703
  144DOPC  H17R17120   1.751   3.131   5.134 -0.6145  0.5937 -1.0233
  144DOPC  H17S17121   1.671   3.040   5.274  1.1457  0.6118 -0.1354
  144DOPC  C21817122   1.559   3.054   5.087  0.3090  1.0131  0.2123
  144DOPC  H18R17123   1.482   2.981   5.119  0.1683  0.7613 -0.6697
  144DOPC  H18S17124   1.574   3.050   4.977 -2.5173  1.9811 -0.2736
  144DOPC  H18T17125   1.526   3.159   5.101  1.6679  1.7569 -1.6992
  144DOPC   C3317126   2.249   2.505   6.401  0.7662 -0.0319 -0.3622
  144DOPC   H3X17127   2.161   2.483   6.337  0.7530 -0.6266 -0.1461
  144DOPC   H3Y17128   2.303   2.408   6.412  0.4617  0.0329  2.3401
  144DOPC   C3417129   2.331   2.609   6.326 -0.9211 -0.6629  0.2929
  144DOPC   H4X17130   2.429   2.613   6.378 -0.4750 -2.1928 -0.3660
  144DOPC   H4Y17131   2.286   2.708   6.348 -1.0624 -0.5473 -0.4966
  144DOPC   C3517132   2.337   2.598   6.172  0.5180  0.4172 -0.7058
  144DOPC   H5X17133   2.234   2.614   6.134 -0.2613 -2.2291  0.1121
  144DOPC   H5Y17134   2.359   2.491   6.153  0.6270 -0.2409  2.6327
  144DOPC   C3617135   2.444   2.687   6.107  0.6705 -0.3217 -0.7150
  144DOPC   H6X17136   2.414   2.792   6.129 -1.9649 -0.3124 -3.6677
  144DOPC   H6Y17137   2.534   2.669   6.169 -0.1215 -0.8995  0.2910
  144DOPC   C3717138   2.471   2.666   5.963 -0.0960  0.6697 -0.0884
  144DOPC   H7X17139   2.519   2.567   5.946 -0.7198  0.3298  0.1264
  144DOPC   H7Y17140   2.375   2.647   5.912  0.5230 -1.7776 -0.4648
  144DOPC   C3817141   2.558   2.780   5.899 -0.3706 -0.5285  0.4808
  144DOPC   H8X17142   2.497   2.872   5.900  0.1011 -0.1979 -0.2096
  144DOPC   H8Y17143   2.572   2.763   5.790 -0.4555  1.0582  0.1968
  144DOPC   C3917144   2.690   2.785   5.968 -0.2590 -0.5610 -0.2846
  144DOPC   H9X17145   2.706   2.697   6.032 -3.0640 -0.4761  0.6680
  144DOPC  C31017146   2.790   2.876   5.956  0.1592  0.8681  0.0233
  144DOPC  H10X17147   2.875   2.870   6.026 -0.9645  1.0049  1.4474
  144DOPC  C31117148   2.794   2.984   5.851  0.4196 -0.5907  0.0751
  144DOPC  H11X17149   2.825   3.075   5.907  4.6336 -0.8254 -1.5138
  144DOPC  H11Y17150   2.692   3.007   5.815  0.2083 -1.1892  0.2798
  144DOPC  C31217151   2.909   2.968   5.752  0.1050  0.1338 -0.4623
  144DOPC  H12X17152   3.005   2.938   5.800 -0.5862 -0.4369  0.6075
  144DOPC  H12Y17153   2.922   3.075   5.726 -0.0808 -0.0900 -1.5241
  144DOPC  C31317154   2.872   2.888   5.632 -1.1629  0.1911  0.1320
  144DOPC  H13X17155   2.875   2.782   5.664 -0.8449  0.2898  0.4368
  144DOPC  H13Y17156   2.770   2.914   5.596 -0.6460  0.4085 -1.2679
  144DOPC  C31417157   2.975   2.912   5.522 -0.0503 -0.0890  0.1481
  144DOPC  H14X17158   2.977   3.021   5.502 -2.4213 -0.1304 -0.6628
  144DOPC  H14Y17159   3.076   2.882   5.556  0.4747  1.3314 -0.0863
  144DOPC  C31517160   2.948   2.838   5.383  0.6157  0.2031 -0.4792
  144DOPC  H15X17161   2.857   2.871   5.329  0.8098 -1.1530 -1.7169
  144DOPC  H15Y17162   2.947   2.730   5.409  1.7375  0.3751  0.3877
  144DOPC  C31617163   3.061   2.873   5.280  0.2944  0.0547 -0.3293
  144DOPC  H16X17164   3.080   2.982   5.270  4.2252 -0.6277 -2.0585
  144DOPC  H16Y17165   3.151   2.825   5.322  0.1745  0.3216  0.2508
  144DOPC  C31717166   3.025   2.807   5.148  0.2596  0.2434 -0.2000
  144DOPC  H17X17167   2.978   2.711   5.179 -0.1565  0.9706  1.5279
  144DOPC  H17Y17168   2.948   2.863   5.091 -0.2266  0.0445  0.2520
  144DOPC  C31817169   3.150   2.773   5.060 -0.3367  0.2610 -0.0703
  144DOPC  H18X17170   3.230   2.714   5.109  0.9220  1.6791 -0.3513
  144DOPC  H18Y17171   3.116   2.723   4.966 -0.8768 -0.7464  0.6392
  144DOPC  H18Z17172   3.193   2.871   5.030 -1.0091 -0.2655 -3.0976
  145DOPC     N17173   4.605   5.239   7.324  0.4621 -0.0950  0.0693
  145DOPC   C1217174   4.638   5.280   7.175  1.0569 -0.4144  0.1674
  145DOPC  H12A17175   4.701   5.367   7.176  0.3439  0.1956 -2.1096
  145DOPC  H12B17176   4.545   5.312   7.131  0.0552  0.7040  2.8740
  145DOPC   C1317177   4.728   5.217   7.398 -0.3544  0.3610  0.4319
  145DOPC  H13A17178   4.724   5.177   7.498  3.9526 -1.5181  0.0889
  145DOPC  H13B17179   4.784   5.135   7.356 -1.5154 -0.8467  1.1425
  145DOPC  H13C17180   4.790   5.305   7.407  0.3521 -0.2826  2.4147
  145DOPC   C1417181   4.517   5.113   7.320 -0.1530 -0.5022 -0.4007
  145DOPC  H14A17182   4.447   5.126   7.238 -0.0190  2.2870 -0.1655
  145DOPC  H14B17183   4.574   5.023   7.301  4.3748  2.2554 -1.3781
  145DOPC  H14C17184   4.456   5.103   7.409 -0.4781  2.1029 -0.2473
  145DOPC   C1517185   4.537   5.361   7.388 -0.0663  0.9035 -0.0361
  145DOPC  H15A17186   4.446   5.380   7.332  0.8065  2.7722 -0.9256
  145DOPC  H15B17187   4.612   5.439   7.387  0.3571  0.5694  1.9401
  145DOPC  H15C17188   4.506   5.348   7.490 -0.2812  0.4704 -0.1542
  145DOPC   C1117189   4.716   5.181   7.082  0.4679 -0.6025  0.8204
  145DOPC  H11A17190   4.665   5.082   7.073  0.7983 -0.6648 -0.6928
  145DOPC  H11B17191   4.724   5.225   6.981  1.2871 -0.9486  0.7242
  145DOPC     P17192   4.984   5.191   7.079  0.2261 -0.0828  0.2792
  145DOPC   O1317193   5.094   5.096   7.130  0.9359  0.1254  0.6878
  145DOPC   O1417194   5.004   5.337   7.102  0.2007 -0.5004 -0.6871
  145DOPC   O1217195   4.844   5.144   7.131  0.0191 -0.0435 -0.3076
  145DOPC   O1117196   4.970   5.171   6.926 -0.3474 -0.2052 -0.9601
  145DOPC    C117197   4.968   5.044   6.870 -0.2188 -0.4527 -0.1241
  145DOPC    HA17198   4.861   5.018   6.855 -0.0292 -0.7295 -1.0990
  145DOPC    HB17199   5.009   4.965   6.937  2.4072  0.4230 -0.5677
  145DOPC    C217200   5.031   5.039   6.730 -0.3474  0.7239  0.1961
  145DOPC    HS17201   5.132   5.083   6.740  0.6393 -1.1366 -1.0539
  145DOPC   O2117202   4.958   5.115   6.642 -0.0954 -0.6601 -0.0124
  145DOPC   C2117203   5.018   5.159   6.534 -0.0602 -0.2882  0.5844
  145DOPC   O2217204   5.138   5.169   6.518 -0.2963 -0.2341  0.2247
  145DOPC   C2217205   4.920   5.212   6.435 -0.5933 -0.0649 -0.0354
  145DOPC   H2R17206   4.975   5.297   6.389 -2.6807  0.8831 -0.9413
  145DOPC   H2S17207   4.834   5.263   6.484 -0.2464  2.0881 -1.5048
  145DOPC    C317208   5.047   4.886   6.680  0.2572 -0.0731  0.1605
  145DOPC    HX17209   4.947   4.844   6.702  0.0696  1.6413  3.0598
  145DOPC    HY17210   5.121   4.836   6.746  0.1709 -0.3203  0.0705
  145DOPC   O3117211   5.072   4.877   6.536 -0.2578 -0.9369 -0.3499
  145DOPC   C3117212   5.194   4.843   6.505 -0.2368  0.1873  0.7255
  145DOPC   O3217213   5.291   4.857   6.579 -0.2867 -0.4498 -0.3579
  145DOPC   C3217214   5.190   4.786   6.362  0.2195  0.2215  0.5888
  145DOPC   H2X17215   5.241   4.687   6.369 -1.3779 -0.7296 -0.4696
  145DOPC   H2Y17216   5.085   4.777   6.324  0.9403 -1.4218 -1.2031
  145DOPC   C2317217   4.870   5.119   6.327 -0.0747  0.3739 -0.3855
  145DOPC   H3R17218   4.809   5.036   6.369  2.6922 -1.4087  0.4573
  145DOPC   H3S17219   4.954   5.065   6.279  0.7027  1.2809 -0.0809
  145DOPC   C2417220   4.787   5.181   6.210  0.3221 -0.2433 -0.4106
  145DOPC   H4R17221   4.715   5.250   6.261  2.1857  0.1336  1.8593
  145DOPC   H4S17222   4.724   5.109   6.153 -2.6315  1.8613 -0.0895
  145DOPC   C2517223   4.863   5.273   6.113 -0.1081 -0.0616 -0.0545
  145DOPC   H5R17224   4.933   5.216   6.048  2.3852 -0.6317  2.8689
  145DOPC   H5S17225   4.931   5.330   6.179  0.6787 -0.6973 -0.2928
  145DOPC   C2617226   4.777   5.370   6.030  0.9416  0.0741  1.1696
  145DOPC   H6R17227   4.842   5.440   5.974  2.0164 -1.4271  0.4941
  145DOPC   H6S17228   4.706   5.427   6.094 -1.3483 -0.5515 -0.6699
  145DOPC   C2717229   4.693   5.293   5.926  0.5069  0.0665  0.4884
  145DOPC   H7R17230   4.617   5.369   5.899  0.0996 -0.2477  0.7392
  145DOPC   H7S17231   4.643   5.206   5.974 -1.5217  0.1015 -1.3985
  145DOPC   C2817232   4.785   5.253   5.811 -0.4152 -0.4911  0.2515
  145DOPC   H8R17233   4.871   5.193   5.846  1.6856  2.4832  0.5394
  145DOPC   H8S17234   4.827   5.338   5.754 -0.5422 -1.2650 -1.0552
  145DOPC   C2917235   4.697   5.189   5.708  0.3314  0.6189  0.0469
  145DOPC   H9R17236   4.604   5.153   5.754  1.2781  0.9823  2.3943
  145DOPC  C21017237   4.735   5.157   5.583  0.2063  0.1952  0.7260
  145DOPC  H10R17238   4.650   5.138   5.516  0.5240  2.0539 -0.2704
  145DOPC  C21117239   4.864   5.192   5.520 -0.0220  0.4273  0.2786
  145DOPC  H11R17240   4.922   5.097   5.515 -0.4114  0.2423 -1.9128
  145DOPC  H11S17241   4.926   5.265   5.576  1.9759 -0.8471 -0.1718
  145DOPC  C21217242   4.833   5.242   5.377 -0.1823 -0.6236 -0.4924
  145DOPC  H12R17243   4.922   5.287   5.328 -1.3921  1.5374 -0.8521
  145DOPC  H12S17244   4.768   5.330   5.399 -1.6085 -2.5634  4.3337
  145DOPC  C21317245   4.778   5.142   5.281  0.5497 -0.0308  0.2548
  145DOPC  H13R17246   4.673   5.134   5.316  0.7922 -1.5923  0.6845
  145DOPC  H13S17247   4.832   5.046   5.297  0.2554 -0.5991 -1.8829
  145DOPC  C21417248   4.795   5.179   5.135 -0.2280 -0.7910  0.4460
  145DOPC  H14R17249   4.904   5.166   5.119  0.0009  0.9716  0.3620
  145DOPC  H14S17250   4.769   5.286   5.119  1.5153  0.1839  3.3819
  145DOPC  C21517251   4.715   5.084   5.048  0.0075  0.5456  0.2643
  145DOPC  H15R17252   4.606   5.078   5.071  0.5256 -3.0332  2.6078
  145DOPC  H15S17253   4.754   4.981   5.061  1.3239  0.6642 -2.1831
  145DOPC  C21617254   4.722   5.123   4.906 -0.7194 -0.2294 -0.1820
  145DOPC  H16R17255   4.828   5.103   4.876 -0.7222  0.5747 -0.7705
  145DOPC  H16S17256   4.690   5.227   4.883  0.3270 -0.3020 -2.1909
  145DOPC  C21717257   4.636   5.043   4.807 -0.0387 -0.6990 -0.4557
  145DOPC  H17R17258   4.621   4.936   4.836 -1.9290 -0.5252 -0.6356
  145DOPC  H17S17259   4.685   5.039   4.708 -0.5788  0.2990 -0.7715
  145DOPC  C21817260   4.503   5.109   4.791 -0.1028  0.9446  0.0832
  145DOPC  H18R17261   4.516   5.171   4.699  0.2150  0.7156 -0.0269
  145DOPC  H18S17262   4.473   5.151   4.889  0.1329 -1.9679  1.5118
  145DOPC  H18T17263   4.422   5.036   4.771  1.5551 -0.2161 -3.2573
  145DOPC   C3317264   5.270   4.852   6.252 -0.5275 -0.0326  0.7832
  145DOPC   H3X17265   5.302   4.781   6.172  0.0472 -0.5778  1.4818
  145DOPC   H3Y17266   5.368   4.890   6.288  0.3856 -0.6452 -0.9212
  145DOPC   C3417267   5.210   4.972   6.175 -0.0217  1.0977 -0.0729
  145DOPC   H4X17268   5.169   5.038   6.254  0.8900  0.6661  0.7850
  145DOPC   H4Y17269   5.123   4.939   6.114 -0.1585  1.7436 -0.2278
  145DOPC   C3517270   5.315   5.036   6.086  0.0338 -0.3856  0.3304
  145DOPC   H5X17271   5.359   4.958   6.020 -1.3718 -0.6011 -0.3881
  145DOPC   H5Y17272   5.408   5.071   6.137  0.1195  0.4123 -0.3506
  145DOPC   C3617273   5.279   5.153   5.999 -0.0374  0.2735 -0.5050
  145DOPC   H6X17274   5.245   5.233   6.069 -0.0640  0.4501 -0.7205
  145DOPC   H6Y17275   5.370   5.185   5.945  0.5732 -2.1942 -1.0444
  145DOPC   C3717276   5.168   5.128   5.889 -0.1781  0.7969  0.0351
  145DOPC   H7X17277   5.195   5.035   5.834  3.2574  2.4073 -1.2842
  145DOPC   H7Y17278   5.068   5.107   5.932 -1.1816  1.3852 -1.9262
  145DOPC   C3817279   5.165   5.252   5.797  0.0346  0.4874  0.2857
  145DOPC   H8X17280   5.103   5.233   5.707  1.1612  1.8695 -0.8341
  145DOPC   H8Y17281   5.268   5.255   5.757  0.5007 -0.6736  1.3202
  145DOPC   C3917282   5.112   5.373   5.867 -0.6472  0.3592  0.4972
  145DOPC   H9X17283   5.101   5.350   5.974 -0.7016 -1.4006  0.1314
  145DOPC  C31017284   5.085   5.496   5.818  0.3123  0.3489  0.3557
  145DOPC  H10X17285   5.035   5.565   5.888  0.4349 -0.1619  0.9571
  145DOPC  C31117286   5.082   5.531   5.671  0.2745 -0.3335  0.0426
  145DOPC  H11X17287   5.074   5.441   5.607 -1.3043 -0.4898  0.4132
  145DOPC  H11Y17288   5.170   5.593   5.643  0.8671 -0.9449  0.5088
  145DOPC  C31217289   4.948   5.608   5.633  0.0603 -0.6040  0.1817
  145DOPC  H12X17290   4.956   5.706   5.684 -2.2359 -0.9560  1.3549
  145DOPC  H12Y17291   4.862   5.546   5.667 -0.7686  0.3566 -0.1108
  145DOPC  C31317292   4.936   5.636   5.483 -0.2182 -0.3810 -0.5500
  145DOPC  H13X17293   5.032   5.676   5.443 -0.6794 -1.0724 -2.4316
  145DOPC  H13Y17294   4.910   5.543   5.428 -0.5391 -0.9200  0.4919
  145DOPC  C31417295   4.831   5.746   5.445  0.0912  0.6682  0.6939
  145DOPC  H14X17296   4.727   5.706   5.454 -0.5348  1.2480 -2.7033
  145DOPC  H14Y17297   4.847   5.832   5.513  0.7666 -0.0122  1.4133
  145DOPC  C31517298   4.862   5.786   5.300  0.5827  0.3078 -0.2977
  145DOPC  H15X17299   4.852   5.690   5.247 -3.0951  0.5833 -0.3602
  145DOPC  H15Y17300   4.964   5.829   5.290  0.9401 -0.3431  0.4167
  145DOPC  C31617301   4.755   5.866   5.230  0.4977  0.8303  0.2705
  145DOPC  H16X17302   4.659   5.815   5.253  0.8435 -0.4199 -0.9584
  145DOPC  H16Y17303   4.750   5.966   5.278 -0.0134  0.4826  0.9597
  145DOPC  C31717304   4.773   5.890   5.084 -0.0205  0.2216  0.7967
  145DOPC  H17X17305   4.875   5.932   5.071 -0.6286  1.6088  0.3044
  145DOPC  H17Y17306   4.766   5.803   5.015  0.9460  1.1836 -0.5872
  145DOPC  C31817307   4.687   6.002   5.027 -0.1933  0.8860 -0.5670
  145DOPC  H18X17308   4.721   6.099   5.069  0.1508  0.4433  0.1966
  145DOPC  H18Y17309   4.693   6.017   4.917  2.2362 -0.0478 -0.6218
  145DOPC  H18Z17310   4.583   6.005   5.067  0.4729  1.8555  1.2217
  146DOPC     N17311   5.563   2.639   7.453 -0.3521 -1.2304 -0.2761
  146DOPC   C1217312   5.588   2.694   7.317 -0.6663  0.2907  0.0310
  146DOPC  H12A17313   5.664   2.633   7.270  2.7269  2.9190  1.6917
  146DOPC  H12B17314   5.632   2.793   7.326  0.9746 -0.4711  0.7167
  146DOPC   C1317315   5.696   2.599   7.513 -0.3559  0.1961  0.3104
  146DOPC  H13A17316   5.687   2.560   7.613  2.2985  1.7687  1.2494
  146DOPC  H13B17317   5.735   2.518   7.453  0.0838 -0.7432  1.8384
  146DOPC  H13C17318   5.765   2.682   7.513  1.5358 -1.3006  1.0261
  146DOPC   C1417319   5.481   2.517   7.438 -0.1348 -0.3466 -1.1307
  146DOPC  H14A17320   5.395   2.537   7.377  0.8743  0.7066 -2.2491
  146DOPC  H14B17321   5.532   2.436   7.389  2.0916 -0.7448  1.5650
  146DOPC  H14C17322   5.442   2.484   7.534  1.2937  2.2736  0.4732
  146DOPC   C1517323   5.497   2.739   7.537  0.1294 -0.1294  0.6721
  146DOPC  H15A17324   5.460   2.689   7.626  1.2517 -1.8704  0.1981
  146DOPC  H15B17325   5.410   2.784   7.491 -1.0630  0.2547  3.0930
  146DOPC  H15C17326   5.565   2.819   7.564  0.5313  0.3203 -1.5475
  146DOPC   C1117327   5.467   2.709   7.223  0.8769 -0.3991 -0.2050
  146DOPC  H11A17328   5.504   2.733   7.121  2.3147 -2.0391 -0.1050
  146DOPC  H11B17329   5.408   2.616   7.206 -0.3500  0.4030 -0.4647
  146DOPC     P17330   5.417   2.965   7.247  0.0938  0.1382  0.0865
  146DOPC   O1317331   5.549   3.001   7.304 -0.1755 -0.2065 -0.5545
  146DOPC   O1417332   5.301   3.043   7.304 -0.4496  0.4612  0.6470
  146DOPC   O1217333   5.383   2.815   7.267 -0.0627  0.6930  0.0351
  146DOPC   O1117334   5.420   2.978   7.093 -0.2704 -0.2029  0.0669
  146DOPC    C117335   5.301   2.963   7.014 -0.5415  0.3745  0.4476
  146DOPC    HA17336   5.275   3.067   6.984  1.4653  0.1937 -2.3455
  146DOPC    HB17337   5.213   2.919   7.065 -1.1883 -0.7041 -1.4953
  146DOPC    C217338   5.327   2.898   6.875  0.2291  0.7580 -0.0201
  146DOPC    HS17339   5.244   2.917   6.804 -0.9513  1.4922  1.4964
  146DOPC   O2117340   5.349   2.759   6.898  0.3630 -0.4873 -0.0702
  146DOPC   C2117341   5.244   2.693   6.918 -0.4910  0.6314 -0.0295
  146DOPC   O2217342   5.134   2.736   6.949  0.1363 -0.2208  0.0933
  146DOPC   C2217343   5.281   2.543   6.913  0.0742 -0.2271 -0.6933
  146DOPC   H2R17344   5.248   2.497   7.009 -3.5627  2.6213 -0.3161
  146DOPC   H2S17345   5.389   2.526   6.899  0.1205 -0.2135 -0.3632
  146DOPC    C317346   5.458   2.963   6.814  0.0272 -0.5380  0.4010
  146DOPC    HX17347   5.549   2.951   6.876  1.6843 -0.7898 -1.9110
  146DOPC    HY17348   5.446   3.073   6.811 -1.9180 -0.7401 -1.1919
  146DOPC   O3117349   5.478   2.913   6.680 -0.2549  0.4303 -0.3865
  146DOPC   C3117350   5.552   2.808   6.658 -0.5798  0.4195 -0.9713
  146DOPC   O3217351   5.634   2.756   6.732  0.2081  0.4219 -0.0897
  146DOPC   C3217352   5.542   2.762   6.512 -0.2824 -0.1700 -0.5423
  146DOPC   H2X17353   5.437   2.759   6.477 -0.0276 -0.8334 -1.2673
  146DOPC   H2Y17354   5.590   2.844   6.453  2.4733 -1.8307 -0.8121
  146DOPC   C2317355   5.207   2.476   6.804 -0.1015 -0.3365 -0.1732
  146DOPC   H3R17356   5.265   2.392   6.761  0.8832  0.4570 -0.4195
  146DOPC   H3S17357   5.195   2.548   6.721 -0.0766  0.4580  0.4908
  146DOPC   C2417358   5.071   2.418   6.841 -0.0537 -0.2463  0.2466
  146DOPC   H4R17359   4.997   2.495   6.871 -0.0953  0.1040 -0.7141
  146DOPC   H4S17360   5.094   2.359   6.932 -0.0373 -1.4463 -0.5170
  146DOPC   C2517361   5.021   2.320   6.735  0.3185  0.1998  0.3490
  146DOPC   H5R17362   4.928   2.270   6.769 -0.0158 -0.2977 -1.1769
  146DOPC   H5S17363   5.094   2.237   6.723  0.6985  0.2866  1.9049
  146DOPC   C2617364   5.000   2.362   6.588 -0.7921  0.4376  0.5791
  146DOPC   H6R17365   4.974   2.275   6.525  0.5051  0.2350  0.2926
  146DOPC   H6S17366   5.102   2.395   6.558 -0.3500 -0.1676  1.3689
  146DOPC   C2717367   4.917   2.477   6.558 -0.0830 -0.2011  0.4351
  146DOPC   H7R17368   4.956   2.557   6.624 -1.3567  1.6416 -0.9167
  146DOPC   H7S17369   4.808   2.457   6.573 -0.7418  1.3652 -1.6900
  146DOPC   C2817370   4.913   2.523   6.409 -0.2718 -0.6244  0.5950
  146DOPC   H8R17371   4.814   2.566   6.381  0.5837 -0.1993 -2.1236
  146DOPC   H8S17372   4.911   2.434   6.342  1.1473 -0.8160  0.7775
  146DOPC   C2917373   5.021   2.621   6.380 -0.2396  0.3571  0.1384
  146DOPC   H9R17374   5.056   2.676   6.469 -0.7688 -0.1890  0.7004
  146DOPC  C21017375   5.067   2.664   6.264  0.6025  0.7095  0.0922
  146DOPC  H10R17376   5.136   2.749   6.270  1.2440  0.1416  1.2495
  146DOPC  C21117377   5.010   2.617   6.133  0.5136  0.4951  0.2631
  146DOPC  H11R17378   5.016   2.697   6.057 -1.8177 -0.1701 -0.7207
  146DOPC  H11S17379   4.903   2.588   6.142  0.8253 -0.7198  0.3130
  146DOPC  C21217380   5.077   2.486   6.085 -0.3927  0.0528  0.6266
  146DOPC  H12R17381   5.060   2.411   6.165  1.0748 -0.2884  0.6431
  146DOPC  H12S17382   5.188   2.491   6.074 -0.3767  1.5771  1.2315
  146DOPC  C21317383   5.016   2.423   5.962 -0.0325 -0.2692  0.2970
  146DOPC  H13R17384   4.906   2.416   5.977  0.3988 -0.1665  4.7224
  146DOPC  H13S17385   5.063   2.326   5.935  1.3658  0.3660  0.3672
  146DOPC  C21417386   5.039   2.517   5.839  0.6865 -0.1051  0.8281
  146DOPC  H14R17387   5.146   2.539   5.820  0.6307  1.1380  1.8308
  146DOPC  H14S17388   4.981   2.606   5.872 -0.1705  0.0096 -0.8886
  146DOPC  C21517389   4.983   2.459   5.705 -0.1515 -0.0016 -0.2743
  146DOPC  H15R17390   4.879   2.436   5.736  0.4747  1.5237  3.5053
  146DOPC  H15S17391   5.047   2.373   5.677 -1.4540 -1.0545 -0.1138
  146DOPC  C21617392   4.980   2.564   5.591  0.1307 -0.0794  0.1448
  146DOPC  H16R17393   4.898   2.637   5.610  1.1853  0.8247  1.4071
  146DOPC  H16S17394   4.950   2.508   5.500 -1.9430  0.4448  0.4458
  146DOPC  C21717395   5.109   2.638   5.557  0.2355  0.5522  0.3872
  146DOPC  H17R17396   5.195   2.568   5.551  0.2615  0.6058  0.1016
  146DOPC  H17S17397   5.121   2.717   5.634  1.7603  0.6480  0.0880
  146DOPC  C21817398   5.113   2.708   5.427  0.5226 -0.3198  0.4815
  146DOPC  H18R17399   5.194   2.783   5.436  1.1470 -1.0505  1.0161
  146DOPC  H18S17400   5.020   2.758   5.394  0.6225 -0.2187  0.3537
  146DOPC  H18T17401   5.136   2.642   5.341  1.6023  0.8099 -0.1146
  146DOPC   C3317402   5.603   2.630   6.468 -0.1555 -0.3302 -0.4935
  146DOPC   H3X17403   5.565   2.557   6.542  0.5320 -0.3342 -0.1396
  146DOPC   H3Y17404   5.713   2.636   6.475 -0.2258  1.6626 -0.4740
  146DOPC   C3417405   5.566   2.587   6.325  0.2583 -0.2755  0.2131
  146DOPC   H4X17406   5.456   2.573   6.317  0.3078 -1.9950  1.7488
  146DOPC   H4Y17407   5.613   2.488   6.308  1.3938  0.4848 -1.2361
  146DOPC   C3517408   5.637   2.676   6.226 -0.0561  0.1135  0.1069
  146DOPC   H5X17409   5.744   2.672   6.255 -0.2456  1.8070  1.1854
  146DOPC   H5Y17410   5.588   2.774   6.244  0.4407  0.1533  1.3855
  146DOPC   C3617411   5.615   2.636   6.080  0.4560 -0.6349  0.3395
  146DOPC   H6X17412   5.630   2.731   6.024  0.9856 -1.5937 -1.2048
  146DOPC   H6Y17413   5.694   2.560   6.061  0.6608  0.0877 -2.0108
  146DOPC   C3717414   5.476   2.583   6.043  0.5778 -0.5466  0.4427
  146DOPC   H7X17415   5.461   2.487   6.096  0.7924 -1.1853 -0.6367
  146DOPC   H7Y17416   5.395   2.654   6.070  0.9304 -0.1016  0.3490
  146DOPC   C3817417   5.460   2.552   5.896  0.5318  0.9774  0.0093
  146DOPC   H8X17418   5.469   2.653   5.850  0.3650  0.6996 -0.6463
  146DOPC   H8Y17419   5.351   2.529   5.885  0.9393 -1.5921  0.7884
  146DOPC   C3917420   5.546   2.444   5.836 -0.1448  0.3699 -0.6672
  146DOPC   H9X17421   5.619   2.407   5.909 -0.2840  1.8455  0.2527
  146DOPC  C31017422   5.573   2.431   5.706  0.2810 -0.5602 -0.0779
  146DOPC  H10X17423   5.652   2.365   5.668 -0.2240 -0.9659 -0.4339
  146DOPC  C31117424   5.498   2.515   5.602  0.0912  0.6727 -0.5628
  146DOPC  H11X17425   5.412   2.566   5.650  0.8708  1.6345 -0.1379
  146DOPC  H11Y17426   5.462   2.450   5.519  1.1763  0.3684 -0.8220
  146DOPC  C31217427   5.584   2.627   5.547 -0.1238 -0.0114 -0.5083
  146DOPC  H12X17428   5.673   2.576   5.505 -0.1538 -2.3280  1.9739
  146DOPC  H12Y17429   5.623   2.678   5.637  0.0043 -1.1143  0.0841
  146DOPC  C31317430   5.516   2.726   5.447 -0.3821  0.0094  0.3295
  146DOPC  H13X17431   5.419   2.757   5.491  0.0414 -0.9044  2.0125
  146DOPC  H13Y17432   5.575   2.820   5.452 -1.1485  0.5341 -0.2881
  146DOPC  C31417433   5.499   2.676   5.306 -0.0289  0.1671 -0.3154
  146DOPC  H14X17434   5.596   2.636   5.271  0.8873  2.8795 -1.1874
  146DOPC  H14Y17435   5.422   2.597   5.318 -0.6402  0.9188  0.9576
  146DOPC  C31517436   5.449   2.783   5.207 -0.1104  0.3385 -0.6125
  146DOPC  H15X17437   5.520   2.868   5.196 -0.2177  0.3937 -0.8719
  146DOPC  H15Y17438   5.353   2.824   5.247 -0.6052 -1.9743  0.7708
  146DOPC  C31617439   5.444   2.736   5.059  0.7515 -0.0312 -0.0748
  146DOPC  H16X17440   5.530   2.776   5.000 -0.0950  0.3980 -1.0676
  146DOPC  H16Y17441   5.448   2.627   5.075 -2.2396 -0.2238 -0.0530
  146DOPC  C31717442   5.313   2.759   4.985  0.7463 -0.6893  0.0276
  146DOPC  H17X17443   5.276   2.863   5.001  0.4868 -0.7521 -0.1564
  146DOPC  H17Y17444   5.325   2.731   4.878 -0.5261  0.2606 -0.3930
  146DOPC  C31817445   5.199   2.668   5.030  1.3669  0.2111 -0.6821
  146DOPC  H18X17446   5.140   2.712   5.112  0.6944 -1.0887 -0.4369
  146DOPC  H18Y17447   5.126   2.660   4.947 -0.3780 -0.3913  0.8497
  146DOPC  H18Z17448   5.232   2.565   5.058 -0.2062 -0.1803 -0.1753
  147DOPC     N17449   0.015   2.423   7.296 -0.4320  0.4257 -0.1056
  147DOPC   C1217450   0.041   2.342   7.172  0.8469 -0.0243 -0.5835
  147DOPC  H12A17451  -0.057   2.337   7.127 -0.4491  1.9357  1.7850
  147DOPC  H12B17452   0.068   2.242   7.204  0.9274  0.6416  1.5608
  147DOPC   C1317453  -0.055   2.554   7.245  0.3329  0.5957  0.1281
  147DOPC  H13A17454  -0.096   2.602   7.334  1.1090  0.1414  0.7398
  147DOPC  H13B17455   0.028   2.607   7.201 -0.7914  2.8173  0.5363
  147DOPC  H13C17456  -0.140   2.544   7.179  0.8348  1.6227 -0.7094
  147DOPC   C1417457   0.132   2.444   7.386 -0.6285  0.0015 -0.0177
  147DOPC  H14A17458   0.196   2.525   7.352  0.4388 -1.0884 -0.6802
  147DOPC  H14B17459   0.090   2.484   7.477 -0.1566 -0.1400  0.2658
  147DOPC  H14C17460   0.190   2.356   7.405 -1.1384 -0.4612 -0.5681
  147DOPC   C1517461  -0.090   2.346   7.376  1.1942 -0.7938  0.6822
  147DOPC  H15A17462  -0.064   2.246   7.409 -0.5483 -0.4618  3.3534
  147DOPC  H15B17463  -0.184   2.339   7.324  1.5730  2.2479 -0.5695
  147DOPC  H15C17464  -0.113   2.398   7.468  1.1831 -0.3812  0.4476
  147DOPC   C1117465   0.142   2.391   7.065 -0.5142 -0.6522 -0.1694
  147DOPC  H11A17466   0.237   2.409   7.120  0.0575  0.1584 -1.3913
  147DOPC  H11B17467   0.148   2.313   6.986  3.4159 -0.5643 -0.1932
  147DOPC     P17468   0.009   2.538   6.884 -0.0946 -0.0895 -0.6042
  147DOPC   O1317469  -0.078   2.650   6.904  0.3501 -0.8741  0.5326
  147DOPC   O1417470  -0.050   2.406   6.842 -0.2237  0.0761  0.3401
  147DOPC   O1217471   0.103   2.521   7.009  0.3012 -0.4228 -0.0689
  147DOPC   O1117472   0.125   2.581   6.778  0.9613  0.4786  0.0056
  147DOPC    C117473   0.237   2.499   6.747 -0.1045  0.2081 -1.1173
  147DOPC    HA17474   0.238   2.406   6.808 -0.8851 -0.3745 -1.9607
  147DOPC    HB17475   0.334   2.547   6.770  0.4099 -0.4220 -1.9246
  147DOPC    C217476   0.247   2.460   6.599 -0.5846  0.0901  0.2145
  147DOPC    HS17477   0.227   2.554   6.543 -2.3532  0.3249  1.1739
  147DOPC   O2117478   0.147   2.366   6.552 -0.5665  0.1228 -0.4462
  147DOPC   C2117479   0.030   2.404   6.527  0.7624 -0.5520  0.4481
  147DOPC   O2217480  -0.004   2.517   6.501  0.1682 -0.5102  0.7333
  147DOPC   C2217481  -0.064   2.293   6.509  0.1690  0.9829 -0.1493
  147DOPC   H2R17482  -0.169   2.329   6.510  0.0992  0.7797  0.6922
  147DOPC   H2S17483  -0.043   2.224   6.593 -2.1443  0.7593  0.3130
  147DOPC    C317484   0.390   2.407   6.564  0.1172  0.3373  0.1482
  147DOPC    HX17485   0.408   2.309   6.613  1.0818  0.5203  0.1984
  147DOPC    HY17486   0.457   2.484   6.609  1.3239 -0.0701 -0.8846
  147DOPC   O3117487   0.414   2.402   6.423 -0.6876  0.4631 -0.3892
  147DOPC   C3117488   0.385   2.286   6.364 -0.6008  0.0225 -0.2035
  147DOPC   O3217489   0.338   2.187   6.420 -0.4507 -0.7736 -0.0353
  147DOPC   C3217490   0.418   2.279   6.214  0.1474  0.0977 -0.2937
  147DOPC   H2X17491   0.371   2.194   6.160  2.6440 -0.9331 -1.0371
  147DOPC   H2Y17492   0.394   2.377   6.169  0.6940  0.1644 -0.4501
  147DOPC   C2317493  -0.044   2.219   6.379  0.3341  0.3319 -0.5082
  147DOPC   H3R17494  -0.101   2.123   6.373 -1.1984  1.2926 -2.4436
  147DOPC   H3S17495   0.062   2.187   6.370  0.2464  0.6154 -5.3859
  147DOPC   C2417496  -0.078   2.306   6.259 -0.4437 -0.4860 -0.1626
  147DOPC   H4R17497  -0.006   2.389   6.247  0.5124 -1.6414 -3.7862
  147DOPC   H4S17498  -0.182   2.345   6.262 -0.7075 -1.0535 -1.4350
  147DOPC   C2517499  -0.076   2.243   6.115  0.6405  0.1711  0.0536
  147DOPC   H5R17500  -0.103   2.135   6.114  2.5620 -0.3509 -1.0286
  147DOPC   H5S17501   0.030   2.246   6.082  0.2963 -1.4129 -1.3583
  147DOPC   C2617502  -0.170   2.317   6.022  0.1509  0.2008 -0.6678
  147DOPC   H6R17503  -0.137   2.423   6.030  2.0250 -0.3951 -0.1639
  147DOPC   H6S17504  -0.275   2.307   6.058  0.5380  0.1102  0.5077
  147DOPC   C2717505  -0.161   2.278   5.880  0.0010 -0.4935 -0.1481
  147DOPC   H7R17506  -0.186   2.170   5.872  2.2958 -1.0463 -0.5059
  147DOPC   H7S17507  -0.059   2.305   5.843 -0.8505  2.4009 -0.7036
  147DOPC   C2817508  -0.259   2.352   5.784 -0.4580 -0.8630  0.2596
  147DOPC   H8R17509  -0.255   2.459   5.815  0.6459 -1.3580  1.9377
  147DOPC   H8S17510  -0.360   2.312   5.809 -1.8605  1.0966 -1.8412
  147DOPC   C2917511  -0.232   2.337   5.633  0.0649  0.3958  0.5064
  147DOPC   H9R17512  -0.148   2.393   5.589  1.3051 -2.3068 -0.8122
  147DOPC  C21017513  -0.302   2.259   5.549  0.0916  0.6602  0.1703
  147DOPC  H10R17514  -0.260   2.245   5.449 -0.8559 -3.4804  0.1715
  147DOPC  C21117515  -0.428   2.180   5.575  0.0595  0.3825 -0.5979
  147DOPC  H11R17516  -0.476   2.203   5.673 -0.5236 -1.5814 -0.3823
  147DOPC  H11S17517  -0.418   2.070   5.572  2.5649  0.5676 -0.7127
  147DOPC  C21217518  -0.522   2.217   5.468  0.5000 -0.3523  0.5531
  147DOPC  H12R17519  -0.492   2.186   5.366  2.5343 -2.3044  1.6592
  147DOPC  H12S17520  -0.532   2.327   5.461  0.3458 -0.4059 -0.1030
  147DOPC  C21317521  -0.669   2.170   5.490  0.3677  0.1419  0.4076
  147DOPC  H13R17522  -0.702   2.188   5.595 -1.3316  2.1266 -0.3893
  147DOPC  H13S17523  -0.676   2.064   5.459 -1.1313  0.6474 -1.1463
  147DOPC  C21417524  -0.778   2.238   5.398  0.8720 -0.0834 -0.4497
  147DOPC  H14R17525  -0.771   2.349   5.405 -1.0332  0.0212  0.3329
  147DOPC  H14S17526  -0.882   2.212   5.427  0.2840 -2.1618 -3.8507
  147DOPC  C21517527  -0.780   2.199   5.249 -0.3454 -0.0326  0.4258
  147DOPC  H15R17528  -0.804   2.092   5.234 -2.3146  0.6734 -2.1956
  147DOPC  H15S17529  -0.687   2.239   5.203 -1.5303 -1.0030 -3.1573
  147DOPC  C21617530  -0.898   2.266   5.174  0.6641 -0.0441  0.4244
  147DOPC  H16R17531  -0.892   2.373   5.201  0.9832  0.9780 -3.1006
  147DOPC  H16S17532  -0.986   2.222   5.225 -0.5017  1.1913 -0.4614
  147DOPC  C21717533  -0.896   2.247   5.023  0.4104 -0.7964 -0.3415
  147DOPC  H17R17534  -0.791   2.260   4.988  0.6938  3.1933  1.4269
  147DOPC  H17S17535  -0.936   2.343   4.984  0.4247 -0.5131  0.3231
  147DOPC  C21817536  -0.961   2.116   4.983 -0.2570 -0.5839 -0.0298
  147DOPC  H18R17537  -0.970   2.113   4.872 -0.9819  0.5520 -0.0267
  147DOPC  H18S17538  -1.062   2.101   5.026 -0.4045 -1.3233 -0.6218
  147DOPC  H18T17539  -0.897   2.032   5.016 -0.0899  0.3470  2.1527
  147DOPC   C3317540   0.567   2.251   6.191 -0.0646  0.9190 -0.4952
  147DOPC   H3X17541   0.604   2.168   6.255  1.2610  0.8972 -1.2650
  147DOPC   H3Y17542   0.633   2.338   6.211 -0.8036  1.3516  0.1263
  147DOPC   C3417543   0.596   2.213   6.044  0.1782 -0.0318 -0.3098
  147DOPC   H4X17544   0.544   2.120   6.012  0.1926 -0.1875  0.1016
  147DOPC   H4Y17545   0.705   2.191   6.047  0.3420  0.8623  0.9530
  147DOPC   C3517546   0.569   2.331   5.952 -0.6232  0.2005  0.0189
  147DOPC   H5X17547   0.629   2.414   5.994  0.2951 -0.7357  0.6123
  147DOPC   H5Y17548   0.463   2.357   5.977 -0.4554 -0.9567  2.2268
  147DOPC   C3617549   0.594   2.305   5.804  0.6857  0.4239  0.1440
  147DOPC   H6X17550   0.556   2.204   5.775  0.4347  0.4452  0.3994
  147DOPC   H6Y17551   0.524   2.365   5.741  0.4957  1.1058  0.9905
  147DOPC   C3717552   0.746   2.311   5.775  0.1147  0.5000  0.4029
  147DOPC   H7X17553   0.780   2.417   5.784  0.6983  0.4089 -0.6196
  147DOPC   H7Y17554   0.799   2.248   5.849  1.3032  1.5144  0.4645
  147DOPC   C3817555   0.779   2.242   5.640  0.0832 -0.9434  0.3884
  147DOPC   H8X17556   0.739   2.139   5.642  0.1067 -1.1947 -3.8805
  147DOPC   H8Y17557   0.890   2.239   5.627  0.2353 -1.0749  1.5717
  147DOPC   C3917558   0.724   2.302   5.516 -0.0195 -0.3883 -0.4466
  147DOPC   H9X17559   0.681   2.401   5.540  0.2079 -0.4505  0.2294
  147DOPC  C31017560   0.686   2.243   5.406 -0.0925 -0.2633  0.8670
  147DOPC  H10X17561   0.640   2.300   5.324  3.3682 -0.1494 -1.1788
  147DOPC  C31117562   0.713   2.100   5.373  0.0510  0.0357  0.2736
  147DOPC  H11X17563   0.619   2.040   5.369  0.8403 -1.1938 -1.3124
  147DOPC  H11Y17564   0.775   2.042   5.445 -2.6546  0.0957  2.8133
  147DOPC  C31217565   0.761   2.086   5.226  1.2168 -0.1626 -0.2890
  147DOPC  H12X17566   0.687   2.128   5.154  0.6194 -1.1757 -0.2913
  147DOPC  H12Y17567   0.761   1.976   5.211 -0.3333 -0.1439 -0.6203
  147DOPC  C31317568   0.905   2.131   5.203  0.6356  0.4804  0.1514
  147DOPC  H13X17569   0.925   2.223   5.263 -0.8908 -0.4862  2.2625
  147DOPC  H13Y17570   0.974   2.049   5.234  0.8842 -1.3888 -4.5699
  147DOPC  C31417571   0.941   2.153   5.055  0.0299  0.7020 -0.4995
  147DOPC  H14X17572   0.878   2.085   4.993 -0.6553 -0.7773  1.6863
  147DOPC  H14Y17573   0.900   2.251   5.023  0.3468  0.9830 -0.0506
  147DOPC  C31517574   1.091   2.133   5.018  0.4332  0.0421  0.3047
  147DOPC  H15X17575   1.099   2.090   4.916  1.7590  2.6473 -0.7753
  147DOPC  H15Y17576   1.138   2.074   5.100  1.0578  0.1856  0.0522
  147DOPC  C31617577   1.153   2.267   5.020 -0.6929 -0.2409  0.3847
  147DOPC  H16X17578   1.099   2.321   4.940 -1.1597  1.8708  2.0370
  147DOPC  H16Y17579   1.143   2.313   5.121 -0.2784  0.5087  0.0874
  147DOPC  C31717580   1.306   2.263   4.980 -0.0235  0.2776 -0.8143
  147DOPC  H17X17581   1.366   2.205   5.053  0.1159 -0.3661 -1.4276
  147DOPC  H17Y17582   1.310   2.220   4.877 -1.1502  0.8596 -1.1246
  147DOPC  C31817583   1.364   2.399   4.974  0.3108  0.1997  0.9283
  147DOPC  H18X17584   1.385   2.431   5.079  2.1830 -0.0626  0.6765
  147DOPC  H18Y17585   1.456   2.400   4.911  0.4514 -1.3528  1.0667
  147DOPC  H18Z17586   1.291   2.465   4.922 -4.4117 -4.5737  0.6005
  148DOPC     N17587   1.790   5.659   7.031  0.7401  0.0885  0.2456
  148DOPC   C1217588   1.880   5.662   6.903  0.7289  0.3314 -0.2216
  148DOPC  H12A17589   1.980   5.623   6.917  0.7870 -0.4273 -2.3514
  148DOPC  H12B17590   1.899   5.764   6.872  2.1618  0.2228  0.2080
  148DOPC   C1317591   1.786   5.514   7.074  0.0075  0.1350  0.0092
  148DOPC  H13A17592   1.746   5.491   7.172 -0.7487  0.4193 -0.2328
  148DOPC  H13B17593   1.735   5.458   6.997  1.8730 -0.3700 -0.9147
  148DOPC  H13C17594   1.885   5.471   7.080 -0.1629 -0.1486  0.9393
  148DOPC   C1417595   1.648   5.709   7.001 -0.5128 -0.0349 -0.9002
  148DOPC  H14A17596   1.600   5.640   6.933 -0.2127  0.8799 -2.0756
  148DOPC  H14B17597   1.589   5.716   7.091  0.4920 -1.3436 -0.0961
  148DOPC  H14C17598   1.638   5.803   6.948  1.2891  1.7967  1.7948
  148DOPC   C1517599   1.854   5.741   7.133  0.0479  0.2358 -0.4713
  148DOPC  H15A17600   1.853   5.845   7.101 -0.8604  0.4671  0.2583
  148DOPC  H15B17601   1.952   5.708   7.163  0.3754  0.5670 -1.1565
  148DOPC  H15C17602   1.805   5.736   7.229  1.1665 -1.2362  0.0598
  148DOPC   C1117603   1.820   5.594   6.780  0.5601  0.2145 -0.7567
  148DOPC  H11A17604   1.906   5.576   6.712  1.0026 -1.2995  0.1686
  148DOPC  H11B17605   1.774   5.496   6.804 -2.7739  1.4333 -1.5958
  148DOPC     P17606   1.758   5.788   6.628  0.1816 -0.3565  0.0096
  148DOPC   O1317607   1.781   5.741   6.486 -0.1223  0.0418 -0.8106
  148DOPC   O1417608   1.858   5.866   6.704  0.1069  0.1736 -0.6445
  148DOPC   O1217609   1.715   5.671   6.724  0.3984  0.3638 -0.3598
  148DOPC   O1117610   1.633   5.873   6.627 -0.5336  0.0300  0.1627
  148DOPC    C117611   1.498   5.829   6.649  0.0637 -0.2470 -0.2933
  148DOPC    HA17612   1.469   5.841   6.755 -1.8811  0.9562 -0.9017
  148DOPC    HB17613   1.479   5.721   6.632  1.5518 -0.6390  0.3571
  148DOPC    C217614   1.406   5.927   6.567  0.0317  0.4130 -0.4757
  148DOPC    HS17615   1.303   5.889   6.585 -0.2683  0.8430 -1.2218
  148DOPC   O2117616   1.432   5.926   6.427  0.3464  0.0721  0.4316
  148DOPC   C2117617   1.424   5.815   6.359  0.0506  0.5254 -0.5354
  148DOPC   O2217618   1.384   5.705   6.402 -0.4089  0.3836  0.5256
  148DOPC   C2217619   1.476   5.832   6.217  0.7002  0.8149 -0.1457
  148DOPC   H2R17620   1.466   5.735   6.164  0.8665 -0.3144  1.7810
  148DOPC   H2S17621   1.586   5.848   6.223  0.6506  1.6381 -1.1733
  148DOPC    C317622   1.423   6.073   6.607  0.1777  0.1264 -0.2560
  148DOPC    HX17623   1.531   6.097   6.593  0.3439 -1.2575 -1.6719
  148DOPC    HY17624   1.425   6.083   6.718  2.2066  1.6458 -0.3809
  148DOPC   O3117625   1.324   6.156   6.539  0.1925  0.1781 -0.0431
  148DOPC   C3117626   1.369   6.265   6.481 -0.2529 -1.0871 -1.0536
  148DOPC   O3217627   1.479   6.316   6.503  0.3787  0.3779 -0.5620
  148DOPC   C3217628   1.270   6.331   6.391 -0.2838  0.6280  0.2598
  148DOPC   H2X17629   1.194   6.253   6.371  1.9882 -0.9806 -2.9376
  148DOPC   H2Y17630   1.234   6.421   6.445  2.8054  1.8309  0.4868
  148DOPC   C2317631   1.421   5.951   6.127 -0.3749 -0.0723 -0.4166
  148DOPC   H3R17632   1.488   5.962   6.038 -0.4426  0.1937 -0.4372
  148DOPC   H3S17633   1.430   6.043   6.189  1.1673 -1.7798  2.0410
  148DOPC   C2417634   1.272   5.938   6.095 -0.1353  0.1024  0.6517
  148DOPC   H4R17635   1.216   5.960   6.189 -1.7918 -0.1056 -0.2457
  148DOPC   H4S17636   1.253   5.831   6.071 -2.7275  0.0770  2.3753
  148DOPC   C2517637   1.231   6.046   5.992 -0.0799 -0.2851 -0.7312
  148DOPC   H5R17638   1.269   6.145   6.024  0.2183 -0.3751 -0.8020
  148DOPC   H5S17639   1.125   6.077   6.003  0.0237 -0.5425  1.2169
  148DOPC   C2617640   1.265   6.003   5.848  0.7085 -0.3490  0.4167
  148DOPC   H6R17641   1.223   5.902   5.830  2.4449 -1.2663  1.3282
  148DOPC   H6S17642   1.373   5.980   5.839  0.7323 -0.5720  1.2048
  148DOPC   C2717643   1.222   6.117   5.749 -0.2314 -0.1449 -0.0274
  148DOPC   H7R17644   1.276   6.209   5.778  0.2655 -0.3143 -0.4104
  148DOPC   H7S17645   1.116   6.150   5.753  0.0421  0.6836  0.6888
  148DOPC   C2817646   1.259   6.079   5.608  0.3196  0.4540 -0.4498
  148DOPC   H8R17647   1.216   5.985   5.567 -3.0427  1.8923 -0.5632
  148DOPC   H8S17648   1.369   6.060   5.603  0.6538  0.9167  2.8249
  148DOPC   C2917649   1.228   6.188   5.506  0.3497  0.0444 -0.3035
  148DOPC   H9R17650   1.136   6.245   5.527  0.8594  1.6434 -2.1570
  148DOPC  C21017651   1.288   6.224   5.392  0.1205 -0.0972 -0.0825
  148DOPC  H10R17652   1.240   6.289   5.318 -0.5923  0.9996  1.2921
  148DOPC  C21117653   1.412   6.170   5.331  0.1832  0.7569  0.5224
  148DOPC  H11R17654   1.456   6.105   5.410  1.5982 -0.2636 -1.0264
  148DOPC  H11S17655   1.481   6.251   5.298 -2.0043  1.9269 -1.5390
  148DOPC  C21217656   1.391   6.090   5.200  0.1065  0.2394  0.3753
  148DOPC  H12R17657   1.360   6.160   5.120  0.5762  0.0240  0.0017
  148DOPC  H12S17658   1.311   6.013   5.211  0.2481  0.0268 -0.0602
  148DOPC  C21317659   1.516   6.006   5.164 -0.3333  0.8189  0.2339
  148DOPC  H13R17660   1.522   5.923   5.237  2.2138 -0.4648 -1.3134
  148DOPC  H13S17661   1.608   6.068   5.168 -0.2254  0.8331 -1.6215
  148DOPC  C21417662   1.490   5.938   5.031  0.0907  0.1399 -0.5172
  148DOPC  H14R17663   1.440   6.012   4.965  1.2616  1.7485  0.3136
  148DOPC  H14S17664   1.423   5.850   5.041 -1.0190  1.1170  1.0797
  148DOPC  C21517665   1.626   5.896   4.964 -0.1806 -0.3578 -0.1170
  148DOPC  H15R17666   1.662   5.814   5.029  0.6937 -0.7967 -1.1324
  148DOPC  H15S17667   1.695   5.980   4.989 -1.8147  0.7782  0.7499
  148DOPC  C21617668   1.611   5.857   4.818 -0.3084  0.0932 -0.4124
  148DOPC  H16R17669   1.581   5.947   4.760 -1.3061  0.2208  0.2751
  148DOPC  H16S17670   1.519   5.796   4.808 -0.6116  0.5309 -0.3250
  148DOPC  C21717671   1.735   5.804   4.748  0.1888  0.2654  0.2965
  148DOPC  H17R17672   1.708   5.780   4.643  0.6152  4.5661 -0.9908
  148DOPC  H17S17673   1.788   5.720   4.798  0.8516  0.6348  0.2260
  148DOPC  C21817674   1.849   5.912   4.743  1.2630 -0.1806  0.1507
  148DOPC  H18R17675   1.869   5.943   4.848  0.7470 -1.9980  0.8066
  148DOPC  H18S17676   1.803   5.995   4.686 -0.6168 -0.3339  1.3722
  148DOPC  H18T17677   1.932   5.877   4.678  1.2231 -0.4362  0.2398
  148DOPC   C3317678   1.338   6.362   6.259 -0.4125 -0.2547 -0.3113
  148DOPC   H3X17679   1.371   6.262   6.225  1.8154 -0.4997  2.2867
  148DOPC   H3Y17680   1.418   6.438   6.262 -0.6066 -0.0522 -0.2169
  148DOPC   C3417681   1.241   6.423   6.149 -0.3441  0.0157 -0.3937
  148DOPC   H4X17682   1.180   6.508   6.188 -0.5095  0.9638 -2.5515
  148DOPC   H4Y17683   1.163   6.354   6.110 -1.5067  0.2272  1.4464
  148DOPC   C3517684   1.323   6.484   6.031 -0.6555 -0.1324  0.3233
  148DOPC   H5X17685   1.389   6.405   5.989 -1.0147 -0.4168  0.2875
  148DOPC   H5Y17686   1.386   6.565   6.076 -0.0479 -0.7040  0.5229
  148DOPC   C3617687   1.240   6.553   5.924 -0.7385  0.4634 -0.6902
  148DOPC   H6X17688   1.168   6.482   5.877 -2.3963  1.1121  0.7774
  148DOPC   H6Y17689   1.185   6.631   5.981  0.5465  0.2374  0.9215
  148DOPC   C3717690   1.328   6.609   5.806 -0.6581  0.5607  0.0765
  148DOPC   H7X17691   1.352   6.716   5.829  3.3893  0.1032 -1.1672
  148DOPC   H7Y17692   1.423   6.551   5.809 -1.9459 -1.5696  1.2531
  148DOPC   C3817693   1.251   6.587   5.675  1.2794  0.5443 -0.1137
  148DOPC   H8X17694   1.142   6.601   5.689  1.4930  1.5145  0.6677
  148DOPC   H8Y17695   1.263   6.487   5.627  2.3236  1.2679 -1.4556
  148DOPC   C3917696   1.302   6.684   5.568 -0.2052 -0.0597  0.0465
  148DOPC   H9X17697   1.410   6.701   5.570  0.1733 -2.1159  2.0611
  148DOPC  C31017698   1.238   6.760   5.476 -0.0602 -0.0919 -0.6297
  148DOPC  H10X17699   1.293   6.807   5.394 -1.6147  0.8127 -1.2009
  148DOPC  C31117700   1.086   6.771   5.469 -0.3160  0.6041 -0.2623
  148DOPC  H11X17701   1.036   6.692   5.530  1.7983 -0.1073  0.6668
  148DOPC  H11Y17702   1.048   6.756   5.366  2.5292 -0.6117 -1.2333
  148DOPC  C31217703   1.027   6.905   5.517  0.5034 -0.6844  0.0158
  148DOPC  H12X17704   0.927   6.927   5.473  0.4087  0.8254  0.8919
  148DOPC  H12Y17705   1.087   6.987   5.472 -1.0940  0.3284 -0.3944
  148DOPC  C31317706   1.022   6.910   5.669  0.3969 -0.1308 -0.4263
  148DOPC  H13X17707   0.967   6.824   5.712  2.0149 -0.1881  1.7331
  148DOPC  H13Y17708   1.126   6.896   5.705  0.4918 -0.8282 -0.9547
  148DOPC  C31417709   0.952   7.033   5.727 -0.0056  0.4557 -0.1351
  148DOPC  H14X17710   0.988   7.120   5.670 -1.0881  0.2708 -1.1419
  148DOPC  H14Y17711   0.841   7.028   5.718  0.0097  2.3142 -1.8701
  148DOPC  C31517712   0.981   7.056   5.877  0.1179  0.2724  0.2608
  148DOPC  H15X17713   0.907   7.131   5.911 -1.8195 -0.2952 -2.3423
  148DOPC  H15Y17714   1.081   7.103   5.889 -0.3812  1.1616  1.0916
  148DOPC  C31617715   0.993   6.930   5.964  0.5983 -0.5359 -1.3949
  148DOPC  H16X17716   0.903   6.866   5.951 -0.2593 -0.5019  2.8323
  148DOPC  H16Y17717   1.086   6.871   5.951  1.0242 -0.4627  0.8777
  148DOPC  C31717718   0.990   6.960   6.117 -0.1100 -0.1658 -0.0840
  148DOPC  H17X17719   1.073   7.026   6.150  1.3533 -1.6701 -0.5959
  148DOPC  H17Y17720   0.897   7.013   6.146  0.3573 -0.0013  1.1684
  148DOPC  C31817721   0.997   6.839   6.204 -0.3037  0.0724  0.0065
  148DOPC  H18X17722   1.097   6.796   6.183 -0.2813 -0.5964  1.3754
  148DOPC  H18Y17723   1.007   6.858   6.313  0.0933 -1.3671  0.2494
  148DOPC  H18Z17724   0.919   6.761   6.193  0.3107 -0.8310  1.6059
  149DOPC     N17725   0.717   1.790   7.337  1.2850 -0.3589 -0.0761
  149DOPC   C1217726   0.685   1.829   7.190 -0.4293 -0.1149  0.1067
  149DOPC  H12A17727   0.589   1.789   7.159 -0.7742  0.3346  0.5777
  149DOPC  H12B17728   0.757   1.771   7.133  0.5033 -1.0968  2.1852
  149DOPC   C1317729   0.643   1.868   7.433  0.5404 -0.8196  0.4968
  149DOPC  H13A17730   0.637   1.835   7.536 -3.5726 -0.4147  0.5668
  149DOPC  H13B17731   0.690   1.963   7.450 -0.5303  0.1155 -1.4138
  149DOPC  H13C17732   0.542   1.880   7.394  1.4592 -0.9414 -2.1166
  149DOPC   C1417733   0.863   1.811   7.359 -0.0982  0.1559 -0.8053
  149DOPC  H14A17734   0.898   1.798   7.461  0.5905 -1.0293 -1.1716
  149DOPC  H14B17735   0.932   1.749   7.304  0.8476 -1.2661  1.7564
  149DOPC  H14C17736   0.888   1.914   7.340  0.2412  0.7701  2.2929
  149DOPC   C1517737   0.692   1.648   7.365  0.0937 -0.8974 -0.3128
  149DOPC  H15A17738   0.594   1.610   7.338  0.6194 -0.8424 -2.4946
  149DOPC  H15B17739   0.702   1.636   7.471  1.4868 -0.5170 -0.3762
  149DOPC  H15C17740   0.769   1.589   7.318  1.4245 -0.6506  1.4811
  149DOPC   C1117741   0.706   1.968   7.134 -0.3668 -0.4920 -0.4825
  149DOPC  H11A17742   0.660   1.964   7.033  0.4894 -1.3067 -0.8508
  149DOPC  H11B17743   0.656   2.050   7.191 -2.1208 -1.3659 -0.7114
  149DOPC     P17744   0.918   2.057   6.998  0.0682  0.0513  0.0570
  149DOPC   O1317745   0.947   1.940   6.903  0.0867  0.2740 -0.5250
  149DOPC   O1417746   1.037   2.132   7.035  0.0500 -0.3439  0.0329
  149DOPC   O1217747   0.845   1.999   7.119  0.3395  0.2725 -0.6266
  149DOPC   O1117748   0.811   2.141   6.920 -0.0589 -0.4109 -0.0954
  149DOPC    C117749   0.748   2.117   6.797  0.1138 -0.2929  0.2219
  149DOPC    HA17750   0.648   2.164   6.797  0.9918  1.6536  1.0224
  149DOPC    HB17751   0.739   2.008   6.777 -1.2015  0.0611 -1.2727
  149DOPC    C217752   0.826   2.172   6.675 -0.0625  0.6737  0.0003
  149DOPC    HS17753   0.903   2.092   6.671 -1.6268 -1.0087  1.6843
  149DOPC   O2117754   0.872   2.302   6.710 -0.3626 -0.3426  0.7609
  149DOPC   C2117755   1.002   2.320   6.700 -0.0617  0.1876 -0.0840
  149DOPC   O2217756   1.085   2.227   6.682  0.0551  0.3002 -0.0102
  149DOPC   C2217757   1.034   2.472   6.722 -0.6229 -0.4092  0.8051
  149DOPC   H2R17758   1.133   2.482   6.772 -0.6347 -1.3667  1.0398
  149DOPC   H2S17759   0.951   2.519   6.779 -1.4239 -0.2385 -0.4657
  149DOPC    C317760   0.750   2.170   6.539 -0.0734  0.0324 -0.0573
  149DOPC    HX17761   0.680   2.256   6.538 -1.3487 -0.8374  3.0801
  149DOPC    HY17762   0.677   2.086   6.535 -1.7880  1.3968  1.2183
  149DOPC   O3117763   0.840   2.177   6.419  0.5790 -0.3859  0.0520
  149DOPC   C3117764   0.902   2.069   6.391 -0.2185 -0.2004  0.6994
  149DOPC   O3217765   0.892   1.958   6.441  0.0372  0.1466 -0.1613
  149DOPC   C3217766   0.973   2.102   6.258 -1.0819 -0.3734  0.0192
  149DOPC   H2X17767   0.914   2.181   6.207  2.3427  0.6691 -2.7092
  149DOPC   H2Y17768   1.074   2.139   6.283 -0.2894 -1.6926 -1.0705
  149DOPC   C2317769   1.042   2.547   6.590  0.3510 -0.6135  0.3228
  149DOPC   H3R17770   1.116   2.492   6.528  0.3567 -1.0697  0.7308
  149DOPC   H3S17771   1.085   2.648   6.611 -1.5942 -0.0252  1.7637
  149DOPC   C2417772   0.905   2.572   6.531  0.3386  0.0918 -0.3589
  149DOPC   H4R17773   0.841   2.632   6.598 -1.3025 -1.9521  0.0260
  149DOPC   H4S17774   0.856   2.472   6.529  0.3738  0.0725 -2.4016
  149DOPC   C2517775   0.889   2.647   6.397 -0.0652 -0.1566  0.6561
  149DOPC   H5R17776   0.950   2.739   6.383  0.8051 -1.1800 -3.7890
  149DOPC   H5S17777   0.786   2.689   6.387  0.2239  0.0721 -2.1066
  149DOPC   C2617778   0.907   2.544   6.290 -0.5680  0.2509  0.0468
  149DOPC   H6R17779   0.842   2.457   6.315 -0.3956  0.1164  0.0323
  149DOPC   H6S17780   1.014   2.513   6.294 -0.5656  0.1689 -0.5516
  149DOPC   C2717781   0.864   2.612   6.158  0.5232  0.6054  0.8531
  149DOPC   H7R17782   0.910   2.711   6.136 -0.3663  0.4612 -2.0694
  149DOPC   H7S17783   0.754   2.623   6.167 -0.0776 -2.6368 -0.9672
  149DOPC   C2817784   0.888   2.521   6.032  0.0487 -0.6807 -0.0038
  149DOPC   H8R17785   0.833   2.561   5.943  0.2013 -1.0430 -0.2617
  149DOPC   H8S17786   0.847   2.419   6.039  0.8710 -0.9872  0.4746
  149DOPC   C2917787   1.034   2.496   6.013  0.7331  0.5750 -0.6055
  149DOPC   H9R17788   1.071   2.419   6.082 -2.0323 -0.6711 -0.3889
  149DOPC  C21017789   1.113   2.546   5.916 -0.6215 -0.2912  0.1910
  149DOPC  H10R17790   1.215   2.507   5.908 -0.1916  1.1607 -2.3622
  149DOPC  C21117791   1.080   2.653   5.814  0.1835  0.3035 -0.6651
  149DOPC  H11R17792   1.168   2.721   5.821 -1.2615  2.1364  0.6795
  149DOPC  H11S17793   0.997   2.715   5.854  1.5833  2.5575 -1.0656
  149DOPC  C21217794   1.040   2.610   5.673 -0.3403  0.8109  0.0181
  149DOPC  H12R17795   0.942   2.562   5.695  0.1783  0.5567  1.9786
  149DOPC  H12S17796   1.112   2.537   5.630  0.0093  0.6774  0.7968
  149DOPC  C21317797   1.041   2.730   5.572 -0.4522  0.4349 -0.6563
  149DOPC  H13R17798   1.143   2.764   5.546 -0.2557  0.4581  0.1209
  149DOPC  H13S17799   0.996   2.817   5.625 -0.0401 -1.3100  2.8540
  149DOPC  C21417800   0.961   2.706   5.438  0.4745 -0.0303 -0.0227
  149DOPC  H14R17801   0.973   2.801   5.381  0.0428  1.1345  1.7430
  149DOPC  H14S17802   0.853   2.703   5.464 -0.0551  3.9097 -1.0434
  149DOPC  C21517803   1.007   2.585   5.360 -0.9840 -0.1449  0.2482
  149DOPC  H15R17804   0.983   2.493   5.418 -1.0939 -0.6566 -0.5961
  149DOPC  H15S17805   1.115   2.580   5.336 -0.8583  0.6500  0.6167
  149DOPC  C21617806   0.935   2.589   5.228  0.4773 -0.3786 -0.4643
  149DOPC  H16R17807   0.974   2.502   5.171  1.7720 -1.2148  1.5675
  149DOPC  H16S17808   0.972   2.677   5.171  0.7966 -0.2166 -0.0122
  149DOPC  C21717809   0.784   2.595   5.234  0.0059  0.2673  0.5599
  149DOPC  H17R17810   0.762   2.697   5.270  0.5497  0.4690  0.3239
  149DOPC  H17S17811   0.751   2.535   5.322  1.2454 -1.4057 -0.0504
  149DOPC  C21817812   0.708   2.549   5.112 -0.4170 -0.7554 -0.4125
  149DOPC  H18R17813   0.600   2.567   5.127 -0.3019  0.3658 -0.7974
  149DOPC  H18S17814   0.723   2.440   5.096 -1.0365 -0.6456 -1.8421
  149DOPC  H18T17815   0.737   2.599   5.017  0.2967  2.2066  1.2241
  149DOPC   C3317816   1.004   1.981   6.164 -0.4567 -0.1472 -0.4910
  149DOPC   H3X17817   0.907   1.930   6.148 -0.4833 -0.1748 -0.2358
  149DOPC   H3Y17818   1.075   1.912   6.213 -0.0230  1.6418  1.5502
  149DOPC   C3417819   1.039   2.023   6.023 -0.1320 -0.0398  0.2207
  149DOPC   H4X17820   1.149   2.035   6.013 -0.1978 -0.0253 -0.5785
  149DOPC   H4Y17821   0.995   2.122   6.001  1.2352  0.6084  0.2773
  149DOPC   C3517822   0.992   1.941   5.901  0.1790 -0.3764  0.1097
  149DOPC   H5X17823   0.883   1.931   5.885  0.0636  0.7638  0.0884
  149DOPC   H5Y17824   1.043   1.842   5.910  0.9819  0.0995  0.9971
  149DOPC   C3617825   1.046   2.010   5.773  0.2235 -0.0414  0.0889
  149DOPC   H6X17826   1.021   2.118   5.776 -0.3381 -0.0557 -1.9951
  149DOPC   H6Y17827   1.157   2.003   5.766  0.6145  1.6557  2.9631
  149DOPC   C3717828   0.997   1.938   5.651 -0.4586  0.2255 -0.8719
  149DOPC   H7X17829   1.024   1.833   5.673 -1.2409 -0.0788 -1.3185
  149DOPC   H7Y17830   0.887   1.939   5.633 -0.3896 -1.3126 -1.4494
  149DOPC   C3817831   1.067   1.984   5.518 -0.6934  0.2306  0.0388
  149DOPC   H8X17832   1.037   2.091   5.509 -0.5563  0.2553 -0.1434
  149DOPC   H8Y17833   1.010   1.924   5.444 -0.2751 -2.2746  1.6622
  149DOPC   C3917834   1.215   1.933   5.510  0.4352 -0.1921  0.1674
  149DOPC   H9X17835   1.232   1.827   5.532  1.4873  0.0694  0.6949
  149DOPC  C31017836   1.324   2.008   5.478  0.3170  0.0805  0.3688
  149DOPC  H10X17837   1.423   1.960   5.479 -0.3030 -1.2807 -0.1723
  149DOPC  C31117838   1.319   2.148   5.418 -0.3351  0.1141  0.3556
  149DOPC  H11X17839   1.223   2.201   5.432  0.7367  2.6815 -1.2841
  149DOPC  H11Y17840   1.335   2.138   5.308  1.6645 -0.4651  0.6512
  149DOPC  C31217841   1.433   2.228   5.492  0.0450  0.0576  0.2815
  149DOPC  H12X17842   1.451   2.325   5.440 -0.3819  0.2950  0.5748
  149DOPC  H12Y17843   1.527   2.170   5.478 -1.7325 -3.1687  0.7351
  149DOPC  C31317844   1.421   2.242   5.650  0.9737  0.1062 -0.5725
  149DOPC  H13X17845   1.337   2.315   5.657  0.8192  0.0841 -2.0005
  149DOPC  H13Y17846   1.396   2.147   5.702 -0.4978  0.5485 -0.4198
  149DOPC  C31417847   1.540   2.301   5.718 -0.5102 -0.1595  0.7613
  149DOPC  H14X17848   1.631   2.267   5.663 -0.5656  0.4526  0.2814
  149DOPC  H14Y17849   1.545   2.410   5.697  1.4649 -0.4249 -0.3722
  149DOPC  C31517850   1.556   2.261   5.869  0.4351  0.1913 -0.1415
  149DOPC  H15X17851   1.646   2.315   5.906 -0.2638  1.9975 -0.9792
  149DOPC  H15Y17852   1.572   2.151   5.870 -0.9777 -0.1136 -2.6383
  149DOPC  C31617853   1.424   2.287   5.944 -0.8439 -0.8948 -0.7287
  149DOPC  H16X17854   1.394   2.391   5.922 -1.0027 -0.9048 -0.5564
  149DOPC  H16Y17855   1.346   2.214   5.914  0.6219 -2.8480 -0.0712
  149DOPC  C31717856   1.440   2.253   6.095 -0.0565  0.0284  0.3587
  149DOPC  H17X17857   1.458   2.144   6.107  0.6098  0.0805 -0.1834
  149DOPC  H17Y17858   1.511   2.311   6.158 -0.3165 -1.4870  2.1523
  149DOPC  C31817859   1.300   2.276   6.171 -0.4674 -0.3103 -0.5973
  149DOPC  H18X17860   1.212   2.238   6.113  0.4822 -2.0365 -0.9909
  149DOPC  H18Y17861   1.309   2.237   6.275  1.2030  2.6086  0.4515
  149DOPC  H18Z17862   1.287   2.384   6.190  1.6657  0.2247 -1.8839
  150DOPC     N17863   3.725   3.982   7.528  0.3988  0.2599 -0.3976
  150DOPC   C1217864   3.588   3.930   7.493  0.5277 -0.1033 -0.3716
  150DOPC  H12A17865   3.551   3.878   7.580  0.0103 -0.7789 -0.9894
  150DOPC  H12B17866   3.582   3.854   7.417 -1.3081 -0.3561 -0.0233
  150DOPC   C1317867   3.807   3.861   7.571  0.7488 -0.1044  0.7791
  150DOPC  H13A17868   3.801   3.778   7.503 -0.4230 -1.5427  2.5517
  150DOPC  H13B17869   3.906   3.892   7.601  1.1891  0.9796 -1.5331
  150DOPC  H13C17870   3.759   3.817   7.657 -0.9054 -0.5952 -0.3273
  150DOPC   C1417871   3.722   4.087   7.637  0.6077 -0.3982  0.0190
  150DOPC  H14A17872   3.672   4.173   7.596  0.9014 -0.7154 -1.0536
  150DOPC  H14B17873   3.660   4.054   7.719 -0.4266  0.8284 -0.2419
  150DOPC  H14C17874   3.821   4.122   7.662  0.8634 -1.3925  0.4503
  150DOPC   C1517875   3.792   4.050   7.412  0.0683  0.4793  0.2827
  150DOPC  H15A17876   3.796   3.986   7.325 -0.8479  0.9640 -0.1310
  150DOPC  H15B17877   3.891   4.085   7.435 -0.0200  1.0148 -0.1212
  150DOPC  H15C17878   3.734   4.135   7.377  0.9108  1.5057  1.3310
  150DOPC   C1117879   3.478   4.035   7.458 -0.5111  0.7330  0.2925
  150DOPC  H11A17880   3.381   3.981   7.463 -1.3797  2.2004 -0.1058
  150DOPC  H11B17881   3.471   4.110   7.539 -1.6003 -1.2194  2.1107
  150DOPC     P17882   3.523   4.236   7.289  0.2006  0.0625  0.0343
  150DOPC   O1317883   3.580   4.304   7.404  0.6571 -0.3055 -0.5507
  150DOPC   O1417884   3.406   4.307   7.234 -0.2343  0.1420  0.3313
  150DOPC   O1217885   3.501   4.089   7.326  0.9685 -0.0165  0.1855
  150DOPC   O1117886   3.629   4.226   7.180 -0.1610  0.2361  0.3346
  150DOPC    C117887   3.634   4.111   7.086  1.0814 -0.6882 -0.2513
  150DOPC    HA17888   3.569   4.025   7.113  1.5875 -1.0905 -0.3001
  150DOPC    HB17889   3.736   4.067   7.083  1.5708  0.4014  0.0252
  150DOPC    C217890   3.598   4.162   6.940  0.2416 -0.1582 -0.5615
  150DOPC    HS17891   3.620   4.086   6.862 -2.9412 -0.4531 -1.3124
  150DOPC   O2117892   3.664   4.287   6.918 -0.3994  0.6575 -0.1744
  150DOPC   C2117893   3.792   4.272   6.883 -0.4283 -0.2361 -0.5092
  150DOPC   O2217894   3.850   4.167   6.863 -0.0064  0.0572  0.6607
  150DOPC   C2217895   3.853   4.409   6.859 -0.0579 -0.5089  0.0096
  150DOPC   H2R17896   3.834   4.460   6.956 -2.5327  0.1264 -0.7457
  150DOPC   H2S17897   3.795   4.472   6.789 -0.5234  1.5145  2.0966
  150DOPC    C317898   3.451   4.177   6.907 -0.4335 -0.5741 -0.6602
  150DOPC    HX17899   3.406   4.244   6.984  1.9757 -0.6382  0.8916
  150DOPC    HY17900   3.400   4.083   6.938 -1.9324  1.4349  3.8996
  150DOPC   O3117901   3.418   4.217   6.775  0.0821  0.1074  0.1580
  150DOPC   C3117902   3.419   4.349   6.740 -0.0358  0.6899 -0.1085
  150DOPC   O3217903   3.424   4.438   6.824  0.0540 -0.0827  0.4791
  150DOPC   C3217904   3.406   4.366   6.593  0.2639  0.5364  0.2301
  150DOPC   H2X17905   3.496   4.322   6.546 -0.0760  0.8560 -0.7308
  150DOPC   H2Y17906   3.318   4.304   6.565  1.9159 -0.8957 -2.1291
  150DOPC   C2317907   4.001   4.413   6.830 -0.7559  0.6664  0.7241
  150DOPC   H3R17908   4.056   4.338   6.891  0.9095  1.2684  0.0120
  150DOPC   H3S17909   4.045   4.511   6.858 -1.0935  0.5727  1.6173
  150DOPC   C2417910   4.038   4.394   6.680  0.0637  0.1467  1.0090
  150DOPC   H4R17911   3.986   4.464   6.611 -0.1379  0.0361  1.0503
  150DOPC   H4S17912   4.006   4.291   6.656  1.9019 -0.4440  0.9270
  150DOPC   C2517913   4.183   4.413   6.652 -0.2553 -0.3708  0.3165
  150DOPC   H5R17914   4.248   4.336   6.700  0.5145 -1.2407 -1.9794
  150DOPC   H5S17915   4.213   4.517   6.677 -1.0045 -0.1756  0.4107
  150DOPC   C2617916   4.228   4.421   6.506 -0.2865  0.4738 -0.6653
  150DOPC   H6R17917   4.203   4.330   6.447  1.0056  0.4700 -1.2353
  150DOPC   H6S17918   4.339   4.421   6.505 -0.2493  2.2434  0.0157
  150DOPC   C2717919   4.175   4.548   6.440 -0.1238  0.6887  0.0017
  150DOPC   H7R17920   4.192   4.639   6.501 -0.1083  1.5446 -1.2422
  150DOPC   H7S17921   4.064   4.540   6.444 -0.4049  3.6550  0.0872
  150DOPC   C2817922   4.211   4.569   6.291  0.3417 -0.1767  0.4257
  150DOPC   H8R17923   4.179   4.479   6.233 -1.6354  0.7026  0.0681
  150DOPC   H8S17924   4.321   4.567   6.280  0.3190 -2.0671  0.1524
  150DOPC   C2917925   4.148   4.695   6.238  0.0078  0.0834  0.3363
  150DOPC   H9R17926   4.162   4.784   6.300 -0.2381 -0.0356  0.5668
  150DOPC  C21017927   4.047   4.698   6.147 -0.0015  0.6707  0.8275
  150DOPC  H10R17928   3.999   4.793   6.118  1.3454  0.6714 -1.5883
  150DOPC  C21117929   4.008   4.581   6.059 -0.0424 -0.6253 -0.7543
  150DOPC  H11R17930   3.911   4.538   6.092  0.1742  0.4981  1.5814
  150DOPC  H11S17931   4.079   4.496   6.069 -0.2885 -0.6346  1.5149
  150DOPC  C21217932   4.012   4.645   5.914  0.6551 -0.2928 -0.2972
  150DOPC  H12R17933   4.097   4.713   5.895 -1.2102  1.8037 -1.5969
  150DOPC  H12S17934   3.922   4.708   5.899  1.1966 -0.0071 -2.7163
  150DOPC  C21317935   3.995   4.544   5.797 -0.0444  0.0350 -0.1990
  150DOPC  H13R17936   4.012   4.599   5.702  3.4063 -0.8178 -0.2091
  150DOPC  H13S17937   3.897   4.492   5.804  0.1087 -0.0246  2.2952
  150DOPC  C21417938   4.091   4.422   5.807 -0.1486  0.1998  0.8656
  150DOPC  H14R17939   4.052   4.347   5.735  0.9292 -0.1031  0.5935
  150DOPC  H14S17940   4.086   4.380   5.910  1.4513  0.7237  1.1821
  150DOPC  C21517941   4.242   4.450   5.760  1.2691 -0.1629  0.1720
  150DOPC  H15R17942   4.276   4.542   5.812 -0.1240  0.2859  0.3285
  150DOPC  H15S17943   4.212   4.477   5.656 -0.6768 -0.0798  0.7104
  150DOPC  C21617944   4.325   4.324   5.782  0.2862 -0.2309  0.0953
  150DOPC  H16R17945   4.283   4.241   5.721 -0.7103 -0.2897  0.8388
  150DOPC  H16S17946   4.312   4.298   5.890  1.5928  0.3015  0.4116
  150DOPC  C21717947   4.479   4.339   5.758 -0.0423 -1.2715  0.2609
  150DOPC  H17R17948   4.492   4.344   5.648  0.2972 -2.3388  0.2340
  150DOPC  H17S17949   4.528   4.243   5.788  1.1311 -1.3848 -1.8123
  150DOPC  C21817950   4.542   4.464   5.835  0.6273  0.2244  0.2001
  150DOPC  H18R17951   4.652   4.459   5.818  0.3161 -0.0245 -1.8919
  150DOPC  H18S17952   4.516   4.468   5.943 -0.4737 -0.9453 -0.0043
  150DOPC  H18T17953   4.518   4.556   5.777  0.0308 -0.4719 -0.6790
  150DOPC   C3317954   3.392   4.513   6.545 -0.1510 -0.5376  0.0709
  150DOPC   H3X17955   3.491   4.559   6.527 -0.2026  0.1029  1.3134
  150DOPC   H3Y17956   3.346   4.578   6.623  3.9139  1.4903  1.0620
  150DOPC   C3417957   3.301   4.502   6.424 -0.8588  0.1173 -0.0141
  150DOPC   H4X17958   3.335   4.405   6.382  1.0242  0.0908  1.4147
  150DOPC   H4Y17959   3.340   4.579   6.353  0.6575 -1.2957 -0.7614
  150DOPC   C3517960   3.148   4.524   6.447  0.2456  0.1055  0.2604
  150DOPC   H5X17961   3.117   4.630   6.460 -0.8698  0.0399 -1.5632
  150DOPC   H5Y17962   3.109   4.476   6.539 -2.0766  0.4710 -0.4679
  150DOPC   C3617963   3.064   4.459   6.334 -0.5037  0.2749  0.3912
  150DOPC   H6X17964   3.090   4.351   6.336 -1.4899 -0.0112 -0.9776
  150DOPC   H6Y17965   2.956   4.478   6.354 -0.9795 -1.1449 -0.6292
  150DOPC   C3717966   3.101   4.502   6.189  0.4187 -0.0855  0.5314
  150DOPC   H7X17967   3.069   4.607   6.169  1.7819  0.0868 -0.9226
  150DOPC   H7Y17968   3.212   4.504   6.182  0.3948 -2.1847 -1.2010
  150DOPC   C3817969   3.053   4.418   6.068  0.3823 -0.0038  0.0760
  150DOPC   H8X17970   2.942   4.418   6.071  0.3186  2.0698 -0.6565
  150DOPC   H8Y17971   3.084   4.312   6.078 -2.1138 -0.6504  1.7595
  150DOPC   C3917972   3.115   4.470   5.936 -0.1721  0.4350  0.9976
  150DOPC   H9X17973   3.194   4.545   5.944  1.4303 -1.2998  2.4314
  150DOPC  C31017974   3.085   4.421   5.810  0.2778 -0.1468 -0.0171
  150DOPC  H10X17975   3.137   4.471   5.727 -3.2504  1.3608 -1.5102
  150DOPC  C31117976   2.981   4.320   5.764 -0.0851 -0.2578  0.1798
  150DOPC  H11X17977   2.922   4.364   5.681 -1.0276 -2.5956 -0.4784
  150DOPC  H11Y17978   2.910   4.299   5.847 -0.7915  0.7980 -0.1398
  150DOPC  C31217979   3.053   4.193   5.719  0.1313  0.1959  0.5214
  150DOPC  H12X17980   2.975   4.117   5.695 -0.7103  0.8742  1.0582
  150DOPC  H12Y17981   3.113   4.148   5.801 -3.5938 -1.7937  2.4492
  150DOPC  C31317982   3.130   4.214   5.584  0.7178 -0.3875  0.1968
  150DOPC  H13X17983   3.067   4.261   5.505  1.5458 -0.0968 -0.2992
  150DOPC  H13Y17984   3.219   4.278   5.601  0.4983  0.0614 -0.3025
  150DOPC  C31417985   3.175   4.079   5.534  0.0750 -0.1648  0.0906
  150DOPC  H14X17986   3.246   4.033   5.607  0.8288  0.1796 -0.4113
  150DOPC  H14Y17987   3.081   4.022   5.519  0.1541 -0.4947  0.7994
  150DOPC  C31517988   3.227   4.094   5.389 -0.1010  0.8759  0.1598
  150DOPC  H15X17989   3.327   4.143   5.398  0.4571 -0.3700  1.0009
  150DOPC  H15Y17990   3.154   4.147   5.324 -2.3040 -2.2610 -0.1522
  150DOPC  C31617991   3.245   3.953   5.326 -0.0592  0.1447  0.1638
  150DOPC  H16X17992   3.305   3.895   5.400  0.6018  2.2641  1.3895
  150DOPC  H16Y17993   3.149   3.900   5.318  0.4459 -0.6174 -1.1446
  150DOPC  C31717994   3.339   3.951   5.206 -0.6694  0.6566 -0.4718
  150DOPC  H17X17995   3.301   4.017   5.125  0.3992  0.2927 -1.2966
  150DOPC  H17Y17996   3.433   4.003   5.232 -0.8007  1.2355 -1.1131
  150DOPC  C31817997   3.364   3.808   5.146 -0.7292 -0.2002  0.1968
  150DOPC  H18X17998   3.444   3.756   5.202  0.3458 -0.7011 -1.7093
  150DOPC  H18Y17999   3.276   3.741   5.153 -0.4773 -0.5186  0.3254
  150DOPC  H18Z18000   3.394   3.823   5.040  2.8909 -1.3258  0.9006
  151DOPC     N18001   0.540   3.658   7.235 -0.7551 -0.1067  0.5231
  151DOPC   C1218002   0.686   3.626   7.262 -0.0591  0.4403  0.3918
  151DOPC  H12A18003   0.732   3.704   7.321  1.3185  1.0715 -1.4375
  151DOPC  H12B18004   0.748   3.624   7.173  2.8953  1.9227  2.2519
  151DOPC   C1318005   0.481   3.657   7.366  0.0887  0.0949  0.1809
  151DOPC  H13A18006   0.385   3.708   7.370  0.2033  0.4603 -1.2385
  151DOPC  H13B18007   0.463   3.558   7.406  1.7864 -1.2585 -2.2180
  151DOPC  H13C18008   0.546   3.710   7.434 -0.2410  0.7206  0.0145
  151DOPC   C1418009   0.470   3.546   7.157 -0.6623  0.2303 -0.2024
  151DOPC  H14A18010   0.365   3.573   7.150 -1.3432 -1.7870  1.3891
  151DOPC  H14B18011   0.517   3.531   7.061  1.0350  1.1719  0.4396
  151DOPC  H14C18012   0.486   3.455   7.213 -0.4915  0.4362  0.0832
  151DOPC   C1518013   0.532   3.789   7.155  0.0536 -0.5015  0.2173
  151DOPC  H15A18014   0.429   3.810   7.128  0.3565 -0.7859 -1.2681
  151DOPC  H15B18015   0.569   3.764   7.056 -1.6279  1.9293 -1.1166
  151DOPC  H15C18016   0.595   3.863   7.200  0.7468 -0.3859 -0.9206
  151DOPC   C1118017   0.725   3.496   7.338  0.8273 -0.0108 -0.1133
  151DOPC  H11A18018   0.834   3.501   7.358  0.3208  2.1269  2.5947
  151DOPC  H11B18019   0.662   3.495   7.429  1.0195 -0.6973  0.0208
  151DOPC     P18020   0.772   3.273   7.199  0.2549 -0.1965  0.0818
  151DOPC   O1318021   0.683   3.165   7.140  0.4902 -0.4012  0.2963
  151DOPC   O1418022   0.876   3.225   7.296 -0.2623 -0.3181 -0.0395
  151DOPC   O1218023   0.680   3.378   7.266  0.1414  0.0785  0.3195
  151DOPC   O1118024   0.847   3.352   7.085  0.7791  0.4216  0.0610
  151DOPC    C118025   0.779   3.401   6.965  0.2229  0.0223  0.3657
  151DOPC    HA18026   0.812   3.505   6.945 -0.1601  0.1659  0.4670
  151DOPC    HB18027   0.670   3.412   6.980  0.4579  4.3423  0.1863
  151DOPC    C218028   0.801   3.291   6.860 -0.7077 -0.1551  0.2460
  151DOPC    HS18029   0.768   3.191   6.895 -0.8114 -0.0589  0.4229
  151DOPC   O2118030   0.945   3.293   6.840 -0.0850  0.5080  0.1493
  151DOPC   C2118031   0.999   3.174   6.833 -0.3353 -0.5520 -0.0358
  151DOPC   O2218032   0.941   3.067   6.832 -0.0247 -0.1042  0.2208
  151DOPC   C2218033   1.152   3.197   6.800  0.1212  0.2753  0.0459
  151DOPC   H2R18034   1.197   3.260   6.879  3.1560  0.4371 -1.6404
  151DOPC   H2S18035   1.143   3.257   6.707 -2.5103 -2.6970 -1.8414
  151DOPC    C318036   0.725   3.318   6.733 -0.3928 -0.1972  0.3008
  151DOPC    HX18037   0.731   3.425   6.705  0.0635 -0.1293  0.6485
  151DOPC    HY18038   0.617   3.294   6.738 -0.4525 -0.4595 -1.5806
  151DOPC   O3118039   0.794   3.244   6.623  0.0890 -0.1761  0.0437
  151DOPC   C3118040   0.742   3.118   6.605 -0.2850 -0.5156 -1.1009
  151DOPC   O3218041   0.660   3.060   6.669  0.6242 -0.0763 -0.3094
  151DOPC   C3218042   0.817   3.058   6.483  0.4343 -0.0156 -0.3202
  151DOPC   H2X18043   0.911   3.115   6.467  0.5800 -0.5993 -1.6214
  151DOPC   H2Y18044   0.839   2.950   6.499 -0.4753 -0.4238 -1.6934
  151DOPC   C2318045   1.216   3.064   6.765  0.2043  0.4458 -0.2822
  151DOPC   H3R18046   1.160   2.977   6.806 -3.1680  1.0510 -3.2031
  151DOPC   H3S18047   1.321   3.076   6.799  1.1557 -1.5672 -2.2699
  151DOPC   C2418048   1.238   3.044   6.611 -0.1385 -0.8021  0.0261
  151DOPC   H4R18049   1.261   3.133   6.549 -0.4388 -0.5295  0.3003
  151DOPC   H4S18050   1.140   3.009   6.572  0.0694 -0.8079 -0.4937
  151DOPC   C2518051   1.334   2.935   6.575 -0.3341 -0.3827 -0.1035
  151DOPC   H5R18052   1.304   2.846   6.634 -0.2963 -0.9665 -0.9434
  151DOPC   H5S18053   1.436   2.966   6.609  0.4496 -0.6004 -2.1205
  151DOPC   C2618054   1.345   2.909   6.425  0.4843 -0.6763 -0.6055
  151DOPC   H6R18055   1.433   2.845   6.404 -0.2068 -1.1362 -2.2302
  151DOPC   H6S18056   1.362   3.002   6.367 -0.1957 -0.4158 -0.4041
  151DOPC   C2718057   1.222   2.837   6.374  0.5841 -0.7200 -0.3063
  151DOPC   H7R18058   1.139   2.911   6.373  0.8272 -0.4375 -1.2563
  151DOPC   H7S18059   1.190   2.756   6.443  2.4701 -1.1019  0.1745
  151DOPC   C2818060   1.234   2.782   6.236 -0.1605  0.1262  0.3548
  151DOPC   H8R18061   1.279   2.857   6.167 -0.3835  1.2214  1.3699
  151DOPC   H8S18062   1.136   2.760   6.188 -0.2497 -1.7017  1.2590
  151DOPC   C2918063   1.320   2.662   6.235  0.0321 -0.1485 -0.2715
  151DOPC   H9R18064   1.273   2.577   6.286  0.5625  0.7620  1.8471
  151DOPC  C21018065   1.431   2.643   6.162 -0.2386  1.1654  0.1553
  151DOPC  H10R18066   1.466   2.539   6.162 -1.4456  0.7239 -1.1420
  151DOPC  C21118067   1.492   2.736   6.066 -0.0065 -0.4066  0.2069
  151DOPC  H11R18068   1.600   2.741   6.088 -0.2430  0.5382  1.2650
  151DOPC  H11S18069   1.457   2.841   6.075  1.2626 -0.0197  0.7268
  151DOPC  C21218070   1.484   2.674   5.929 -0.2035  0.1217 -0.5554
  151DOPC  H12R18071   1.379   2.650   5.904 -0.4982 -0.7333  1.3785
  151DOPC  H12S18072   1.523   2.570   5.933  0.6358  0.2037 -3.8099
  151DOPC  C21318073   1.565   2.751   5.819 -0.3611 -0.1715  0.3444
  151DOPC  H13R18074   1.672   2.749   5.847 -0.5320 -2.2130  0.9714
  151DOPC  H13S18075   1.532   2.857   5.829 -0.6562 -0.1753 -0.5428
  151DOPC  C21418076   1.561   2.706   5.677  0.1324  0.1132  0.6189
  151DOPC  H14R18077   1.612   2.608   5.668 -0.1360 -0.2739  2.7579
  151DOPC  H14S18078   1.599   2.777   5.601 -1.2954 -0.5610 -0.7886
  151DOPC  C21518079   1.416   2.663   5.631  0.0288 -0.6787 -0.2384
  151DOPC  H15R18080   1.355   2.756   5.640 -2.4880 -2.3341  0.8079
  151DOPC  H15S18081   1.378   2.581   5.695 -1.5553  0.2767  0.0935
  151DOPC  C21618082   1.410   2.606   5.485 -0.7170  0.1992  0.3348
  151DOPC  H16R18083   1.319   2.543   5.475 -1.2011  0.9205  0.0139
  151DOPC  H16S18084   1.494   2.535   5.471 -0.8021  0.5114 -2.5201
  151DOPC  C21718085   1.413   2.710   5.382  0.3408 -0.3791  0.2775
  151DOPC  H17R18086   1.489   2.786   5.411 -0.4130 -0.2799  2.0968
  151DOPC  H17S18087   1.322   2.773   5.375  0.7607  0.3008  0.7433
  151DOPC  C21818088   1.436   2.660   5.239  0.4389  0.5417 -0.1735
  151DOPC  H18R18089   1.354   2.590   5.211  1.4878 -1.1971  0.9383
  151DOPC  H18S18090   1.539   2.622   5.228 -0.1954 -0.7176 -2.6237
  151DOPC  H18T18091   1.431   2.750   5.173  0.2606 -1.0592 -2.4322
  151DOPC   C3318092   0.725   3.059   6.357 -0.5915 -0.2353  0.2918
  151DOPC   H3X18093   0.693   3.162   6.333 -0.5603 -0.6792 -1.7669
  151DOPC   H3Y18094   0.636   2.995   6.380  0.8677 -2.3342  0.4003
  151DOPC   C3418095   0.790   3.004   6.227  0.0235 -0.0289 -0.3355
  151DOPC   H4X18096   0.709   3.006   6.151 -0.5421 -1.5302  0.1974
  151DOPC   H4Y18097   0.809   2.895   6.241  1.2152  0.3145  0.9213
  151DOPC   C3518098   0.917   3.074   6.171  0.3742  0.1833 -0.5140
  151DOPC   H5X18099   0.993   3.086   6.251  0.2733  0.4292 -0.4560
  151DOPC   H5Y18100   0.892   3.171   6.123  1.5100  0.3856 -0.7382
  151DOPC   C3618101   0.986   2.998   6.052 -0.0739  0.0184 -0.3424
  151DOPC   H6X18102   0.991   2.891   6.082 -0.6168  0.1106  0.1023
  151DOPC   H6Y18103   0.916   3.004   5.967  0.2720  2.1814 -0.5496
  151DOPC   C3718104   1.116   3.067   6.016 -0.0324  0.0310 -0.5815
  151DOPC   H7X18105   1.117   3.174   5.985  2.3903 -0.1178 -1.1946
  151DOPC   H7Y18106   1.184   3.066   6.104 -1.8502  2.8986  1.0287
  151DOPC   C3818107   1.199   3.004   5.895  0.6663  0.7661 -0.3767
  151DOPC   H8X18108   1.123   2.970   5.821 -0.0876  0.3364  0.5715
  151DOPC   H8Y18109   1.241   2.908   5.932 -2.4853 -0.6208 -0.0292
  151DOPC   C3918110   1.318   3.083   5.843  1.1057 -0.3343 -0.0189
  151DOPC   H9X18111   1.392   3.101   5.922  0.9899  3.6170 -0.6049
  151DOPC  C31018112   1.320   3.152   5.721 -0.0640  0.7648 -0.6672
  151DOPC  H10X18113   1.412   3.204   5.694 -0.2083  0.0887 -2.5747
  151DOPC  C31118114   1.205   3.145   5.624  0.2304  0.0853 -0.0505
  151DOPC  H11X18115   1.125   3.219   5.643 -0.1052 -0.0957 -0.7362
  151DOPC  H11Y18116   1.157   3.045   5.622 -1.5475  0.8560  1.2410
  151DOPC  C31218117   1.249   3.166   5.477 -0.8282  0.1962  0.4702
  151DOPC  H12X18118   1.351   3.127   5.464 -0.7850 -0.1150  1.5894
  151DOPC  H12Y18119   1.245   3.273   5.447 -1.0870 -0.6696 -2.8987
  151DOPC  C31318120   1.163   3.094   5.379  0.7388  1.1398 -0.2425
  151DOPC  H13X18121   1.170   2.985   5.401  0.2485  1.0999 -0.2582
  151DOPC  H13Y18122   1.057   3.130   5.375  0.5082  0.3494 -2.6727
  151DOPC  C31418123   1.218   3.092   5.232  0.9089 -0.3875 -0.5605
  151DOPC  H14X18124   1.227   3.198   5.202  2.3719 -0.1857  0.4564
  151DOPC  H14Y18125   1.318   3.043   5.237  1.0907  0.0225 -0.0498
  151DOPC  C31518126   1.129   3.019   5.133  0.0495 -0.1832  0.2216
  151DOPC  H15X18127   1.036   3.080   5.125 -0.1756 -0.7085 -1.3448
  151DOPC  H15Y18128   1.102   2.919   5.172 -0.7834 -0.2422 -0.4820
  151DOPC  C31618129   1.199   2.996   4.996  0.1168  0.2196 -0.4155
  151DOPC  H16X18130   1.249   3.087   4.954  2.5660 -1.0177 -0.3600
  151DOPC  H16Y18131   1.263   2.906   5.000  2.3362  1.6127 -1.9682
  151DOPC  C31718132   1.097   2.959   4.892 -0.1043 -0.4006 -0.0957
  151DOPC  H17X18133   1.054   2.862   4.927 -0.9804  0.2754  0.7440
  151DOPC  H17Y18134   1.015   3.033   4.895 -0.4321 -0.7588 -0.1778
  151DOPC  C31818135   1.151   2.933   4.750  0.0001 -0.4406 -0.4681
  151DOPC  H18X18136   1.060   2.923   4.687 -0.9756  1.5235  0.5104
  151DOPC  H18Y18137   1.207   3.024   4.718 -0.4532 -0.3813 -1.1121
  151DOPC  H18Z18138   1.215   2.843   4.754  0.4570 -0.0988  0.2924
  152DOPC     N18139   4.523   1.193   7.158 -0.5072 -0.9669  0.1891
  152DOPC   C1218140   4.440   1.215   7.282 -0.4642  0.3879 -0.2809
  152DOPC  H12A18141   4.420   1.319   7.299  0.6746  0.5616  0.1145
  152DOPC  H12B18142   4.506   1.179   7.360 -2.0670 -0.2641  0.8375
  152DOPC   C1318143   4.450   1.211   7.034  0.1609  0.2546  0.2915
  152DOPC  H13A18144   4.503   1.178   6.946  1.7115 -0.9995  1.6405
  152DOPC  H13B18145   4.366   1.143   7.033  1.0684 -0.9280  1.4530
  152DOPC  H13C18146   4.412   1.311   7.021  1.4230  0.6138 -0.7734
  152DOPC   C1418147   4.567   1.046   7.149 -0.1970 -0.1579  0.4794
  152DOPC  H14A18148   4.482   0.982   7.129  1.8693 -2.3318 -2.2635
  152DOPC  H14B18149   4.622   1.030   7.057 -1.5251 -1.8952 -0.0599
  152DOPC  H14C18150   4.639   1.018   7.225  0.7991  2.6570  0.6790
  152DOPC   C1518151   4.643   1.278   7.138 -0.1241 -0.4636 -1.0275
  152DOPC  H15A18152   4.696   1.258   7.046 -1.4881 -1.5712 -1.6144
  152DOPC  H15B18153   4.707   1.260   7.223  0.3802  0.6768 -1.1481
  152DOPC  H15C18154   4.609   1.381   7.136 -1.8373 -0.9815 -0.6591
  152DOPC   C1118155   4.310   1.125   7.296 -0.0707 -0.2222 -0.3182
  152DOPC  H11A18156   4.342   1.018   7.295  0.0860 -0.4290  4.2076
  152DOPC  H11B18157   4.268   1.139   7.398  4.3654 -1.4224  1.9486
  152DOPC     P18158   4.127   1.283   7.195 -0.1354 -0.0777 -0.2519
  152DOPC   O1318159   4.178   1.387   7.287 -0.2517 -0.3770  0.0506
  152DOPC   O1418160   3.985   1.240   7.229 -0.3234  0.4699  0.2482
  152DOPC   O1218161   4.218   1.154   7.187  0.0638  0.0444 -0.5236
  152DOPC   O1118162   4.130   1.325   7.041 -0.0661  0.4747  0.0725
  152DOPC    C118163   4.079   1.234   6.947  0.0376 -0.5703  0.2577
  152DOPC    HA18164   3.973   1.203   6.961 -0.6847  0.2116 -2.7408
  152DOPC    HB18165   4.151   1.151   6.933  0.7278 -0.0943  0.8931
  152DOPC    C218166   4.070   1.306   6.812 -0.6900  0.4454  0.6101
  152DOPC    HS18167   4.015   1.234   6.747 -1.6336  1.7063 -0.0425
  152DOPC   O2118168   4.203   1.346   6.754  0.0649 -0.9438 -0.5778
  152DOPC   C2118169   4.222   1.341   6.624  0.5722 -0.5980 -0.4129
  152DOPC   O2218170   4.137   1.295   6.543  0.3800 -0.2012  0.4604
  152DOPC   C2218171   4.355   1.397   6.576 -0.6174  0.6261 -0.6552
  152DOPC   H2R18172   4.408   1.324   6.511 -2.5664 -0.4693 -1.0870
  152DOPC   H2S18173   4.413   1.414   6.670 -0.8310 -1.4257 -0.1014
  152DOPC    C318174   3.979   1.430   6.818  0.8825  0.3550 -0.4563
  152DOPC    HX18175   4.026   1.491   6.898  1.8814  1.3532 -1.7525
  152DOPC    HY18176   3.880   1.391   6.850 -0.9191  5.0469  0.4499
  152DOPC   O3118177   3.961   1.503   6.697 -0.5193 -0.6060 -0.1656
  152DOPC   C3118178   3.928   1.629   6.711 -0.0900  0.9572  0.1167
  152DOPC   O3218179   3.901   1.683   6.820 -0.3105  0.5004 -0.0860
  152DOPC   C3218180   3.935   1.704   6.574 -0.1323 -0.7331 -0.0440
  152DOPC   H2X18181   3.870   1.794   6.579  0.2579 -0.5095  1.3350
  152DOPC   H2Y18182   4.042   1.735   6.569 -0.2907  0.1261  1.4245
  152DOPC   C2318183   4.351   1.529   6.495  0.4026 -0.1802  0.0380
  152DOPC   H3R18184   4.445   1.587   6.499 -0.7925  1.7672  2.6847
  152DOPC   H3S18185   4.281   1.597   6.549  2.0181  1.0341  0.6733
  152DOPC   C2418186   4.313   1.515   6.349  0.3383  0.5706 -0.8702
  152DOPC   H4R18187   4.205   1.492   6.340 -0.0084  1.9824 -0.5408
  152DOPC   H4S18188   4.359   1.419   6.315  1.7757 -0.6814  3.8453
  152DOPC   C2518189   4.347   1.645   6.268 -0.6715  0.8603 -0.3071
  152DOPC   H5R18190   4.456   1.669   6.267 -1.1520  3.3618 -1.8644
  152DOPC   H5S18191   4.304   1.740   6.306  1.0908  1.1976  0.9777
  152DOPC   C2618192   4.322   1.627   6.117 -0.8409 -0.3281  0.2757
  152DOPC   H6R18193   4.215   1.606   6.095 -1.0302  1.1998 -0.4622
  152DOPC   H6S18194   4.380   1.551   6.061 -0.7665  1.3802 -2.1603
  152DOPC   C2718195   4.355   1.757   6.030 -0.7199 -0.0499  0.2611
  152DOPC   H7R18196   4.463   1.779   6.036 -1.1236  2.5212 -0.3081
  152DOPC   H7S18197   4.313   1.843   6.089  0.1076 -0.2854  1.2195
  152DOPC   C2818198   4.315   1.753   5.883  0.2219 -0.4224 -0.0262
  152DOPC   H8R18199   4.218   1.700   5.866  0.9152 -2.6630  2.4153
  152DOPC   H8S18200   4.395   1.693   5.835  0.3711 -0.3468  0.1304
  152DOPC   C2918201   4.300   1.893   5.828  0.1706 -0.6953 -0.6748
  152DOPC   H9R18202   4.297   1.958   5.916 -0.3836 -1.6074  0.0032
  152DOPC  C21018203   4.275   1.937   5.698  0.2687  0.2421 -0.2881
  152DOPC  H10R18204   4.270   2.045   5.680  0.7952  0.1979 -0.7149
  152DOPC  C21118205   4.279   1.839   5.574  0.0735  0.0461 -0.5504
  152DOPC  H11R18206   4.178   1.839   5.529 -0.2923 -0.1602  0.2594
  152DOPC  H11S18207   4.291   1.732   5.599  3.4372  0.4087 -0.0617
  152DOPC  C21218208   4.366   1.894   5.459  0.3164  0.3554 -0.6503
  152DOPC  H12R18209   4.473   1.885   5.486  0.8771  0.7397 -2.5684
  152DOPC  H12S18210   4.341   2.002   5.451 -0.4107  0.2537  0.0661
  152DOPC  C21318211   4.333   1.811   5.334 -0.8670  0.5220  0.2785
  152DOPC  H13R18212   4.227   1.831   5.304 -0.8944  0.4492  0.3270
  152DOPC  H13S18213   4.341   1.708   5.374  1.9211  0.5554 -0.0222
  152DOPC  C21418214   4.434   1.822   5.211  0.1223 -0.6343 -0.1162
  152DOPC  H14R18215   4.526   1.851   5.266  0.0480 -1.3040  0.3826
  152DOPC  H14S18216   4.409   1.906   5.143 -0.4047 -0.4918  0.2526
  152DOPC  C21518217   4.449   1.689   5.139 -0.7385 -0.1985  0.4833
  152DOPC  H15R18218   4.351   1.663   5.093 -0.0847 -3.6762  0.7427
  152DOPC  H15S18219   4.487   1.600   5.194  0.0137 -0.8260 -0.9937
  152DOPC  C21618220   4.544   1.698   5.011  0.2702 -0.0921  0.1004
  152DOPC  H16R18221   4.646   1.696   5.054  1.0005 -3.0251 -1.4887
  152DOPC  H16S18222   4.520   1.784   4.944  1.0247  0.7977  0.9457
  152DOPC  C21718223   4.542   1.569   4.931  0.2457  0.2910 -0.6720
  152DOPC  H17R18224   4.456   1.571   4.861 -0.7613  1.2137  0.5397
  152DOPC  H17S18225   4.537   1.473   4.988 -1.2637 -0.2998 -1.7465
  152DOPC  C21818226   4.682   1.561   4.860  0.2786  0.3237 -0.4060
  152DOPC  H18R18227   4.707   1.662   4.820  3.2618 -0.1615 -0.0663
  152DOPC  H18S18228   4.668   1.490   4.777 -0.0805 -0.9834  0.7409
  152DOPC  H18T18229   4.756   1.522   4.934 -0.6193 -0.5276  0.0644
  152DOPC   C3318230   3.893   1.614   6.456  0.1637 -0.0704  0.2244
  152DOPC   H3X18231   3.808   1.553   6.495  0.7681 -0.1473  1.4888
  152DOPC   H3Y18232   3.977   1.546   6.431 -1.0083 -1.2729 -0.5762
  152DOPC   C3418233   3.862   1.699   6.328 -0.2879  0.9452 -0.3454
  152DOPC   H4X18234   3.776   1.767   6.350 -1.5061 -0.8793  0.7600
  152DOPC   H4Y18235   3.823   1.629   6.251 -0.9952  0.4842  0.4236
  152DOPC   C3518236   3.976   1.783   6.274  0.6169 -0.2524 -1.0378
  152DOPC   H5X18237   4.060   1.720   6.239 -0.4696 -1.7926 -0.9442
  152DOPC   H5Y18238   4.015   1.851   6.353 -1.7699 -0.2997  0.2676
  152DOPC   C3618239   3.926   1.857   6.147 -1.2462  0.1234 -0.4163
  152DOPC   H6X18240   3.821   1.889   6.157 -1.5336 -0.3072 -1.9210
  152DOPC   H6Y18241   3.985   1.950   6.135  0.6104 -0.8837  0.3800
  152DOPC   C3718242   3.947   1.784   6.014 -0.1440  0.1567  0.4800
  152DOPC   H7X18243   4.049   1.739   6.008  0.0430  0.5694  0.4970
  152DOPC   H7Y18244   3.872   1.703   6.018  1.7302 -1.6447  1.5697
  152DOPC   C3818245   3.927   1.869   5.894 -0.0771 -0.0025  0.1127
  152DOPC   H8X18246   4.011   1.942   5.898 -0.6555  0.6746  0.3222
  152DOPC   H8Y18247   3.835   1.931   5.910  1.2498  1.5239  2.3766
  152DOPC   C3918248   3.933   1.796   5.760  0.0296 -0.3763  0.2285
  152DOPC   H9X18249   3.988   1.701   5.753  1.8620  0.4283  2.1225
  152DOPC  C31018250   3.880   1.848   5.653  0.7903  0.4146  0.6709
  152DOPC  H10X18251   3.910   1.808   5.555 -1.1858  1.4598 -0.4146
  152DOPC  C31118252   3.796   1.976   5.645 -0.2097 -0.3684  0.0194
  152DOPC  H11X18253   3.783   2.024   5.744 -0.9560 -4.0692  1.8965
  152DOPC  H11Y18254   3.697   1.950   5.601 -0.3343 -0.0057  0.0854
  152DOPC  C31218255   3.867   2.073   5.552 -0.1215  0.4189  0.1545
  152DOPC  H12X18256   3.972   2.080   5.589 -0.0478  0.1279  0.0066
  152DOPC  H12Y18257   3.816   2.170   5.568  0.4946  0.9966 -1.2750
  152DOPC  C31318258   3.864   2.052   5.401  0.2061  0.2577  0.1514
  152DOPC  H13X18259   3.925   2.131   5.352  0.3237 -1.3054 -2.3895
  152DOPC  H13Y18260   3.906   1.953   5.373 -1.7037 -0.4661 -0.3743
  152DOPC  C31418261   3.715   2.050   5.345 -0.2637 -0.1413  0.4874
  152DOPC  H14X18262   3.656   1.969   5.392 -1.1890  1.0109  1.3814
  152DOPC  H14Y18263   3.662   2.146   5.367 -0.8487  0.6873 -3.6551
  152DOPC  C31518264   3.713   2.036   5.193  0.6122 -0.0051  0.3821
  152DOPC  H15X18265   3.703   1.927   5.173  0.8664 -0.0562  0.5327
  152DOPC  H15Y18266   3.809   2.067   5.147  1.4755 -0.6908  1.6667
  152DOPC  C31618267   3.594   2.106   5.127  0.3758  0.3389  0.0480
  152DOPC  H16X18268   3.501   2.050   5.151 -0.5325  0.2547 -3.2016
  152DOPC  H16Y18269   3.583   2.208   5.170  0.6094 -0.2086  1.4907
  152DOPC  C31718270   3.621   2.110   4.969 -0.0445 -0.3709 -0.7994
  152DOPC  H17X18271   3.711   2.174   4.959  1.3305 -1.8278  1.3777
  152DOPC  H17Y18272   3.634   2.006   4.933 -1.0530 -0.5683 -0.6188
  152DOPC  C31818273   3.504   2.179   4.900  0.4226  0.1702  0.3458
  152DOPC  H18X18274   3.495   2.285   4.930  0.1055 -0.6671  3.5763
  152DOPC  H18Y18275   3.524   2.174   4.790 -0.1853 -0.3290  0.2520
  152DOPC  H18Z18276   3.408   2.129   4.924  1.1978 -1.6828 -0.2003
  153DOPC     N18277   4.122   0.561   6.893 -0.0221  0.1780  0.1466
  153DOPC   C1218278   4.207   0.555   6.768  0.0069  0.6709 -0.0156
  153DOPC  H12A18279   4.144   0.588   6.687 -0.4741 -1.1517 -0.4273
  153DOPC  H12B18280   4.225   0.452   6.741  0.3226  0.6900  0.1246
  153DOPC   C1318281   4.201   0.529   7.016 -0.1367  0.0219  0.4143
  153DOPC  H13A18282   4.238   0.428   7.014  0.0069  0.0106  2.1371
  153DOPC  H13B18283   4.292   0.587   7.026  0.5562 -0.8628 -0.6172
  153DOPC  H13C18284   4.138   0.549   7.101 -0.6183  1.5048 -0.2592
  153DOPC   C1418285   4.008   0.470   6.898 -0.9853  0.3056 -0.5235
  153DOPC  H14A18286   3.936   0.493   6.821 -0.7834  2.1897 -0.2177
  153DOPC  H14B18287   4.039   0.367   6.887  0.2485  0.7627 -1.6272
  153DOPC  H14C18288   3.949   0.482   6.987 -0.3349 -0.9597  0.0979
  153DOPC   C1518289   4.059   0.698   6.901 -0.6271  0.0952  0.4813
  153DOPC  H15A18290   3.970   0.702   6.841  0.3608  0.1520 -1.0468
  153DOPC  H15B18291   4.126   0.768   6.855 -0.0910  0.5868  1.9476
  153DOPC  H15C18292   4.040   0.731   7.002 -0.4357 -0.0283  0.5588
  153DOPC   C1118293   4.339   0.624   6.772 -0.4302 -0.3718 -0.8285
  153DOPC  H11A18294   4.377   0.628   6.667 -0.8342 -0.2770 -0.9757
  153DOPC  H11B18295   4.314   0.723   6.814  2.2273 -0.0782  0.1962
  153DOPC     P18296   4.525   0.433   6.801 -0.2842 -0.0832  0.4728
  153DOPC   O1318297   4.445   0.318   6.760 -0.3294  0.7389  0.7823
  153DOPC   O1418298   4.623   0.403   6.906 -0.1011 -0.9180  0.1553
  153DOPC   O1218299   4.437   0.554   6.851  0.0926 -0.2345  0.1208
  153DOPC   O1118300   4.599   0.492   6.676 -0.5044 -0.9457  0.4899
  153DOPC    C118301   4.665   0.616   6.698  0.0963 -0.1899 -0.2218
  153DOPC    HA18302   4.754   0.599   6.762  1.4349  1.2631 -1.6231
  153DOPC    HB18303   4.607   0.699   6.743 -1.1959 -0.3559 -1.4858
  153DOPC    C218304   4.721   0.654   6.564 -0.6982 -0.5529 -0.2460
  153DOPC    HS18305   4.795   0.735   6.584 -1.6873  0.2302  0.3247
  153DOPC   O2118306   4.619   0.692   6.477  0.5029 -0.1399 -0.4209
  153DOPC   C2118307   4.558   0.804   6.500 -0.3051 -0.1271  0.2333
  153DOPC   O2218308   4.581   0.885   6.587  0.6502 -0.3511  0.0489
  153DOPC   C2218309   4.446   0.827   6.388 -0.1160 -0.4410 -0.2118
  153DOPC   H2R18310   4.352   0.791   6.434 -0.9981  1.5135 -0.3627
  153DOPC   H2S18311   4.476   0.767   6.299 -1.2362 -1.0738 -0.1799
  153DOPC    C318312   4.811   0.541   6.504  0.8061 -0.0677  0.4812
  153DOPC    HX18313   4.744   0.464   6.460  1.0491 -0.1188  0.1962
  153DOPC    HY18314   4.874   0.495   6.584  0.6273  0.6191  1.0231
  153DOPC   O3118315   4.885   0.594   6.392 -0.2178  0.1253 -0.1313
  153DOPC   C3118316   5.001   0.657   6.412  0.2967 -0.4052  0.2688
  153DOPC   O3218317   5.055   0.668   6.519  0.2497  0.3546 -0.6057
  153DOPC   C3218318   5.043   0.726   6.285 -0.5007 -0.2924 -0.2144
  153DOPC   H2X18319   5.151   0.748   6.291 -0.5639 -0.1743  0.5152
  153DOPC   H2Y18320   5.017   0.654   6.205 -0.4210 -1.2123  0.5798
  153DOPC   C2318321   4.437   0.975   6.352 -0.1643  0.0670  0.7382
  153DOPC   H3R18322   4.429   1.039   6.443  1.3526 -0.3253  1.1835
  153DOPC   H3S18323   4.343   0.976   6.294  0.0535 -0.0656  0.3795
  153DOPC   C2418324   4.542   1.015   6.246 -0.4666  0.4442 -0.3142
  153DOPC   H4R18325   4.545   0.957   6.152  1.5409  1.3160 -0.8572
  153DOPC   H4S18326   4.640   1.011   6.300 -0.9475  2.1040  0.7582
  153DOPC   C2518327   4.525   1.161   6.203  0.1360 -0.3776 -0.1922
  153DOPC   H5R18328   4.623   1.206   6.175  0.1460  0.6283  1.3616
  153DOPC   H5S18329   4.494   1.223   6.289 -1.7665  2.4160 -2.6852
  153DOPC   C2618330   4.420   1.195   6.096  0.3756 -0.4329 -0.2365
  153DOPC   H6R18331   4.411   1.305   6.079  1.4352 -0.4321 -0.8212
  153DOPC   H6S18332   4.320   1.161   6.131  1.6076 -4.7641 -0.4169
  153DOPC   C2718333   4.427   1.128   5.956 -0.6790 -0.4437  0.3637
  153DOPC   H7R18334   4.326   1.150   5.915 -1.5902  0.5932  2.9882
  153DOPC   H7S18335   4.428   1.017   5.965 -0.4335 -0.4695  0.0352
  153DOPC   C2818336   4.552   1.180   5.875  0.3597 -0.2928  0.2624
  153DOPC   H8R18337   4.574   1.106   5.795  0.3914  1.0010 -0.9440
  153DOPC   H8S18338   4.646   1.188   5.934  0.6462  1.2629 -0.3583
  153DOPC   C2918339   4.517   1.315   5.830 -0.4264 -0.3766  0.8999
  153DOPC   H9R18340   4.490   1.396   5.899  0.6742  0.2473  0.6174
  153DOPC  C21018341   4.489   1.344   5.695 -1.0406 -0.0429 -0.9866
  153DOPC  H10R18342   4.450   1.445   5.675  0.6174  1.0223  0.8058
  153DOPC  C21118343   4.503   1.251   5.574 -0.4560  0.3399  0.3988
  153DOPC  H11R18344   4.407   1.198   5.555 -0.4129 -0.0086  1.0984
  153DOPC  H11S18345   4.580   1.178   5.606  0.1900  1.9887  2.8790
  153DOPC  C21218346   4.551   1.327   5.442  0.2353  0.0858  0.1051
  153DOPC  H12R18347   4.602   1.419   5.478  1.0053 -1.1259  2.3002
  153DOPC  H12S18348   4.472   1.374   5.379  1.0099 -0.4246 -1.2870
  153DOPC  C21318349   4.648   1.236   5.356 -0.0646 -0.3778  0.2377
  153DOPC  H13R18350   4.589   1.148   5.322  0.3213 -0.7623  0.5620
  153DOPC  H13S18351   4.721   1.197   5.430 -0.1018  1.9505  1.6249
  153DOPC  C21418352   4.728   1.313   5.250  0.2295 -0.3831 -0.1245
  153DOPC  H14R18353   4.791   1.388   5.302 -1.9218  0.6945  1.0896
  153DOPC  H14S18354   4.652   1.367   5.190  1.1280 -0.0652 -0.9994
  153DOPC  C21518355   4.798   1.218   5.152 -0.2693 -0.2656 -0.1134
  153DOPC  H15R18356   4.813   1.268   5.054  0.3887  0.6698  0.4488
  153DOPC  H15S18357   4.744   1.123   5.127  0.2573 -0.3241 -1.0640
  153DOPC  C21618358   4.932   1.186   5.200 -0.0708 -0.7079 -0.3518
  153DOPC  H16R18359   4.933   1.120   5.290  0.6269 -2.3743 -1.5307
  153DOPC  H16S18360   4.997   1.274   5.216  1.7206 -2.1206  0.6057
  153DOPC  C21718361   5.002   1.104   5.088 -0.1310  0.4977  0.6652
  153DOPC  H17R18362   5.027   1.177   5.008 -0.9515 -0.1964 -0.2450
  153DOPC  H17S18363   4.929   1.030   5.049 -1.3031  1.8774  0.1406
  153DOPC  C21818364   5.132   1.036   5.124  0.3965 -0.3986  0.5681
  153DOPC  H18R18365   5.223   1.097   5.135  0.8826 -1.0527  0.2588
  153DOPC  H18S18366   5.162   0.955   5.054  2.1223 -0.4038  1.2595
  153DOPC  H18T18367   5.105   0.977   5.214 -2.7578 -0.3177 -0.1977
  153DOPC   C3318368   4.969   0.863   6.268  0.1438 -0.2420  0.6621
  153DOPC   H3X18369   5.002   0.923   6.355 -0.0890  0.0130  0.5761
  153DOPC   H3Y18370   4.860   0.847   6.260  0.3001 -0.4877 -2.0867
  153DOPC   C3418371   5.014   0.944   6.137  0.1597  0.0760  0.4300
  153DOPC   H4X18372   4.961   0.911   6.045  1.5981  0.3798 -0.5397
  153DOPC   H4Y18373   5.123   0.929   6.126  0.0339 -0.6182  0.0513
  153DOPC   C3518374   4.963   1.085   6.159 -0.4412  0.7357  0.1022
  153DOPC   H5X18375   5.028   1.133   6.236 -1.0643 -1.2876  1.9841
  153DOPC   H5Y18376   4.855   1.095   6.184 -0.9608 -2.2086 -0.6036
  153DOPC   C3618377   4.968   1.156   6.027  0.3483 -0.3725  0.6487
  153DOPC   H6X18378   5.062   1.150   5.968 -1.2546 -0.6961 -2.0085
  153DOPC   H6Y18379   4.883   1.109   5.973 -1.3967 -0.8227  3.5679
  153DOPC   C3718380   4.926   1.302   6.035  0.1231 -0.6817 -0.0285
  153DOPC   H7X18381   4.839   1.300   6.104  0.0535  1.3415  0.0042
  153DOPC   H7Y18382   5.005   1.363   6.084  1.0062 -2.0977  0.3725
  153DOPC   C3818383   4.879   1.370   5.901  0.0629 -0.0387  0.0215
  153DOPC   H8X18384   4.803   1.444   5.936  0.5261  0.7123 -0.5091
  153DOPC   H8Y18385   4.834   1.290   5.839 -2.5809  0.6957  0.8559
  153DOPC   C3918386   4.983   1.431   5.804 -0.7411  0.1656 -0.6626
  153DOPC   H9X18387   5.042   1.513   5.847  0.4978  0.5257 -2.9013
  153DOPC  C31018388   5.012   1.395   5.684 -0.0118 -0.0158 -0.6771
  153DOPC  H10X18389   5.099   1.445   5.640  0.2784  0.0868  0.0071
  153DOPC  C31118390   4.951   1.292   5.589  0.2082  0.2129  0.0567
  153DOPC  H11X18391   4.931   1.335   5.489 -1.0242 -1.1405 -0.3066
  153DOPC  H11Y18392   4.853   1.257   5.627  1.1781 -0.4339  2.1154
  153DOPC  C31218393   5.039   1.168   5.563 -0.3128  0.4859  0.8655
  153DOPC  H12X18394   5.140   1.195   5.525 -1.3591  0.0525 -2.5019
  153DOPC  H12Y18395   4.992   1.101   5.488  1.7969 -1.4388  1.1587
  153DOPC  C31318396   5.064   1.081   5.687 -0.6360 -0.6479  0.0673
  153DOPC  H13X18397   5.113   1.139   5.768 -2.9325  1.7962 -0.1895
  153DOPC  H13Y18398   4.969   1.058   5.739 -0.1553  0.6755  1.6148
  153DOPC  C31418399   5.145   0.955   5.659 -0.1004 -0.3353 -0.0254
  153DOPC  H14X18400   5.082   0.890   5.595 -1.2464 -0.5836  1.3002
  153DOPC  H14Y18401   5.238   0.974   5.601 -1.3845  2.2381 -1.4550
  153DOPC  C31518402   5.149   0.874   5.794 -0.2274 -0.2683  0.4398
  153DOPC  H15X18403   5.046   0.891   5.831  0.0526  1.7659  0.3904
  153DOPC  H15Y18404   5.219   0.916   5.870 -0.1333 -1.3183  0.9527
  153DOPC  C31618405   5.167   0.719   5.775 -0.9751 -0.1739  0.0701
  153DOPC  H16X18406   5.085   0.688   5.707 -1.7779  0.9457  0.4938
  153DOPC  H16Y18407   5.269   0.705   5.733 -0.9070 -1.0789  0.5104
  153DOPC  C31718408   5.170   0.657   5.910  0.0773  0.2970  0.4583
  153DOPC  H17X18409   5.229   0.718   5.982 -3.1312  1.6791  2.1286
  153DOPC  H17Y18410   5.065   0.658   5.947 -0.9067  1.6237 -2.1529
  153DOPC  C31818411   5.213   0.511   5.896 -0.1028  0.6157  0.4898
  153DOPC  H18X18412   5.314   0.497   5.851 -0.5407 -0.3920 -0.2141
  153DOPC  H18Y18413   5.226   0.475   6.000 -0.1423  0.8608  0.5826
  153DOPC  H18Z18414   5.143   0.439   5.849  0.6921  0.5000 -0.5579
  154DOPC     N18415   4.475   4.044   7.350 -0.3513  0.7602  0.0889
  154DOPC   C1218416   4.426   4.101   7.220  0.2687  0.0302  0.0994
  154DOPC  H12A18417   4.464   4.202   7.210  0.4224 -0.0668 -0.3189
  154DOPC  H12B18418   4.319   4.116   7.227 -0.0943 -2.9251  2.5388
  154DOPC   C1318419   4.631   4.031   7.350  0.4308 -0.2668 -0.3058
  154DOPC  H13A18420   4.666   4.128   7.319 -0.4277 -0.8558 -3.4405
  154DOPC  H13B18421   4.665   3.981   7.439  0.6625 -0.3894 -0.4632
  154DOPC  H13C18422   4.652   3.966   7.266 -0.1316 -3.3922  1.8288
  154DOPC   C1418423   4.409   3.907   7.378 -0.1494  0.2915 -0.3545
  154DOPC  H14A18424   4.443   3.835   7.305 -0.5451 -1.7674  1.4054
  154DOPC  H14B18425   4.436   3.882   7.479 -0.1953  1.3331 -0.0744
  154DOPC  H14C18426   4.303   3.926   7.369 -0.4366 -0.8342  0.4734
  154DOPC   C1518427   4.429   4.132   7.466 -0.3373 -0.4293 -0.4043
  154DOPC  H15A18428   4.478   4.095   7.555  0.6851 -1.8551 -1.5107
  154DOPC  H15B18429   4.322   4.121   7.472 -0.2745 -1.7145 -1.1161
  154DOPC  H15C18430   4.456   4.234   7.442  1.2123 -0.6793  0.1700
  154DOPC   C1118431   4.457   4.028   7.086 -0.8915 -0.8102 -0.1503
  154DOPC  H11A18432   4.424   3.922   7.078 -0.3008 -1.0673  0.6319
  154DOPC  H11B18433   4.396   4.076   7.007  0.3725  0.7467 -0.2358
  154DOPC     P18434   4.673   4.167   6.997 -0.2149  0.4713  0.1773
  154DOPC   O1318435   4.822   4.146   7.014 -0.5431  0.2190  0.0693
  154DOPC   O1418436   4.623   4.293   7.058 -0.3803 -0.2602 -0.2344
  154DOPC   O1218437   4.597   4.040   7.061 -0.7047  0.3385  0.1016
  154DOPC   O1118438   4.625   4.163   6.847 -0.4805 -0.8193 -0.0477
  154DOPC    C118439   4.644   4.035   6.782  0.4286 -0.3095 -0.7063
  154DOPC    HA18440   4.688   3.956   6.848 -1.5256 -0.8513  0.0102
  154DOPC    HB18441   4.723   4.050   6.705  0.4070  4.2749 -0.0788
  154DOPC    C218442   4.512   3.989   6.715  0.1949 -0.0010  0.2695
  154DOPC    HS18443   4.449   3.936   6.790 -1.6763 -0.4634 -1.5241
  154DOPC   O2118444   4.544   3.904   6.606  0.0543  0.3000  0.4912
  154DOPC   C2118445   4.608   3.794   6.627  0.1923  0.8315  0.0624
  154DOPC   O2218446   4.634   3.745   6.738 -0.1450  0.0851  0.2033
  154DOPC   C2218447   4.658   3.742   6.500  0.4888  0.7950  0.2155
  154DOPC   H2R18448   4.739   3.814   6.474 -0.1979  1.4286 -0.1985
  154DOPC   H2S18449   4.576   3.744   6.425  1.7395 -1.2676 -1.3073
  154DOPC    C318450   4.435   4.114   6.669 -0.8139 -0.3651  0.1390
  154DOPC    HX18451   4.507   4.191   6.633  1.1242 -2.0738  0.1706
  154DOPC    HY18452   4.389   4.171   6.753 -0.4120 -0.1755  0.2363
  154DOPC   O3118453   4.346   4.095   6.555  0.3039  0.4858  0.0454
  154DOPC   C3118454   4.234   4.034   6.591  0.2073  0.6917 -0.4783
  154DOPC   O3218455   4.213   4.002   6.713  0.0569  0.5310  0.4751
  154DOPC   C3218456   4.128   4.032   6.479  0.0267 -0.0094  0.2697
  154DOPC   H2X18457   4.139   4.129   6.426  0.6046  0.0451  0.4705
  154DOPC   H2Y18458   4.144   3.948   6.409 -2.1808  0.2523 -0.6230
  154DOPC   C2318459   4.713   3.601   6.526  0.5163  0.0389  0.0309
  154DOPC   H3R18460   4.655   3.538   6.598 -0.3834  1.0309  0.1918
  154DOPC   H3S18461   4.811   3.611   6.576  0.2730  1.0501  0.3250
  154DOPC   C2418462   4.754   3.514   6.408  0.6486  0.6940  0.1769
  154DOPC   H4R18463   4.669   3.465   6.356  0.4256  1.4157 -0.1488
  154DOPC   H4S18464   4.804   3.422   6.444 -1.9106 -1.0797 -0.5676
  154DOPC   C2518465   4.831   3.584   6.298 -0.3360 -0.2187 -0.0247
  154DOPC   H5R18466   4.936   3.597   6.333 -0.7593 -0.3236  1.3428
  154DOPC   H5S18467   4.796   3.687   6.274  1.0632  0.9319  2.4703
  154DOPC   C2618468   4.837   3.501   6.171  0.1772  0.0059 -0.1283
  154DOPC   H6R18469   4.739   3.487   6.120  1.1900 -1.5479 -1.7797
  154DOPC   H6S18470   4.869   3.402   6.211  2.4989  0.0303 -1.7204
  154DOPC   C2718471   4.937   3.546   6.065 -0.0357  0.0661  1.0441
  154DOPC   H7R18472   5.030   3.583   6.114 -0.0822 -0.8018  1.8001
  154DOPC   H7S18473   4.894   3.637   6.018 -1.9071 -1.4811 -0.4154
  154DOPC   C2818474   4.963   3.437   5.963 -0.9200  0.1131 -0.4216
  154DOPC   H8R18475   4.870   3.404   5.912 -1.6888  1.3357  0.1552
  154DOPC   H8S18476   4.999   3.353   6.026 -0.5068 -0.4327 -1.3563
  154DOPC   C2918477   5.068   3.458   5.855  0.4485  0.2959  0.1319
  154DOPC   H9R18478   5.172   3.437   5.885 -0.0942  0.2692  2.1779
  154DOPC  C21018479   5.053   3.525   5.746 -0.2311 -0.2520  0.5270
  154DOPC  H10R18480   5.141   3.530   5.681  0.2254  1.0141  1.2116
  154DOPC  C21118481   4.925   3.596   5.699 -0.1080  0.5304  0.1745
  154DOPC  H11R18482   4.862   3.619   5.787  0.1717  0.1369  0.4800
  154DOPC  H11S18483   4.870   3.527   5.631  1.3176 -1.9780  1.4442
  154DOPC  C21218484   4.948   3.729   5.625  0.1181  0.0636  0.4682
  154DOPC  H12R18485   5.013   3.797   5.685 -0.7366  2.1501 -0.8384
  154DOPC  H12S18486   4.851   3.781   5.608 -0.1080 -0.9700 -1.5913
  154DOPC  C21318487   5.017   3.720   5.485  0.7445 -0.2551 -0.4218
  154DOPC  H13R18488   5.113   3.668   5.505  0.1034 -0.3381  3.0457
  154DOPC  H13S18489   5.039   3.823   5.451  0.5963  0.3766  1.3089
  154DOPC  C21418490   4.924   3.651   5.384 -0.8806 -0.0964  0.4191
  154DOPC  H14R18491   4.824   3.699   5.392 -1.3901 -1.2016  0.9590
  154DOPC  H14S18492   4.921   3.544   5.413  1.8697 -0.1482  0.8280
  154DOPC  C21518493   4.984   3.666   5.241 -0.6347  0.2993 -0.8345
  154DOPC  H15R18494   4.977   3.773   5.212 -3.4287  0.6011  0.6362
  154DOPC  H15S18495   4.921   3.603   5.175  0.5519  0.8283 -2.5196
  154DOPC  C21618496   5.132   3.629   5.216  0.6168 -0.4378 -0.4510
  154DOPC  H16R18497   5.155   3.545   5.285 -2.4926 -0.4710  0.7249
  154DOPC  H16S18498   5.192   3.715   5.250 -0.4526 -0.1375  0.7537
  154DOPC  C21718499   5.180   3.591   5.073  0.5500 -0.2072 -0.2410
  154DOPC  H17R18500   5.156   3.675   5.005  0.4571 -0.6386 -0.7448
  154DOPC  H17S18501   5.118   3.509   5.031 -0.4798  1.1164 -1.4075
  154DOPC  C21818502   5.334   3.552   5.068  0.7192 -0.2412  0.0788
  154DOPC  H18R18503   5.360   3.474   5.143 -0.1180  0.5113  1.1895
  154DOPC  H18S18504   5.396   3.642   5.091 -0.9142  0.6592  1.1333
  154DOPC  H18T18505   5.357   3.529   4.962 -0.4888  1.2108 -0.5399
  154DOPC   C3318506   3.986   4.023   6.543 -0.0446 -0.2135 -0.1191
  154DOPC   H3X18507   3.965   4.106   6.614  0.3293 -0.0747 -0.1687
  154DOPC   H3Y18508   3.982   3.934   6.610 -2.7209 -0.3007 -0.2627
  154DOPC   C3418509   3.871   4.038   6.449  0.7779 -0.1887  0.1173
  154DOPC   H4X18510   3.871   3.962   6.369  2.8370  0.1165 -0.2228
  154DOPC   H4Y18511   3.883   4.142   6.410 -1.3607  1.0744  2.5004
  154DOPC   C3518512   3.733   4.041   6.516 -0.0526  0.0413 -0.3022
  154DOPC   H5X18513   3.717   4.124   6.588 -0.8910  0.3408 -0.8197
  154DOPC   H5Y18514   3.721   3.948   6.576  0.7135  0.6166  0.7742
  154DOPC   C3618515   3.619   4.054   6.415  0.4500  0.5930  0.7416
  154DOPC   H6X18516   3.611   4.149   6.358  0.0037 -0.6189 -1.2976
  154DOPC   H6Y18517   3.636   3.977   6.337 -1.1445  1.8290 -0.8945
  154DOPC   C3718518   3.480   4.034   6.461 -0.3345  0.4525 -0.4674
  154DOPC   H7X18519   3.468   3.941   6.519  1.6809  0.9454  0.8559
  154DOPC   H7Y18520   3.447   4.119   6.524 -0.7626 -0.1141  0.0772
  154DOPC   C3818521   3.379   4.016   6.339 -0.2178 -0.0113 -0.9474
  154DOPC   H8X18522   3.281   3.982   6.378 -0.8994  0.2696 -2.3612
  154DOPC   H8Y18523   3.412   3.930   6.277  0.5824 -0.3497 -0.0931
  154DOPC   C3918524   3.351   4.147   6.276 -0.1145 -1.0329  0.2786
  154DOPC   H9X18525   3.353   4.239   6.336 -0.9596  0.3568 -1.7101
  154DOPC  C31018526   3.334   4.160   6.142 -0.7566 -0.0179  0.3433
  154DOPC  H10X18527   3.299   4.260   6.113 -1.0511 -0.7828 -2.0999
  154DOPC  C31118528   3.339   4.061   6.029 -0.1821 -0.4047  0.2109
  154DOPC  H11X18529   3.242   4.074   5.976  0.4849 -0.8953 -1.1548
  154DOPC  H11Y18530   3.356   3.957   6.063  3.2447 -0.2709 -0.7756
  154DOPC  C31218531   3.450   4.091   5.919  0.5534  0.7565  0.0217
  154DOPC  H12X18532   3.447   4.201   5.906  1.8902  0.5486 -2.3969
  154DOPC  H12Y18533   3.431   4.047   5.820 -1.2308  2.3786 -0.4230
  154DOPC  C31318534   3.589   4.071   5.970 -0.1220  0.7851 -0.4871
  154DOPC  H13X18535   3.605   4.141   6.055  0.8590  1.9364 -1.5754
  154DOPC  H13Y18536   3.584   3.968   6.011 -2.8136  0.5076 -1.3508
  154DOPC  C31418537   3.715   4.093   5.879  0.2442 -0.6425 -0.1510
  154DOPC  H14X18538   3.699   4.036   5.785 -1.9141 -0.3325 -0.0402
  154DOPC  H14Y18539   3.745   4.189   5.832 -0.8040  0.2967  1.0023
  154DOPC  C31518540   3.835   4.031   5.951 -0.0668 -0.1215  0.0311
  154DOPC  H15X18541   3.911   4.006   5.873  0.8367  2.8072 -0.1586
  154DOPC  H15Y18542   3.805   3.930   5.987 -0.6738  0.7520  2.1231
  154DOPC  C31618543   3.898   4.136   6.039  0.4926  0.1702 -0.4213
  154DOPC  H16X18544   3.933   4.218   5.972 -0.1031 -1.6310 -3.1037
  154DOPC  H16Y18545   3.825   4.182   6.109 -0.0438 -2.1173  0.6049
  154DOPC  C31718546   4.028   4.091   6.106 -0.6749  0.8558 -0.5102
  154DOPC  H17X18547   4.006   4.016   6.184 -2.0804  2.7869  1.0686
  154DOPC  H17Y18548   4.094   4.055   6.025 -2.4622  2.0604 -2.6153
  154DOPC  C31818549   4.102   4.209   6.169  0.0403 -0.3045 -0.1477
  154DOPC  H18X18550   4.043   4.248   6.255 -0.8840  0.3198 -1.0422
  154DOPC  H18Y18551   4.204   4.179   6.200  0.7831  0.8168 -1.4207
  154DOPC  H18Z18552   4.106   4.292   6.096 -1.4745 -0.1715 -0.1159
  155DOPC     N18553   2.862   1.764   7.397 -0.3032  0.6742 -0.1536
  155DOPC   C1218554   2.819   1.783   7.252 -0.5918  0.1861  0.4153
  155DOPC  H12A18555   2.897   1.826   7.190 -1.0438 -0.9482 -1.0151
  155DOPC  H12B18556   2.742   1.858   7.246 -1.1835 -0.4061  0.3755
  155DOPC   C1318557   2.931   1.885   7.447 -0.0298  0.3989 -0.8426
  155DOPC  H13A18558   3.014   1.916   7.386 -0.0032  0.0015 -1.0111
  155DOPC  H13B18559   2.870   1.974   7.441  0.2771  0.5225 -2.4966
  155DOPC  H13C18560   2.961   1.869   7.549 -1.4667  3.2727  0.1430
  155DOPC   C1418561   2.970   1.653   7.411  0.5706 -0.4453  0.9530
  155DOPC  H14A18562   3.009   1.649   7.511  0.5164  0.5002  1.0209
  155DOPC  H14B18563   2.920   1.559   7.395 -0.5050  0.3628 -0.7033
  155DOPC  H14C18564   3.046   1.650   7.333 -0.3510 -2.2455  0.0553
  155DOPC   C1518565   2.747   1.718   7.477 -0.1408 -0.3085  0.0091
  155DOPC  H15A18566   2.718   1.620   7.442  0.5084 -0.3835 -0.3263
  155DOPC  H15B18567   2.670   1.792   7.462  2.5234  2.4950 -0.8418
  155DOPC  H15C18568   2.761   1.709   7.583 -0.6304  0.4126  0.1433
  155DOPC   C1118569   2.772   1.669   7.169  0.1857 -0.6429  0.3239
  155DOPC  H11A18570   2.770   1.709   7.066  1.0747 -0.5620  0.3301
  155DOPC  H11B18571   2.847   1.587   7.178  0.1867 -0.9299 -1.7985
  155DOPC     P18572   2.575   1.508   7.147  0.3849  0.2553 -0.1580
  155DOPC   O1318573   2.436   1.494   7.200  0.1757 -0.3559  0.0680
  155DOPC   O1418574   2.655   1.385   7.153  0.6720 -0.1574  0.1652
  155DOPC   O1218575   2.651   1.628   7.217 -0.3212  0.6380  0.0100
  155DOPC   O1118576   2.570   1.554   6.994 -0.8074 -0.8591 -0.0078
  155DOPC    C118577   2.504   1.673   6.953  0.5016  0.8506  0.5372
  155DOPC    HA18578   2.550   1.764   6.998  2.3956  1.2208 -1.9294
  155DOPC    HB18579   2.397   1.674   6.981 -0.0257  1.7287 -1.3616
  155DOPC    C218580   2.510   1.694   6.802 -0.5213 -0.2042 -0.0615
  155DOPC    HS18581   2.618   1.703   6.780 -0.2817  0.7045  1.4068
  155DOPC   O2118582   2.438   1.812   6.762 -0.5886  1.0280  0.2582
  155DOPC   C2118583   2.505   1.926   6.776 -0.1243 -0.0512  0.2407
  155DOPC   O2218584   2.620   1.934   6.812  0.0589 -0.0596 -0.2616
  155DOPC   C2218585   2.407   2.037   6.746 -0.3491  0.8437  0.0533
  155DOPC   H2R18586   2.447   2.127   6.797  1.5179  0.2516 -0.2858
  155DOPC   H2S18587   2.304   2.024   6.786  0.1575  0.3479  1.2718
  155DOPC    C318588   2.446   1.573   6.729 -0.1973 -0.5941 -0.7776
  155DOPC    HX18589   2.346   1.557   6.773 -0.6081  0.4314 -1.2866
  155DOPC    HY18590   2.508   1.487   6.762  0.6423  0.1305 -0.4349
  155DOPC   O3118591   2.442   1.596   6.584 -0.6890 -0.6939 -0.0298
  155DOPC   C3118592   2.409   1.489   6.524  0.5914 -0.2808  0.2824
  155DOPC   O3218593   2.379   1.380   6.570 -0.1125  0.4429 -0.4267
  155DOPC   C3218594   2.405   1.516   6.372 -0.4721 -0.5017 -0.4616
  155DOPC   H2X18595   2.320   1.586   6.355 -1.2598 -0.7644  1.9384
  155DOPC   H2Y18596   2.496   1.572   6.343  0.4502 -1.1465  1.0358
  155DOPC   C2318597   2.387   2.067   6.595 -0.2100  0.2516  0.6982
  155DOPC   H3R18598   2.477   2.104   6.541 -0.0583  2.0408  2.0814
  155DOPC   H3S18599   2.310   2.148   6.595  0.0659  0.5163  0.9544
  155DOPC   C2418600   2.327   1.953   6.509 -0.0680  0.5141 -0.4059
  155DOPC   H4R18601   2.238   1.917   6.564 -0.4608 -0.2646 -1.5062
  155DOPC   H4S18602   2.399   1.870   6.494 -0.7639  0.4137 -4.2739
  155DOPC   C2518603   2.297   1.990   6.356 -0.3970  0.7557 -0.7142
  155DOPC   H5R18604   2.395   2.010   6.307 -1.2526  2.2056 -1.9198
  155DOPC   H5S18605   2.235   2.081   6.362 -2.0363 -0.4057  1.4095
  155DOPC   C2618606   2.221   1.883   6.279  0.6925  0.2839 -0.1695
  155DOPC   H6R18607   2.136   1.841   6.337  1.2298 -2.4978 -1.2150
  155DOPC   H6S18608   2.282   1.792   6.259  1.1290  0.8199 -1.3636
  155DOPC   C2718609   2.175   1.930   6.144  0.1286 -0.5160  0.3019
  155DOPC   H7R18610   2.094   2.004   6.161 -1.6613 -2.2102 -0.3626
  155DOPC   H7S18611   2.122   1.845   6.094  0.2617 -1.2581  1.3855
  155DOPC   C2818612   2.293   1.993   6.059  0.3282  0.1207  0.8437
  155DOPC   H8R18613   2.380   1.924   6.068  0.2004  0.1401  2.6449
  155DOPC   H8S18614   2.317   2.091   6.105  0.8638  0.3360  0.1136
  155DOPC   C2918615   2.258   2.017   5.920 -0.4178 -0.5457  0.0184
  155DOPC   H9R18616   2.177   1.956   5.876 -0.0823 -1.3495  0.4836
  155DOPC  C21018617   2.296   2.131   5.857  0.5865 -0.1913 -0.2485
  155DOPC  H10R18618   2.246   2.146   5.760  0.6101 -0.3483 -0.2861
  155DOPC  C21118619   2.377   2.257   5.892 -0.5724 -0.1343  0.1844
  155DOPC  H11R18620   2.420   2.251   5.995 -1.3260  0.5158  0.5469
  155DOPC  H11S18621   2.311   2.345   5.881  0.1889  0.1994 -2.3307
  155DOPC  C21218622   2.496   2.280   5.801 -0.8041 -1.3314 -0.0079
  155DOPC  H12R18623   2.560   2.189   5.788  1.0742 -0.3539  1.7946
  155DOPC  H12S18624   2.570   2.353   5.840  0.3370 -0.6089 -3.2353
  155DOPC  C21318625   2.460   2.334   5.666  0.3707 -0.2320 -0.3588
  155DOPC  H13R18626   2.404   2.266   5.599 -0.1036  1.3034 -1.5846
  155DOPC  H13S18627   2.560   2.330   5.616  0.0668  0.4749 -1.0613
  155DOPC  C21418628   2.403   2.477   5.665 -0.0899  0.4645 -0.0229
  155DOPC  H14R18629   2.474   2.549   5.709 -0.8490  0.6745  0.8881
  155DOPC  H14S18630   2.307   2.474   5.722 -0.0524 -0.1641  0.0148
  155DOPC  C21518631   2.371   2.513   5.520  0.9211 -0.1365 -0.1780
  155DOPC  H15R18632   2.305   2.433   5.480 -0.9282  1.6494 -0.8949
  155DOPC  H15S18633   2.462   2.495   5.458  0.0642 -0.3221 -1.4221
  155DOPC  C21618634   2.304   2.645   5.499 -0.0252 -0.3340 -0.4907
  155DOPC  H16R18635   2.222   2.654   5.573 -1.3109 -0.2750 -1.8872
  155DOPC  H16S18636   2.252   2.650   5.401  1.2295 -0.2147 -1.1710
  155DOPC  C21718637   2.385   2.772   5.520  0.1780 -0.4227 -0.7958
  155DOPC  H17R18638   2.395   2.773   5.631  2.1048  2.3104 -0.8999
  155DOPC  H17S18639   2.332   2.864   5.489 -2.3258 -1.5208 -0.0384
  155DOPC  C21818640   2.520   2.755   5.459  0.6464 -0.2058  0.0564
  155DOPC  H18R18641   2.556   2.844   5.403  2.7342 -0.9820  0.1025
  155DOPC  H18S18642   2.522   2.684   5.372  0.8338 -0.8062  0.5437
  155DOPC  H18T18643   2.594   2.712   5.530 -1.7230 -2.7611  1.1949
  155DOPC   C3318644   2.410   1.388   6.295 -0.0739 -0.2739  0.4473
  155DOPC   H3X18645   2.336   1.310   6.326  0.4796 -0.8952  0.2334
  155DOPC   H3Y18646   2.508   1.348   6.327  0.3374  0.2395 -0.1478
  155DOPC   C3418647   2.400   1.401   6.140 -0.4996 -0.3168  0.2327
  155DOPC   H4X18648   2.304   1.450   6.113 -0.1639  1.0776  1.4098
  155DOPC   H4Y18649   2.404   1.295   6.109  0.9598 -0.4900  0.9252
  155DOPC   C3518650   2.524   1.477   6.083  0.8889  0.2606  0.6842
  155DOPC   H5X18651   2.612   1.415   6.113  0.3754 -2.0415 -2.0614
  155DOPC   H5Y18652   2.538   1.577   6.130  2.0709  0.1879  0.5136
  155DOPC   C3618653   2.520   1.492   5.933  0.2818  0.1528 -0.5150
  155DOPC   H6X18654   2.619   1.530   5.900 -0.2318  2.4280  0.3842
  155DOPC   H6Y18655   2.507   1.390   5.891  2.5243 -0.4042  0.0230
  155DOPC   C3718656   2.415   1.596   5.875  0.3229 -0.6513  0.0090
  155DOPC   H7X18657   2.311   1.581   5.909  0.6082  0.6281  1.5313
  155DOPC   H7Y18658   2.434   1.694   5.923  1.9144 -0.8006 -0.2344
  155DOPC   C3818659   2.421   1.605   5.729 -0.1904 -0.5637 -0.3693
  155DOPC   H8X18660   2.430   1.502   5.689 -0.1452 -0.4035 -0.7871
  155DOPC   H8Y18661   2.509   1.663   5.695 -1.2387  1.6247  0.4264
  155DOPC   C3918662   2.288   1.656   5.671  0.7937 -0.2909 -0.3587
  155DOPC   H9X18663   2.204   1.592   5.704  0.5785 -0.6348 -1.5372
  155DOPC  C31018664   2.262   1.762   5.583  0.7043  0.0794 -0.8671
  155DOPC  H10X18665   2.161   1.779   5.543  1.0422  1.9082 -1.0231
  155DOPC  C31118666   2.358   1.863   5.538 -0.0168 -0.1617 -0.1577
  155DOPC  H11X18667   2.419   1.906   5.619 -2.5443  0.0713  1.7507
  155DOPC  H11Y18668   2.303   1.953   5.503  1.0403  0.1092 -1.1814
  155DOPC  C31218669   2.451   1.808   5.432 -0.2675  0.6075  0.4039
  155DOPC  H12X18670   2.384   1.744   5.369 -1.1448  1.9470 -0.0711
  155DOPC  H12Y18671   2.528   1.742   5.477 -1.5911 -1.4244 -0.1737
  155DOPC  C31318672   2.509   1.914   5.338 -0.0993  0.0997  0.4985
  155DOPC  H13X18673   2.588   1.968   5.394 -0.1809  2.3446 -1.4039
  155DOPC  H13Y18674   2.549   1.852   5.255 -2.0104 -1.0828  0.4030
  155DOPC  C31418675   2.410   2.019   5.280 -0.1076 -1.1284 -0.5432
  155DOPC  H14X18676   2.314   1.986   5.235 -0.1213 -1.1935 -0.4658
  155DOPC  H14Y18677   2.387   2.081   5.369 -1.1498 -1.4053 -0.6023
  155DOPC  C31518678   2.482   2.092   5.175 -0.2450 -0.1814  0.5427
  155DOPC  H15X18679   2.503   2.020   5.093  0.6445  0.7846 -0.1191
  155DOPC  H15Y18680   2.576   2.126   5.224 -0.6362 -0.8096  1.7599
  155DOPC  C31618681   2.403   2.214   5.113 -0.1775  0.5633  0.2369
  155DOPC  H16X18682   2.446   2.234   5.012 -1.7079  2.8559 -0.0217
  155DOPC  H16Y18683   2.300   2.179   5.095 -0.0227  0.5820 -0.7812
  155DOPC  C31718684   2.429   2.345   5.192 -0.6660 -0.2171 -0.1226
  155DOPC  H17X18685   2.403   2.321   5.297  0.1567  1.5288  0.5204
  155DOPC  H17Y18686   2.540   2.350   5.196 -0.3726 -3.5446 -0.8853
  155DOPC  C31818687   2.361   2.478   5.154  0.2052 -0.0404  0.1611
  155DOPC  H18X18688   2.396   2.552   5.229  1.5611  1.4202 -1.8133
  155DOPC  H18Y18689   2.396   2.515   5.055  0.5937 -0.6003  0.0796
  155DOPC  H18Z18690   2.251   2.469   5.144  0.1698  0.2907  0.2616
  156DOPC     N18691   5.138   6.076   6.889  0.1627 -0.3261  0.2341
  156DOPC   C1218692   5.100   6.083   6.741  0.2217 -0.5612  0.4604
  156DOPC  H12A18693   5.179   6.130   6.684 -0.4300 -0.3246 -0.2772
  156DOPC  H12B18694   5.018   6.153   6.734  0.3815 -0.1031  2.5797
  156DOPC   C1318695   5.140   6.215   6.943 -0.0065  0.6631  0.0441
  156DOPC  H13A18696   5.208   6.285   6.896  0.2030 -0.8320 -2.0042
  156DOPC  H13B18697   5.044   6.264   6.927 -0.2759 -0.5945 -2.7213
  156DOPC  H13C18698   5.149   6.209   7.051  0.2980 -1.3965 -0.0647
  156DOPC   C1418699   5.274   6.021   6.906 -0.9756  0.6695 -0.4211
  156DOPC  H14A18700   5.283   5.917   6.875  2.3310  0.5008  0.6537
  156DOPC  H14B18701   5.354   6.070   6.853  2.7537 -0.6260  3.4048
  156DOPC  H14C18702   5.309   6.023   7.008  0.9011  0.5468 -1.0202
  156DOPC   C1518703   5.036   5.996   6.967  0.2064 -1.1514 -0.0181
  156DOPC  H15A18704   5.078   5.987   7.066 -1.5105  0.7128  0.9518
  156DOPC  H15B18705   5.022   5.896   6.930  0.1998 -1.1888  0.0836
  156DOPC  H15C18706   4.945   6.053   6.962  1.7994  1.5086 -5.1939
  156DOPC   C1118707   5.063   5.951   6.682  0.8344  0.0295  0.0631
  156DOPC  H11A18708   5.074   5.963   6.572 -0.5831  0.8690 -0.0101
  156DOPC  H11B18709   5.144   5.882   6.714  1.9790  1.7169  0.8959
  156DOPC     P18710   4.886   5.762   6.728  0.3467 -0.3870  0.2021
  156DOPC   O1318711   4.737   5.750   6.722 -0.5367 -0.0600 -0.1955
  156DOPC   O1418712   4.951   5.697   6.843 -0.0516 -0.1131  0.3675
  156DOPC   O1218713   4.927   5.913   6.725  0.0405 -0.2216 -0.0249
  156DOPC   O1118714   4.961   5.716   6.598 -0.1099 -0.2171  0.1296
  156DOPC    C118715   4.896   5.627   6.504 -0.2021  0.0104  0.1073
  156DOPC    HA18716   4.801   5.579   6.537 -0.1540 -0.1113  0.0702
  156DOPC    HB18717   4.964   5.539   6.498 -0.0579 -0.0182  1.5959
  156DOPC    C218718   4.875   5.683   6.365  0.5780 -0.6109  0.5633
  156DOPC    HS18719   4.853   5.593   6.303 -0.5006  0.2397 -0.3429
  156DOPC   O2118720   4.991   5.757   6.308 -0.1794  0.2992 -0.4583
  156DOPC   C2118721   5.037   5.716   6.194  0.1161 -0.2888  0.6743
  156DOPC   O2218722   4.979   5.645   6.115 -0.0148  0.4959  0.0224
  156DOPC   C2218723   5.174   5.783   6.172 -0.0693  0.2272 -0.1009
  156DOPC   H2R18724   5.248   5.727   6.233  0.1997 -1.6939 -2.0710
  156DOPC   H2S18725   5.161   5.891   6.197 -0.4021 -0.5269  3.6357
  156DOPC    C318726   4.763   5.792   6.374 -0.0078 -0.0937 -0.2129
  156DOPC    HX18727   4.796   5.861   6.454  2.1790  0.4855 -1.5219
  156DOPC    HY18728   4.658   5.762   6.392 -0.1220 -0.0246 -0.7402
  156DOPC   O3118729   4.767   5.865   6.245 -0.0438  0.1767 -0.6720
  156DOPC   C3118730   4.683   5.828   6.152 -0.5962  0.4544 -0.2841
  156DOPC   O3218731   4.609   5.735   6.157  0.0715 -0.3123 -0.3149
  156DOPC   C3218732   4.703   5.930   6.036 -0.1506 -0.1885 -0.1846
  156DOPC   H2X18733   4.633   6.016   6.036 -0.9470 -0.7060 -3.5542
  156DOPC   H2Y18734   4.803   5.977   6.052 -0.6053  1.1270 -1.0606
  156DOPC   C2318735   5.233   5.759   6.033 -0.4305  0.3522 -0.2999
  156DOPC   H3R18736   5.211   5.650   6.022 -0.1289  0.2178  0.4079
  156DOPC   H3S18737   5.341   5.783   6.039 -0.8461  1.9554  1.9152
  156DOPC   C2418738   5.170   5.835   5.907 -0.3409 -0.2775 -0.6649
  156DOPC   H4R18739   5.062   5.811   5.900 -0.5928  0.1064  1.2400
  156DOPC   H4S18740   5.211   5.788   5.815 -0.2439  0.3088 -0.9260
  156DOPC   C2518741   5.198   5.987   5.929  0.2763 -0.2067  0.5403
  156DOPC   H5R18742   5.303   6.014   5.953  0.3951  0.8897 -1.0290
  156DOPC   H5S18743   5.137   6.009   6.019  0.1553  1.0862  0.1758
  156DOPC   C2618744   5.151   6.076   5.809  0.9259  0.3458 -0.7948
  156DOPC   H6R18745   5.154   6.180   5.850  2.6853  0.4034 -0.9937
  156DOPC   H6S18746   5.046   6.044   5.798 -0.7037  3.5764  2.8133
  156DOPC   C2718747   5.251   6.067   5.692 -0.9367 -0.5479 -0.4266
  156DOPC   H7R18748   5.264   5.961   5.663  2.2716 -0.6155  0.8410
  156DOPC   H7S18749   5.353   6.103   5.719 -0.6235 -0.8857 -1.1167
  156DOPC   C2818750   5.202   6.147   5.571 -0.4945  0.1390  0.2448
  156DOPC   H8R18751   5.289   6.152   5.502  0.7030 -0.1238  1.6811
  156DOPC   H8S18752   5.185   6.252   5.602  0.8149  0.5199 -0.2754
  156DOPC   C2918753   5.087   6.100   5.494  0.5636 -0.0785 -0.8842
  156DOPC   H9R18754   5.099   5.992   5.475  0.8969 -0.7028  2.2355
  156DOPC  C21018755   4.968   6.159   5.484  0.1784 -0.2336  0.1356
  156DOPC  H10R18756   4.895   6.111   5.417  0.6804  0.0251 -0.6067
  156DOPC  C21118757   4.937   6.300   5.521  0.4047 -0.3396  0.1321
  156DOPC  H11R18758   5.032   6.356   5.526 -0.0184  0.5219 -0.9999
  156DOPC  H11S18759   4.886   6.302   5.619 -0.4433  1.1025 -0.3159
  156DOPC  C21218760   4.848   6.368   5.414 -0.4755  0.4524  0.1272
  156DOPC  H12R18761   4.822   6.466   5.459 -0.4568  0.3025  0.4712
  156DOPC  H12S18762   4.753   6.312   5.399 -0.2889  0.1522  0.0720
  156DOPC  C21318763   4.919   6.389   5.277  0.4789  0.9121 -0.1266
  156DOPC  H13R18764   4.927   6.287   5.234  1.7860  0.3296  1.3864
  156DOPC  H13S18765   5.023   6.422   5.297  1.2357 -2.7880  3.4076
  156DOPC  C21418766   4.845   6.485   5.185  0.0956  0.3429  0.0574
  156DOPC  H14R18767   4.831   6.577   5.246 -2.4241  1.4159 -1.9345
  156DOPC  H14S18768   4.745   6.445   5.160  1.3709 -1.3079 -2.9543
  156DOPC  C21518769   4.931   6.514   5.063 -0.7271  0.8638 -0.6414
  156DOPC  H15R18770   4.956   6.412   5.026  1.2691  1.5041 -1.2045
  156DOPC  H15S18771   5.024   6.565   5.097  0.5368 -0.7247 -1.5472
  156DOPC  C21618772   4.855   6.581   4.949  0.3949 -0.2691  0.2918
  156DOPC  H16R18773   4.776   6.511   4.916  1.6491 -1.6942  0.2038
  156DOPC  H16S18774   4.927   6.592   4.864  0.6977 -4.2355 -0.1324
  156DOPC  C21718775   4.798   6.721   4.988  0.2180  0.1122 -0.0878
  156DOPC  H17R18776   4.890   6.762   5.035  1.3822  0.4562 -2.5023
  156DOPC  H17S18777   4.718   6.700   5.062  1.3876 -0.9410  0.9283
  156DOPC  C21818778   4.747   6.804   4.876  0.2357  0.1003  0.7333
  156DOPC  H18R18779   4.808   6.802   4.783 -1.8151 -0.5372 -0.6563
  156DOPC  H18S18780   4.727   6.910   4.905 -0.9723  1.2268 -3.4259
  156DOPC  H18T18781   4.653   6.756   4.843  1.2638 -1.5239  0.0527
  156DOPC   C3318782   4.719   5.856   5.903  0.0318  0.0891 -0.4406
  156DOPC   H3X18783   4.635   5.785   5.891 -1.4908  1.4994  1.3007
  156DOPC   H3Y18784   4.809   5.792   5.916  0.6692  1.2309  1.1675
  156DOPC   C3418785   4.730   5.951   5.783 -0.4328 -0.3177  0.7345
  156DOPC   H4X18786   4.775   5.898   5.696  2.0294  0.8043  1.2289
  156DOPC   H4Y18787   4.807   6.027   5.809  0.1825  0.0059 -1.7610
  156DOPC   C3518788   4.600   6.022   5.739 -0.3161 -0.4984 -0.0134
  156DOPC   H5X18789   4.571   6.097   5.815  0.9567  0.2598 -0.2219
  156DOPC   H5Y18790   4.522   5.944   5.740 -0.5020 -0.5973 -3.8694
  156DOPC   C3618791   4.612   6.102   5.605 -0.2413  0.1061 -0.1476
  156DOPC   H6X18792   4.686   6.181   5.634 -1.7719  0.6155  2.8204
  156DOPC   H6Y18793   4.655   6.039   5.524 -0.0717 -1.8875  1.4288
  156DOPC   C3718794   4.483   6.165   5.554  0.2523 -0.0037 -0.0226
  156DOPC   H7X18795   4.405   6.147   5.631  0.7034  0.1227  0.4700
  156DOPC   H7Y18796   4.478   6.276   5.543  1.8117  0.0683 -0.2776
  156DOPC   C3818797   4.435   6.108   5.416  0.7475  0.2091 -0.4374
  156DOPC   H8X18798   4.328   6.137   5.412  0.4102 -0.8437  0.5481
  156DOPC   H8Y18799   4.449   5.999   5.432  1.1310  0.5121  1.5790
  156DOPC   C3918800   4.521   6.154   5.304 -0.2272 -0.1003  0.6893
  156DOPC   H9X18801   4.621   6.110   5.299 -1.3714 -2.7896 -1.1975
  156DOPC  C31018802   4.481   6.246   5.216 -0.7169  0.6661  0.1436
  156DOPC  H10X18803   4.535   6.246   5.119 -2.8558  0.8141 -1.1112
  156DOPC  C31118804   4.359   6.329   5.217 -0.5339 -0.1398  0.5176
  156DOPC  H11X18805   4.400   6.432   5.216  1.0041 -0.7177  0.8796
  156DOPC  H11Y18806   4.294   6.329   5.306  0.3117 -2.2004  1.2043
  156DOPC  C31218807   4.275   6.317   5.087 -0.5491  0.0961  0.4765
  156DOPC  H12X18808   4.345   6.344   5.005  2.0416 -2.2566  1.7703
  156DOPC  H12Y18809   4.193   6.390   5.102 -0.3710 -0.0010  2.0308
  156DOPC  C31318810   4.229   6.176   5.055  0.0762 -0.2128  0.0016
  156DOPC  H13X18811   4.317   6.109   5.053 -0.0779 -0.4570  0.8211
  156DOPC  H13Y18812   4.164   6.144   5.139  1.8045 -3.4215  0.2670
  156DOPC  C31418813   4.143   6.179   4.933 -0.3251 -0.3388  0.2810
  156DOPC  H14X18814   4.065   6.106   4.964  0.3514 -0.2269  2.4218
  156DOPC  H14Y18815   4.089   6.272   4.906 -2.1566 -1.1998  0.7966
  156DOPC  C31518816   4.216   6.136   4.801 -0.6769 -0.5500  0.1458
  156DOPC  H15X18817   4.278   6.047   4.826 -1.4675 -0.7288  1.6067
  156DOPC  H15Y18818   4.287   6.218   4.777 -0.1203 -1.4071 -1.2635
  156DOPC  C31618819   4.120   6.108   4.693  0.0065  0.3282 -0.0868
  156DOPC  H16X18820   4.041   6.187   4.685 -0.2064  0.2814  1.3442
  156DOPC  H16Y18821   4.166   6.111   4.592  0.0116 -0.3993 -0.1113
  156DOPC  C31718822   4.055   5.971   4.721  0.5792 -0.1419  0.4229
  156DOPC  H17X18823   4.125   5.886   4.732 -0.7312 -1.2915  0.2023
  156DOPC  H17Y18824   4.010   5.982   4.822  2.2413  1.1722  1.0512
  156DOPC  C31818825   3.942   5.934   4.619 -0.3407 -1.1906 -0.7536
  156DOPC  H18X18826   3.989   5.910   4.521  3.0130 -2.3011  0.9587
  156DOPC  H18Y18827   3.877   5.856   4.663 -0.6201  0.4214  1.8965
  156DOPC  H18Z18828   3.861   6.010   4.615 -0.6763 -1.4725  0.4812
  157DOPC     N18829   4.341   2.327   6.977  0.1220 -0.2373 -0.1688
  157DOPC   C1218830   4.198   2.298   6.942  0.2606  0.0595 -1.0232
  157DOPC  H12A18831   4.192   2.199   6.898 -0.4600 -0.6347  0.5733
  157DOPC  H12B18832   4.162   2.370   6.870  0.0230  2.6747  1.5444
  157DOPC   C1318833   4.347   2.472   7.020  0.3071  1.1084  0.6060
  157DOPC  H13A18834   4.269   2.495   7.092  1.4256 -0.9608  2.6211
  157DOPC  H13B18835   4.444   2.497   7.060  2.2700 -2.1208 -1.5994
  157DOPC  H13C18836   4.333   2.538   6.936  1.5324  0.9117  0.2275
  157DOPC   C1418837   4.423   2.318   6.861  0.1286 -0.9031  0.2310
  157DOPC  H14A18838   4.372   2.363   6.777 -1.0530  1.2621  1.9800
  157DOPC  H14B18839   4.523   2.356   6.874  0.8242 -2.8629  0.8755
  157DOPC  H14C18840   4.443   2.213   6.846  3.5023 -0.2185 -0.8730
  157DOPC   C1518841   4.389   2.235   7.086  0.3791 -0.0036  0.1017
  157DOPC  H15A18842   4.364   2.132   7.065 -0.2891 -0.1512  1.5387
  157DOPC  H15B18843   4.349   2.263   7.182  0.3547  1.0142 -0.1879
  157DOPC  H15C18844   4.489   2.246   7.124  1.1230  1.5277 -2.0714
  157DOPC   C1118845   4.099   2.282   7.065 -0.0836 -0.7671 -0.0040
  157DOPC  H11A18846   4.112   2.366   7.137  0.2504 -0.7535 -0.0767
  157DOPC  H11B18847   3.996   2.293   7.027 -0.4139 -1.2511  0.7460
  157DOPC     P18848   4.068   2.022   7.088  0.3856 -0.2395 -0.0262
  157DOPC   O1318849   3.921   2.030   7.053  0.2800 -0.5837 -0.8745
  157DOPC   O1418850   4.122   1.917   7.179  0.1267 -0.1720 -0.3802
  157DOPC   O1218851   4.115   2.162   7.148  0.5769 -0.3342 -0.2313
  157DOPC   O1118852   4.153   2.027   6.958  0.2009 -0.8644  0.5805
  157DOPC    C118853   4.217   1.915   6.906 -0.5831 -0.3771  0.0578
  157DOPC    HA18854   4.138   1.847   6.867  0.4117 -2.8052  2.0145
  157DOPC    HB18855   4.271   1.861   6.987  2.3379  0.1841 -1.3514
  157DOPC    C218856   4.306   1.966   6.788  0.1978  0.1429  0.4996
  157DOPC    HS18857   4.368   2.054   6.818  1.4208 -0.1559 -1.0335
  157DOPC   O2118858   4.230   1.980   6.666 -0.1992  0.4408  0.4114
  157DOPC   C2118859   4.263   2.083   6.591  0.0625  0.6982  0.5114
  157DOPC   O2218860   4.338   2.172   6.619  0.4731 -0.1080 -0.1011
  157DOPC   C2218861   4.188   2.073   6.459 -0.3162 -0.6839  0.0520
  157DOPC   H2R18862   4.081   2.087   6.486 -0.2609 -0.0487 -0.0415
  157DOPC   H2S18863   4.191   1.970   6.417 -1.6686 -1.7724  2.4410
  157DOPC    C318864   4.421   1.854   6.762 -0.3676 -0.1752 -0.3260
  157DOPC    HX18865   4.373   1.761   6.724 -1.3617  0.5766 -0.9710
  157DOPC    HY18866   4.478   1.832   6.855 -1.0291  1.7161  0.5768
  157DOPC   O3118867   4.498   1.891   6.649  0.2211 -0.4683  0.5921
  157DOPC   C3118868   4.595   1.978   6.675 -0.4011 -0.1632  0.0341
  157DOPC   O3218869   4.628   2.024   6.784  0.7355 -0.1521 -0.0260
  157DOPC   C3218870   4.658   2.023   6.539  0.9777 -0.4096 -0.0308
  157DOPC   H2X18871   4.764   1.991   6.551  1.4465  1.2594  0.5434
  157DOPC   H2Y18872   4.605   1.962   6.464  0.1461 -0.5956  0.6952
  157DOPC   C2318873   4.244   2.165   6.349  0.3907  0.3554 -0.6259
  157DOPC   H3R18874   4.354   2.155   6.335  0.5345 -0.6342  0.9694
  157DOPC   H3S18875   4.236   2.268   6.391  2.4459 -0.2719  1.4954
  157DOPC   C2418876   4.169   2.149   6.220  0.0757  0.7458 -0.1583
  157DOPC   H4R18877   4.062   2.140   6.247  0.1536  0.4513  0.0520
  157DOPC   H4S18878   4.207   2.053   6.180 -0.7736  0.6552 -0.7788
  157DOPC   C2518879   4.185   2.265   6.122 -0.4263 -0.1182 -0.4444
  157DOPC   H5R18880   4.288   2.277   6.082  0.0401  0.6928  0.9140
  157DOPC   H5S18881   4.155   2.357   6.176  1.2956 -0.8939  2.0115
  157DOPC   C2618882   4.086   2.243   6.006 -0.1876 -1.0390  1.0940
  157DOPC   H6R18883   3.981   2.244   6.044 -0.6936  1.2678 -0.1402
  157DOPC   H6S18884   4.112   2.142   5.969 -0.7063 -0.8597  0.1943
  157DOPC   C2718885   4.109   2.341   5.888 -0.5316 -0.4571  0.1181
  157DOPC   H7R18886   4.217   2.346   5.865 -0.6055 -0.5167 -0.2434
  157DOPC   H7S18887   4.078   2.445   5.911  0.3948 -0.0816 -0.2932
  157DOPC   C2818888   4.033   2.288   5.758  0.0614  0.4245  0.1505
  157DOPC   H8R18889   3.929   2.266   5.791 -0.4662 -0.2298 -1.8352
  157DOPC   H8S18890   4.079   2.196   5.717 -1.5684 -0.7968  0.9658
  157DOPC   C2918891   4.028   2.389   5.647 -0.0303  0.1345  0.4719
  157DOPC   H9R18892   3.962   2.476   5.653  0.8281  0.8010  0.4754
  157DOPC  C21018893   4.094   2.376   5.532 -1.1130 -0.0785 -0.5734
  157DOPC  H10R18894   4.085   2.455   5.456 -0.6902 -1.8114 -2.4909
  157DOPC  C21118895   4.183   2.265   5.472  0.0138  0.0218 -0.7981
  157DOPC  H11R18896   4.147   2.235   5.371 -1.1745  0.5961 -0.5705
  157DOPC  H11S18897   4.186   2.177   5.540 -1.7168 -1.0423 -2.0198
  157DOPC  C21218898   4.329   2.309   5.458 -0.5251  0.0207  0.1158
  157DOPC  H12R18899   4.383   2.223   5.413 -0.2037  0.1559  0.2373
  157DOPC  H12S18900   4.375   2.325   5.558  0.5492 -0.7404 -0.2279
  157DOPC  C21318901   4.345   2.441   5.387 -0.2729  0.1082 -0.6120
  157DOPC  H13R18902   4.455   2.458   5.396 -0.1391 -1.3196  0.7416
  157DOPC  H13S18903   4.301   2.527   5.442  1.3216 -0.6504  2.0152
  157DOPC  C21418904   4.301   2.439   5.238  0.2453  0.0583  1.1391
  157DOPC  H14R18905   4.193   2.465   5.232  0.3916  0.9909  2.1184
  157DOPC  H14S18906   4.313   2.337   5.195 -1.9557  0.2048  0.0472
  157DOPC  C21518907   4.394   2.521   5.149 -1.0211  0.5483  0.5862
  157DOPC  H15R18908   4.496   2.479   5.146  0.5949  4.1282  0.6680
  157DOPC  H15S18909   4.406   2.623   5.192 -0.8816  0.3159  1.1002
  157DOPC  C21618910   4.355   2.522   4.997 -0.3070  0.6784 -0.1081
  157DOPC  H16R18911   4.267   2.586   4.975  0.8529  2.8848  1.2555
  157DOPC  H16S18912   4.324   2.419   4.970  0.8253 -0.0862  1.3651
  157DOPC  C21718913   4.458   2.575   4.890  0.6905 -0.0309 -0.0985
  157DOPC  H17R18914   4.552   2.516   4.901  0.9024  0.6854  3.0583
  157DOPC  H17S18915   4.472   2.683   4.910  0.5111 -0.0103 -0.0861
  157DOPC  C21818916   4.408   2.561   4.744 -0.5647  0.1124 -0.3846
  157DOPC  H18R18917   4.317   2.623   4.730 -0.7057  0.4010  1.5064
  157DOPC  H18S18918   4.405   2.456   4.708  1.4043 -0.2560  0.4040
  157DOPC  H18T18919   4.476   2.611   4.671  0.6107 -0.9324 -0.0401
  157DOPC   C3318920   4.664   2.169   6.509 -0.1600  0.0121 -1.2286
  157DOPC   H3X18921   4.709   2.230   6.590  1.4281  0.6249 -2.5053
  157DOPC   H3Y18922   4.562   2.197   6.477 -0.7931  0.1201  0.7739
  157DOPC   C3418923   4.754   2.203   6.388  0.1781 -0.1003 -0.4920
  157DOPC   H4X18924   4.862   2.177   6.393  0.3483  0.5194 -0.8532
  157DOPC   H4Y18925   4.745   2.312   6.374 -4.3571 -0.3261 -0.9297
  157DOPC   C3518926   4.694   2.144   6.264  0.4738 -0.1171  0.1828
  157DOPC   H5X18927   4.595   2.191   6.244  0.6835  0.0436 -0.4915
  157DOPC   H5Y18928   4.686   2.033   6.270  0.1725 -0.0777  0.5642
  157DOPC   C3618929   4.765   2.182   6.128  0.3886 -0.2541 -0.4474
  157DOPC   H6X18930   4.781   2.291   6.124 -1.0465 -0.0678 -1.6649
  157DOPC   H6Y18931   4.858   2.120   6.128 -0.5285 -1.6908 -0.9378
  157DOPC   C3718932   4.670   2.141   6.013 -0.1806  0.1828 -0.2658
  157DOPC   H7X18933   4.638   2.035   6.021 -1.0809  0.1742 -3.0191
  157DOPC   H7Y18934   4.581   2.206   6.024 -0.1652 -0.1008  2.2407
  157DOPC   C3818935   4.728   2.158   5.873  0.3174 -0.3761 -0.0216
  157DOPC   H8X18936   4.816   2.090   5.866  0.4919 -0.1361 -0.1675
  157DOPC   H8Y18937   4.755   2.264   5.857  1.2326 -0.8449 -1.8621
  157DOPC   C3918938   4.626   2.117   5.769  0.4424  0.0351  0.7284
  157DOPC   H9X18939   4.540   2.060   5.808  1.3645 -1.9157  0.0309
  157DOPC  C31018940   4.612   2.160   5.643  0.3626 -0.1585  0.5505
  157DOPC  H10X18941   4.535   2.104   5.588 -0.9287  1.3582  0.7386
  157DOPC  C31118942   4.709   2.246   5.566  0.1412  0.0956 -0.0814
  157DOPC  H11X18943   4.798   2.272   5.627 -0.8721  3.0513  0.3287
  157DOPC  H11Y18944   4.646   2.335   5.543 -1.7812 -1.6637 -1.9698
  157DOPC  C31218945   4.746   2.190   5.429 -0.5094 -0.2768  0.9406
  157DOPC  H12X18946   4.656   2.184   5.364  2.0700  1.7726 -3.3117
  157DOPC  H12Y18947   4.797   2.092   5.436 -3.0055 -1.6298  0.9204
  157DOPC  C31318948   4.839   2.278   5.349  0.1464  0.2892 -0.0781
  157DOPC  H13X18949   4.778   2.365   5.317 -2.0192 -0.5358  1.5670
  157DOPC  H13Y18950   4.927   2.313   5.408 -0.3349 -1.9735  2.1548
  157DOPC  C31418951   4.908   2.207   5.228 -0.0026  0.2661 -0.2010
  157DOPC  H14X18952   4.959   2.288   5.172 -2.2482  2.3969  0.6604
  157DOPC  H14Y18953   4.990   2.136   5.252 -0.6564 -0.8571 -1.1996
  157DOPC  C31518954   4.818   2.133   5.137  0.0843  0.7404 -1.1143
  157DOPC  H15X18955   4.775   2.049   5.195  0.3631  0.5523 -1.1757
  157DOPC  H15Y18956   4.882   2.081   5.062  1.8614 -0.3801  1.0572
  157DOPC  C31618957   4.708   2.211   5.062 -0.1525 -0.5151  0.6116
  157DOPC  H16X18958   4.625   2.238   5.131  0.7998  1.3388  1.1282
  157DOPC  H16Y18959   4.764   2.302   5.031  1.4290 -2.4048 -2.6172
  157DOPC  C31718960   4.672   2.152   4.926  0.1403  0.2238 -0.0043
  157DOPC  H17X18961   4.757   2.160   4.855  0.9660  2.8486  1.1477
  157DOPC  H17Y18962   4.656   2.043   4.944 -2.5657  0.2755 -1.6407
  157DOPC  C31818963   4.539   2.214   4.868  0.9273 -0.1788 -0.0794
  157DOPC  H18X18964   4.553   2.318   4.832  0.5483  0.5217  1.7057
  157DOPC  H18Y18965   4.501   2.152   4.784  0.4551 -0.3507  0.2563
  157DOPC  H18Z18966   4.456   2.226   4.941 -0.4225 -0.1057 -1.5773
  158DOPC     N18967   5.941   5.818   7.081 -0.4573  0.2316 -0.4548
  158DOPC   C1218968   5.882   5.683   7.055  0.2697  0.3595  0.4151
  158DOPC  H12A18969   5.821   5.649   7.137 -0.1530  1.8145  0.7499
  158DOPC  H12B18970   5.956   5.605   7.048  0.4007  0.3867  1.3080
  158DOPC   C1318971   6.046   5.802   7.195 -0.3635  0.3040 -0.3897
  158DOPC  H13A18972   6.091   5.898   7.219  1.2696 -0.0185 -1.9718
  158DOPC  H13B18973   6.003   5.757   7.283 -0.6413  2.3192  0.5671
  158DOPC  H13C18974   6.131   5.743   7.164  0.5159  0.3745  1.7184
  158DOPC   C1418975   5.834   5.911   7.123  0.7071 -0.0507 -0.0498
  158DOPC  H14A18976   5.745   5.888   7.067  1.2561 -1.5810 -0.3641
  158DOPC  H14B18977   5.810   5.898   7.228  1.3888 -2.0961 -0.0941
  158DOPC  H14C18978   5.862   6.015   7.116  2.5605 -0.5086 -0.0892
  158DOPC   C1518979   6.003   5.866   6.956  0.3766  0.3133  0.2900
  158DOPC  H15A18980   5.929   5.885   6.880  0.4175  0.1709  0.2140
  158DOPC  H15B18981   6.076   5.796   6.917  1.5990  1.1985  0.8963
  158DOPC  H15C18982   6.051   5.961   6.975 -0.7278  0.8741  0.3150
  158DOPC   C1118983   5.780   5.676   6.932  0.2165 -0.3197 -0.1352
  158DOPC  H11A18984   5.830   5.693   6.835 -1.4426  1.8205 -0.6981
  158DOPC  H11B18985   5.738   5.573   6.930  0.9981 -0.6606 -2.7493
  158DOPC     P18986   5.584   5.818   6.840 -0.0973  0.0820  0.4289
  158DOPC   O1318987   5.603   5.963   6.838  0.8718 -0.0391  0.1456
  158DOPC   O1418988   5.450   5.758   6.855 -0.7056 -0.7691  0.1399
  158DOPC   O1218989   5.674   5.760   6.951  0.3538  0.8752 -0.7645
  158DOPC   O1118990   5.653   5.751   6.711  0.1427  0.4467 -0.2686
  158DOPC    C118991   5.556   5.702   6.615  0.5064  0.2151 -0.1777
  158DOPC    HA18992   5.470   5.769   6.593 -0.4387 -1.1725 -0.8074
  158DOPC    HB18993   5.510   5.607   6.651  2.4503 -0.6348  0.1821
  158DOPC    C218994   5.623   5.680   6.479  0.0467 -0.4546 -0.3796
  158DOPC    HS18995   5.712   5.619   6.505  1.7992  2.2632  0.4218
  158DOPC   O2118996   5.687   5.795   6.425 -0.3639 -0.1183  0.2028
  158DOPC   C2118997   5.597   5.893   6.384  0.5801 -0.0658  0.0088
  158DOPC   O2218998   5.475   5.892   6.395 -0.1378 -0.1544 -0.0817
  158DOPC   C2218999   5.674   6.000   6.305 -0.5746 -0.5780  0.5530
  158DOPC   H2R19000   5.780   5.968   6.292  0.0178  0.4057  2.5170
  158DOPC   H2S19001   5.650   6.091   6.364 -1.0943  1.3580 -2.4284
  158DOPC    C319002   5.528   5.612   6.381  0.4393  0.0135  0.2352
  158DOPC    HX19003   5.428   5.662   6.381  0.8531  0.8585  1.1565
  158DOPC    HY19004   5.516   5.510   6.424 -0.7843  0.2969  0.6085
  158DOPC   O3119005   5.582   5.612   6.252 -0.0205  0.1896  0.7735
  158DOPC   C3119006   5.564   5.506   6.168 -0.0997  0.7533  0.6053
  158DOPC   O3219007   5.495   5.409   6.195  0.5910  0.3121  0.0572
  158DOPC   C3219008   5.631   5.531   6.030  0.3361 -0.2243 -0.0848
  158DOPC   H2X19009   5.618   5.636   5.996  0.3491 -0.3552 -0.5023
  158DOPC   H2Y19010   5.742   5.526   6.042  0.3382 -1.1360 -0.3946
  158DOPC   C2319011   5.605   6.025   6.167 -0.6993  0.4462 -0.2328
  158DOPC   H3R19012   5.657   6.117   6.132  2.3375 -1.0655 -0.0413
  158DOPC   H3S19013   5.503   6.062   6.190 -1.3207 -0.8290 -0.8770
  158DOPC   C2419014   5.620   5.917   6.066  1.1870 -0.4578  0.4569
  158DOPC   H4R19015   5.553   5.833   6.093  0.9343 -0.0317  1.1809
  158DOPC   H4S19016   5.720   5.870   6.081  0.6261 -1.5038  0.9873
  158DOPC   C2519017   5.622   5.966   5.916  0.2223  0.1692 -0.6354
  158DOPC   H5R19018   5.713   6.031   5.921 -0.2359  0.6987  1.9757
  158DOPC   H5S19019   5.526   6.020   5.900 -0.4721 -0.3488  1.4857
  158DOPC   C2619020   5.652   5.857   5.817 -0.2509 -0.2318 -0.0882
  158DOPC   H6R19021   5.577   5.775   5.828 -0.0188 -0.3110  0.9016
  158DOPC   H6S19022   5.748   5.808   5.843 -0.8473 -0.3686  2.0304
  158DOPC   C2719023   5.638   5.912   5.677  0.2398 -0.0424 -0.1540
  158DOPC   H7R19024   5.717   5.988   5.656  0.2415  0.9845  3.0951
  158DOPC   H7S19025   5.543   5.967   5.659  0.8047  1.7824  1.9636
  158DOPC   C2819026   5.648   5.801   5.573  0.3588 -0.5118  0.0129
  158DOPC   H8R19027   5.568   5.725   5.584  0.3116 -0.7313 -1.6069
  158DOPC   H8S19028   5.742   5.746   5.597  1.7144  1.1664 -1.1695
  158DOPC   C2919029   5.656   5.849   5.428  0.0709 -0.7215  0.3100
  158DOPC   H9R19030   5.755   5.863   5.382  0.5116 -2.4940  0.6118
  158DOPC  C21019031   5.552   5.879   5.347  0.3468 -0.0701  0.5089
  158DOPC  H10R19032   5.578   5.910   5.245  1.4692  1.1653  1.1274
  158DOPC  C21119033   5.408   5.883   5.376 -0.1288  0.4969  0.2184
  158DOPC  H11R19034   5.365   5.983   5.353  0.6318  0.2532 -2.6356
  158DOPC  H11S19035   5.379   5.869   5.483 -2.8491  0.4463 -0.4514
  158DOPC  C21219036   5.318   5.782   5.302  0.0051 -0.6075 -0.1543
  158DOPC  H12R19037   5.326   5.818   5.198 -0.0074  1.1555  0.4184
  158DOPC  H12S19038   5.209   5.787   5.323 -0.1341 -3.9451  0.6374
  158DOPC  C21319039   5.363   5.633   5.311 -0.2803 -0.3292  1.0054
  158DOPC  H13R19040   5.382   5.583   5.408 -0.1346 -1.7601  0.2737
  158DOPC  H13S19041   5.465   5.643   5.269 -0.3679  0.6716  1.0030
  158DOPC  C21419042   5.274   5.545   5.225 -0.6004 -0.3086 -0.2610
  158DOPC  H14R19043   5.182   5.507   5.275 -1.2332 -1.4392 -2.1576
  158DOPC  H14S19044   5.338   5.455   5.211  1.1588  0.9313 -0.4466
  158DOPC  C21519045   5.238   5.607   5.089  0.8133 -0.1616 -0.0742
  158DOPC  H15R19046   5.339   5.615   5.043  0.8357 -0.9301 -0.1655
  158DOPC  H15S19047   5.173   5.697   5.093  1.2060  0.1366 -0.2989
  158DOPC  C21619048   5.166   5.514   4.995  0.0380  0.2146 -0.0503
  158DOPC  H16R19049   5.225   5.420   4.990 -1.3510 -0.6695 -0.3220
  158DOPC  H16S19050   5.158   5.554   4.892 -2.8015 -0.3561 -0.1475
  158DOPC  C21719051   5.035   5.458   5.061  0.2338  0.5128 -0.2874
  158DOPC  H17R19052   5.026   5.467   5.172 -2.7877  0.5951 -0.4742
  158DOPC  H17S19053   5.027   5.351   5.034 -0.2620  0.6206 -0.5629
  158DOPC  C21819054   4.906   5.526   4.998 -0.3568  0.6077  0.2754
  158DOPC  H18R19055   4.906   5.637   5.001  0.4170  0.7455 -2.1837
  158DOPC  H18S19056   4.824   5.491   5.064  1.2800  0.2482  2.2151
  158DOPC  H18T19057   4.891   5.507   4.889 -0.8257  2.6892 -0.0569
  158DOPC   C3319058   5.579   5.431   5.919  0.0039  0.3047 -0.0732
  158DOPC   H3X19059   5.469   5.442   5.905  0.1126  1.3188 -0.1964
  158DOPC   H3Y19060   5.602   5.333   5.965  0.4153  0.3446 -0.1884
  158DOPC   C3419061   5.649   5.453   5.781  0.6728  0.4896  0.4223
  158DOPC   H4X19062   5.753   5.416   5.782  0.4511 -0.1632  1.3438
  158DOPC   H4Y19063   5.649   5.563   5.765 -1.3542  0.6847  1.3654
  158DOPC   C3519064   5.560   5.388   5.673  0.4124 -0.0311 -0.6292
  158DOPC   H5X19065   5.454   5.419   5.676  0.1770 -0.8145 -0.6189
  158DOPC   H5Y19066   5.559   5.279   5.696 -1.1409 -0.4488 -2.3717
  158DOPC   C3619067   5.615   5.396   5.533  0.1909  0.5576 -0.0143
  158DOPC   H6X19068   5.613   5.497   5.485  2.7493  0.2250 -0.9816
  158DOPC   H6Y19069   5.723   5.370   5.530 -0.1092 -0.6952 -0.3023
  158DOPC   C3719070   5.536   5.298   5.440  0.7483  0.0568 -0.1738
  158DOPC   H7X19071   5.529   5.203   5.498 -0.8865  0.5219  0.4393
  158DOPC   H7Y19072   5.431   5.334   5.439 -0.1678 -2.4092 -0.1790
  158DOPC   C3819073   5.579   5.285   5.295 -0.4532 -0.4109  0.3969
  158DOPC   H8X19074   5.501   5.243   5.228 -0.9610  0.3431  0.5070
  158DOPC   H8Y19075   5.673   5.226   5.297  0.8814  1.4034 -2.5243
  158DOPC   C3919076   5.620   5.413   5.225 -1.0215 -0.6512  0.9415
  158DOPC   H9X19077   5.665   5.492   5.286 -0.3496 -0.2690 -0.0268
  158DOPC  C31019078   5.640   5.442   5.089 -0.5085 -0.1692  0.7059
  158DOPC  H10X19079   5.683   5.537   5.056 -2.5914  0.6227  0.1237
  158DOPC  C31119080   5.608   5.351   4.978 -0.7724  0.0900  0.6885
  158DOPC  H11X19081   5.504   5.365   4.942 -0.2744  0.5225 -0.6317
  158DOPC  H11Y19082   5.618   5.242   5.000  6.0097  0.1796  0.2427
  158DOPC  C31219083   5.699   5.368   4.844  0.6800 -0.8960 -0.0864
  158DOPC  H12X19084   5.727   5.475   4.836  0.2397 -0.6227  1.6235
  158DOPC  H12Y19085   5.630   5.340   4.761 -1.4669 -1.5890  1.8196
  158DOPC  C31319086   5.814   5.270   4.862 -0.4674  0.0695 -0.0930
  158DOPC  H13X19087   5.872   5.274   4.956 -0.7833  1.1370  0.0583
  158DOPC  H13Y19088   5.773   5.166   4.863  2.1693 -1.0915 -1.2222
  158DOPC  C31419089   5.908   5.269   4.743  0.3292  0.2785  0.0450
  158DOPC  H14X19090   5.971   5.361   4.753 -1.0171  1.5409 -2.2488
  158DOPC  H14Y19091   5.973   5.179   4.742 -1.1426 -0.9293  2.8311
  158DOPC  C31519092   5.840   5.270   4.602  0.4667 -0.6672 -0.0683
  158DOPC  H15X19093   5.915   5.289   4.522 -2.8963  0.3045 -3.3009
  158DOPC  H15Y19094   5.762   5.349   4.603  1.2906  0.1938  2.1463
  158DOPC  C31619095   5.797   5.124   4.570  0.5759  0.0740 -0.7991
  158DOPC  H16X19096   5.879   5.057   4.605 -1.3342 -2.5856 -1.1254
  158DOPC  H16Y19097   5.708   5.096   4.630  0.1082  1.2162 -0.9291
  158DOPC  C31719098   5.775   5.102   4.424  0.0154  0.3347 -0.4490
  158DOPC  H17X19099   5.712   5.186   4.388 -0.2418  0.6801  0.7680
  158DOPC  H17Y19100   5.875   5.113   4.377  0.4879  0.5245  0.5687
  158DOPC  C31819101   5.723   4.965   4.388 -0.4463  0.4744 -0.0340
  158DOPC  H18X19102   5.617   4.961   4.419 -0.2722  0.5000  0.5706
  158DOPC  H18Y19103   5.728   4.960   4.277 -0.3742  0.0449 -0.0112
  158DOPC  H18Z19104   5.782   4.884   4.436 -1.7353 -0.6695 -0.3265
  159DOPC     N19105   5.585   0.849   7.232 -0.5160 -0.3392 -0.1265
  159DOPC   C1219106   5.492   0.753   7.310 -0.7889 -0.5424 -0.5933
  159DOPC  H12A19107   5.549   0.684   7.370  0.8410 -0.0869 -1.5614
  159DOPC  H12B19108   5.439   0.699   7.233 -1.4799 -0.4180 -0.2163
  159DOPC   C1319109   5.509   0.934   7.139 -0.2121 -0.5913  0.5757
  159DOPC  H13A19110   5.568   1.019   7.109 -2.3272  1.6575  2.3112
  159DOPC  H13B19111   5.458   0.875   7.064 -2.2551 -0.6018  1.8750
  159DOPC  H13C19112   5.424   0.970   7.195 -1.3782  0.2452 -1.5856
  159DOPC   C1419113   5.674   0.764   7.146 -0.6682  0.1267  0.7688
  159DOPC  H14A19114   5.620   0.699   7.079 -0.6907 -1.0887  1.9218
  159DOPC  H14B19115   5.731   0.835   7.087  0.3382 -0.0947  1.4509
  159DOPC  H14C19116   5.737   0.697   7.201 -3.3147 -1.2096  2.3470
  159DOPC   C1519117   5.664   0.941   7.316  0.2092 -0.4641  0.0177
  159DOPC  H15A19118   5.735   0.877   7.366  0.6849 -1.3815 -1.7717
  159DOPC  H15B19119   5.603   0.997   7.385 -0.4427  0.9953 -1.6641
  159DOPC  H15C19120   5.723   1.014   7.264 -1.4364 -0.1233 -1.4776
  159DOPC   C1119121   5.400   0.815   7.412 -0.2298 -0.2379 -0.4495
  159DOPC  H11A19122   5.357   0.727   7.464 -0.4937 -0.6726 -1.3690
  159DOPC  H11B19123   5.457   0.862   7.494 -1.3203 -1.1314  0.8511
  159DOPC     P19124   5.159   0.848   7.296  0.2887  0.0651  0.2305
  159DOPC   O1319125   5.047   0.913   7.364  0.0009 -0.4941  0.5176
  159DOPC   O1419126   5.157   0.696   7.291 -0.1093  0.3595 -0.5536
  159DOPC   O1219127   5.292   0.904   7.369  0.4575  0.0076  0.3145
  159DOPC   O1119128   5.183   0.902   7.145  0.0750  0.0547 -0.3290
  159DOPC    C119129   5.165   1.046   7.118 -0.1318  0.3674  0.0130
  159DOPC    HA19130   5.244   1.082   7.049 -0.9957 -0.4655 -1.4609
  159DOPC    HB19131   5.176   1.107   7.211 -1.3936  0.2434  0.2605
  159DOPC    C219132   5.037   1.080   7.044 -0.0795  0.9664  0.0761
  159DOPC    HS19133   4.949   1.041   7.100  0.0164 -0.9168 -0.9961
  159DOPC   O2119134   5.044   1.014   6.914 -0.1178 -0.2207 -0.2462
  159DOPC   C2119135   4.929   1.023   6.849 -0.1991 -0.3437  0.0683
  159DOPC   O2219136   4.825   1.063   6.896 -0.1830  0.1741 -0.6889
  159DOPC   C2219137   4.953   0.992   6.701 -0.2020  0.6863 -0.0737
  159DOPC   H2R19138   4.946   0.882   6.690 -0.6075  0.7401 -0.3853
  159DOPC   H2S19139   5.055   1.029   6.677 -0.4483  1.2469 -0.2652
  159DOPC    C319140   5.026   1.238   7.029  0.1277  0.0101  0.0453
  159DOPC    HX19141   5.033   1.274   7.133 -1.0473 -4.2738  1.8400
  159DOPC    HY19142   4.928   1.264   6.984 -0.4160  1.1237  1.7775
  159DOPC   O3119143   5.127   1.290   6.939 -0.0934  0.9416  0.1371
  159DOPC   C3119144   5.104   1.401   6.868  0.5119 -0.1469  0.2386
  159DOPC   O3219145   4.991   1.440   6.846  0.1148  0.0096  0.7562
  159DOPC   C3219146   5.227   1.472   6.816  0.0614 -0.4550 -0.3496
  159DOPC   H2X19147   5.257   1.566   6.868 -1.5401 -0.1784  0.1337
  159DOPC   H2Y19148   5.307   1.396   6.828 -2.0638 -2.6432  0.9570
  159DOPC   C2319149   4.858   1.055   6.598 -0.1446  0.0986 -1.2041
  159DOPC   H3R19150   4.756   1.052   6.643  1.1483  0.2516  2.0384
  159DOPC   H3S19151   4.854   0.996   6.504  0.6306 -1.5440 -0.2551
  159DOPC   C2419152   4.886   1.206   6.576 -1.0017 -0.3716  0.1533
  159DOPC   H4R19153   4.991   1.204   6.538 -2.0496 -1.0206 -3.0469
  159DOPC   H4S19154   4.882   1.276   6.662  1.0661  1.5447 -1.1764
  159DOPC   C2519155   4.796   1.272   6.474  0.0589 -0.0437 -0.5876
  159DOPC   H5R19156   4.691   1.273   6.511 -1.0705 -1.0674 -3.4608
  159DOPC   H5S19157   4.803   1.221   6.375  0.0806 -2.8416  0.7650
  159DOPC   C2619158   4.840   1.418   6.453 -0.1435 -0.1604 -0.2199
  159DOPC   H6R19159   4.932   1.415   6.390 -0.3243 -1.4538 -0.4580
  159DOPC   H6S19160   4.868   1.464   6.550  0.4431 -0.6025 -0.1697
  159DOPC   C2719161   4.735   1.497   6.383  0.8651 -1.0406  0.3223
  159DOPC   H7R19162   4.636   1.478   6.429 -0.4004  1.2469 -1.2502
  159DOPC   H7S19163   4.742   1.478   6.274 -0.8938  0.7750 -0.1633
  159DOPC   C2819164   4.765   1.654   6.401 -0.0365 -0.0807 -0.9515
  159DOPC   H8R19165   4.772   1.672   6.510 -0.9525  1.7782 -1.1542
  159DOPC   H8S19166   4.679   1.715   6.366  0.6793  0.8279 -1.1581
  159DOPC   C2919167   4.885   1.706   6.338 -0.1779 -0.0633 -0.6154
  159DOPC   H9R19168   4.973   1.709   6.405 -0.3325 -1.9145 -0.2559
  159DOPC  C21019169   4.892   1.746   6.212  0.6534 -0.2487  0.4885
  159DOPC  H10R19170   4.984   1.791   6.171  0.8746  1.9441  3.1393
  159DOPC  C21119171   4.782   1.750   6.109  0.0059 -0.0065 -0.7442
  159DOPC  H11R19172   4.725   1.843   6.133  0.3479  0.6320 -2.2695
  159DOPC  H11S19173   4.723   1.656   6.108  0.1847 -0.1136 -1.3924
  159DOPC  C21219174   4.828   1.780   5.967  1.1002  0.1297 -0.1838
  159DOPC  H12R19175   4.904   1.703   5.940  0.2747 -0.8112  0.0849
  159DOPC  H12S19176   4.879   1.878   5.974  1.2653  0.0064  0.3520
  159DOPC  C21319177   4.712   1.770   5.862 -0.7682 -0.1275 -0.1795
  159DOPC  H13R19178   4.622   1.834   5.874 -1.8250 -1.3792 -1.1833
  159DOPC  H13S19179   4.676   1.666   5.873  0.3258 -0.7338 -1.8851
  159DOPC  C21419180   4.767   1.783   5.717  0.1779  0.9782  0.5642
  159DOPC  H14R19181   4.878   1.787   5.732  0.4527  0.9844 -1.2221
  159DOPC  H14S19182   4.744   1.876   5.662 -2.2881 -0.4974 -1.0643
  159DOPC  C21519183   4.740   1.651   5.635 -0.3686  0.1122 -0.2333
  159DOPC  H15R19184   4.631   1.649   5.611 -0.1941 -1.1218 -1.0369
  159DOPC  H15S19185   4.765   1.567   5.704 -0.4032  1.9590  2.1321
  159DOPC  C21619186   4.818   1.650   5.501 -0.1425 -0.6464  0.2524
  159DOPC  H16R19187   4.800   1.549   5.460 -1.2270 -0.8701  1.2051
  159DOPC  H16S19188   4.926   1.650   5.524 -0.3009  1.1483  1.1697
  159DOPC  C21719189   4.783   1.760   5.398 -0.0792 -0.3762  0.1945
  159DOPC  H17R19190   4.814   1.856   5.444 -0.5934 -0.1707  0.1159
  159DOPC  H17S19191   4.673   1.763   5.391 -0.2012  2.3362  1.9528
  159DOPC  C21819192   4.848   1.744   5.256 -0.0934  0.0829  0.2875
  159DOPC  H18R19193   4.817   1.833   5.197 -0.8949 -1.4852 -1.7818
  159DOPC  H18S19194   4.818   1.648   5.209 -1.2695  0.7858 -0.4362
  159DOPC  H18T19195   4.959   1.747   5.254  0.0546 -2.7596 -2.0711
  159DOPC   C3319196   5.195   1.505   6.666 -0.1056 -0.4184  0.0203
  159DOPC   H3X19197   5.101   1.556   6.636  1.0261  0.4290 -2.4238
  159DOPC   H3Y19198   5.201   1.406   6.616 -1.0785  0.0065 -0.9747
  159DOPC   C3419199   5.296   1.607   6.607 -0.1832  0.4637 -0.0056
  159DOPC   H4X19200   5.397   1.568   6.632 -0.8508 -2.2465 -1.2128
  159DOPC   H4Y19201   5.278   1.703   6.660  1.1521 -0.3701  2.1231
  159DOPC   C3519202   5.289   1.623   6.459 -0.3655  0.2074 -0.3820
  159DOPC   H5X19203   5.369   1.694   6.431  1.0070 -0.4863  1.6286
  159DOPC   H5Y19204   5.191   1.663   6.424 -1.2179  2.5113  3.9270
  159DOPC   C3619205   5.307   1.486   6.379 -0.6357 -0.2144  0.8561
  159DOPC   H6X19206   5.395   1.424   6.408 -0.0353 -0.0945 -0.5894
  159DOPC   H6Y19207   5.219   1.423   6.403  0.6898 -3.6725 -2.3684
  159DOPC   C3719208   5.314   1.509   6.225  0.0976  0.5030 -0.0919
  159DOPC   H7X19209   5.230   1.563   6.178  1.1440  0.4046 -2.1635
  159DOPC   H7Y19210   5.403   1.573   6.208 -0.1591  0.7446 -0.5216
  159DOPC   C3819211   5.334   1.378   6.141  0.9472  0.1996 -0.6289
  159DOPC   H8X19212   5.260   1.298   6.162 -1.1522  1.8854 -1.1932
  159DOPC   H8Y19213   5.436   1.339   6.156  2.2164  3.5179  0.3472
  159DOPC   C3919214   5.312   1.418   5.994 -0.1964  0.0723 -0.5293
  159DOPC   H9X19215   5.211   1.412   5.951 -0.2052 -2.2763 -0.2617
  159DOPC  C31019216   5.404   1.458   5.910 -0.6428  0.6740  0.8740
  159DOPC  H10X19217   5.367   1.495   5.813 -1.1625 -1.3906  0.2394
  159DOPC  C31119218   5.555   1.464   5.918  0.1655  0.6084 -0.4021
  159DOPC  H11X19219   5.584   1.385   5.991 -0.5633  0.7451  0.0473
  159DOPC  H11Y19220   5.596   1.559   5.959  2.2970 -0.7479  0.8104
  159DOPC  C31219221   5.605   1.425   5.781 -0.0353  0.5363 -0.0842
  159DOPC  H12X19222   5.714   1.445   5.781  0.1572 -0.1718  2.5699
  159DOPC  H12Y19223   5.562   1.494   5.705  1.9443  0.7107 -1.0991
  159DOPC  C31319224   5.600   1.276   5.741  0.6330  0.1147  0.2864
  159DOPC  H13X19225   5.681   1.213   5.786  1.7514 -1.1216 -3.1645
  159DOPC  H13Y19226   5.498   1.246   5.772  0.3793 -0.3580 -0.9578
  159DOPC  C31419227   5.606   1.259   5.592 -0.8632  0.1009  0.8688
  159DOPC  H14X19228   5.532   1.330   5.549 -1.5178 -1.4231 -0.6257
  159DOPC  H14Y19229   5.703   1.291   5.548 -0.2924  0.2490  2.1814
  159DOPC  C31519230   5.583   1.117   5.548 -0.0386  0.2445 -0.6405
  159DOPC  H15X19231   5.492   1.080   5.600  0.4679  0.2099  0.2320
  159DOPC  H15Y19232   5.664   1.058   5.596  1.0530  1.8846 -0.4005
  159DOPC  C31619233   5.562   1.098   5.397 -0.7460  0.2654 -0.6626
  159DOPC  H16X19234   5.558   0.988   5.377 -1.9944  0.3698 -1.0752
  159DOPC  H16Y19235   5.460   1.137   5.377 -1.1510  0.8455  2.1337
  159DOPC  C31719236   5.666   1.162   5.305  0.6446  0.4710 -0.1639
  159DOPC  H17X19237   5.660   1.272   5.320  0.3254  0.0775  3.2753
  159DOPC  H17Y19238   5.767   1.131   5.339 -0.0617 -0.2497  1.3516
  159DOPC  C31819239   5.652   1.117   5.159  0.1100  0.5955 -0.3081
  159DOPC  H18X19240   5.697   1.016   5.145 -1.8511 -0.8957  3.0560
  159DOPC  H18Y19241   5.546   1.098   5.133 -1.1803  4.3782  1.4397
  159DOPC  H18Z19242   5.694   1.192   5.089 -1.2532  1.5954 -0.0949
  160DOPC     N19243   3.243   7.064   6.997 -0.5505  0.1296  0.2459
  160DOPC   C1219244   3.257   7.133   6.857 -0.2709  0.4204 -0.5751
  160DOPC  H12A19245   3.359   7.124   6.824 -0.1517  0.0307 -0.1147
  160DOPC  H12B19246   3.249   7.240   6.866  1.6489  0.7496 -2.0165
  160DOPC   C1319247   3.296   6.923   7.006  0.4851 -0.0098  0.2546
  160DOPC  H13A19248   3.240   6.856   6.942  0.2183  0.7986 -0.3703
  160DOPC  H13B19249   3.403   6.921   6.990  0.4804  0.5261  0.1345
  160DOPC  H13C19250   3.295   6.877   7.104  0.0948 -0.3519  0.0924
  160DOPC   C1419251   3.097   7.070   7.035 -0.7448  0.1414  0.1056
  160DOPC  H14A19252   3.072   7.174   7.043  0.9764  0.7750 -1.7972
  160DOPC  H14B19253   3.041   7.038   6.948 -0.1093  0.7484 -0.5392
  160DOPC  H14C19254   3.081   7.009   7.123  0.4954  0.8351  0.8429
  160DOPC   C1519255   3.325   7.142   7.093 -0.3593 -0.3825 -1.0409
  160DOPC  H15A19256   3.429   7.136   7.062 -0.8141  0.0797 -2.7831
  160DOPC  H15B19257   3.322   7.106   7.195  0.9925 -1.1456 -1.2480
  160DOPC  H15C19258   3.295   7.245   7.090  0.0731 -0.1510  1.1551
  160DOPC   C1119259   3.171   7.079   6.743  0.2000 -0.7232 -0.0629
  160DOPC  H11A19260   3.209   7.128   6.651  2.2959 -1.6956  0.2295
  160DOPC  H11B19261   3.182   6.970   6.727 -0.2348 -0.7302 -0.3538
  160DOPC     P19262   2.955   7.232   6.727 -0.1125  0.0662 -0.2483
  160DOPC   O1319263   3.031   7.345   6.778  0.4363  0.1247  0.4182
  160DOPC   O1419264   2.814   7.215   6.766  0.4705 -0.1888 -0.6386
  160DOPC   O1219265   3.030   7.106   6.773  0.5687 -0.5377 -0.5142
  160DOPC   O1119266   2.967   7.225   6.574 -0.6392 -0.5416  0.1680
  160DOPC    C119267   2.935   7.108   6.495 -0.4427 -0.5532  0.5214
  160DOPC    HA19268   2.835   7.071   6.524 -0.4533 -0.5317  0.5123
  160DOPC    HB19269   3.010   7.026   6.494 -2.1315 -2.2038 -1.6441
  160DOPC    C219270   2.922   7.145   6.342 -0.0908  0.4610 -0.1497
  160DOPC    HS19271   2.929   7.054   6.278  3.1499  1.6265 -1.6368
  160DOPC   O2119272   3.031   7.231   6.306 -0.0443 -1.0090  0.1024
  160DOPC   C2119273   3.143   7.173   6.307  0.0013  0.6223  0.0070
  160DOPC   O2219274   3.158   7.052   6.319  0.5402  0.9843 -0.0570
  160DOPC   C2219275   3.255   7.278   6.294  0.1708  0.5072 -1.3610
  160DOPC   H2R19276   3.340   7.237   6.352 -1.3329 -1.2829 -0.3169
  160DOPC   H2S19277   3.236   7.380   6.334  0.5620 -0.4844  1.5664
  160DOPC    C319278   2.787   7.216   6.306 -0.2450 -0.0479  0.1742
  160DOPC    HX19279   2.774   7.320   6.343 -0.2176  0.2319 -0.5939
  160DOPC    HY19280   2.717   7.155   6.368 -0.1661 -1.8539 -1.4278
  160DOPC   O3119281   2.751   7.204   6.169  0.2473 -0.0050 -0.1035
  160DOPC   C3119282   2.801   7.300   6.093 -0.1519  0.2080 -0.6976
  160DOPC   O3219283   2.875   7.391   6.135  0.5571 -0.1171 -0.3501
  160DOPC   C3219284   2.757   7.271   5.946 -0.1548 -0.2660  0.4897
  160DOPC   H2X19285   2.780   7.163   5.936 -1.8519 -0.8764  2.4171
  160DOPC   H2Y19286   2.646   7.270   5.946 -0.2070 -2.7846 -1.0920
  160DOPC   C2319287   3.290   7.275   6.144  0.2122  0.1703  0.5696
  160DOPC   H3R19288   3.313   7.178   6.096  1.3359  1.4228 -1.6027
  160DOPC   H3S19289   3.391   7.323   6.136 -0.6383  1.9308 -0.2006
  160DOPC   C2419290   3.186   7.331   6.047 -0.2183  0.3835 -0.2054
  160DOPC   H4R19291   3.153   7.427   6.092  2.3148  1.0304  0.4105
  160DOPC   H4S19292   3.095   7.268   6.057 -1.0050  1.5310  0.1449
  160DOPC   C2519293   3.226   7.346   5.904  0.2914  0.3563 -0.1941
  160DOPC   H5R19294   3.327   7.391   5.917  0.9646 -1.0657 -0.2862
  160DOPC   H5S19295   3.154   7.416   5.858 -1.1681  1.4547  3.3577
  160DOPC   C2619296   3.252   7.221   5.821  0.0603  0.6954  0.1309
  160DOPC   H6R19297   3.172   7.147   5.844 -1.3117  2.2744  0.6632
  160DOPC   H6S19298   3.350   7.181   5.853  0.8651  0.4934 -2.3160
  160DOPC   C2719299   3.282   7.219   5.670 -0.1090 -0.0714 -0.0361
  160DOPC   H7R19300   3.295   7.114   5.636 -0.3649  0.9754 -3.7584
  160DOPC   H7S19301   3.371   7.282   5.652 -1.2018  1.7409  0.6901
  160DOPC   C2819302   3.168   7.278   5.585  0.8120  0.0134 -0.7379
  160DOPC   H8R19303   3.121   7.366   5.632 -1.0652 -1.5441  0.4605
  160DOPC   H8S19304   3.086   7.205   5.603  0.9520 -0.0329 -0.2856
  160DOPC   C2919305   3.211   7.298   5.437 -0.2722  0.8281  0.0986
  160DOPC   H9R19306   3.288   7.375   5.420  2.3611 -1.6954 -0.1880
  160DOPC  C21019307   3.167   7.237   5.324 -0.2662  0.8705 -0.9614
  160DOPC  H10R19308   3.187   7.285   5.227 -1.0980 -0.3966 -1.7912
  160DOPC  C21119309   3.080   7.115   5.326  0.2786 -0.1683 -0.0316
  160DOPC  H11R19310   2.975   7.150   5.317  0.5575  0.7789  0.2998
  160DOPC  H11S19311   3.089   7.062   5.423  1.9254  1.2367  0.6278
  160DOPC  C21219312   3.087   7.018   5.198  0.4290  0.1938 -0.4344
  160DOPC  H12R19313   2.993   6.958   5.203 -0.6679  1.7418 -1.4616
  160DOPC  H12S19314   3.182   6.960   5.202  1.6700  2.1338 -0.5749
  160DOPC  C21319315   3.072   7.097   5.068 -0.0823  0.3487  0.1623
  160DOPC  H13R19316   3.174   7.124   5.033  0.3533  0.2426  1.3316
  160DOPC  H13S19317   3.005   7.185   5.067  0.0948  0.4879  0.5121
  160DOPC  C21419318   3.019   7.015   4.947  0.6425 -0.0351  0.2322
  160DOPC  H14R19319   2.927   6.973   4.993 -0.3094  1.9609  0.2574
  160DOPC  H14S19320   3.094   6.938   4.919 -0.2471 -1.0343  0.5013
  160DOPC  C21519321   2.984   7.100   4.822 -0.3372 -0.2392 -0.4293
  160DOPC  H15R19322   2.926   7.193   4.840  0.4802  0.2525 -0.2988
  160DOPC  H15S19323   2.925   7.039   4.750  1.2789 -1.6299 -0.6364
  160DOPC  C21619324   3.109   7.146   4.745 -0.5166 -0.4911  0.1152
  160DOPC  H16R19325   3.163   7.220   4.808 -2.0217  0.5145  0.2734
  160DOPC  H16S19326   3.072   7.202   4.657  0.5106 -0.8035 -0.5346
  160DOPC  C21719327   3.202   7.039   4.689 -0.2137 -0.0357 -0.1135
  160DOPC  H17R19328   3.167   7.020   4.586 -0.2095 -0.3898 -0.0513
  160DOPC  H17S19329   3.193   6.946   4.749  0.6513 -1.2806 -1.8252
  160DOPC  C21819330   3.350   7.083   4.688 -0.2881 -0.4670  0.2988
  160DOPC  H18R19331   3.409   7.010   4.629 -0.7964 -1.0118  0.4583
  160DOPC  H18S19332   3.389   7.083   4.792 -1.7257 -0.1074  0.8795
  160DOPC  H18T19333   3.346   7.187   4.647  0.1506 -0.1594  1.0085
  160DOPC   C3319334   2.818   7.369   5.844 -0.0377 -0.1315 -0.4516
  160DOPC   H3X19335   2.928   7.376   5.856 -0.2229  1.0720  0.9304
  160DOPC   H3Y19336   2.791   7.474   5.868  1.1104  0.3573 -1.2093
  160DOPC   C3419337   2.780   7.342   5.695 -0.9923 -0.0430  0.0388
  160DOPC   H4X19338   2.677   7.301   5.689 -1.0599  0.0861  0.2942
  160DOPC   H4Y19339   2.856   7.278   5.647 -0.2506  0.1159  0.9687
  160DOPC   C3519340   2.761   7.474   5.613  1.0177  0.0505 -0.3731
  160DOPC   H5X19341   2.856   7.532   5.613  0.0465  1.7028 -0.6022
  160DOPC   H5Y19342   2.705   7.546   5.676  2.2393  1.0843 -0.4305
  160DOPC   C3619343   2.701   7.453   5.477 -0.5211  0.3435  0.7760
  160DOPC   H6X19344   2.603   7.403   5.491  0.5316 -1.9971  0.2640
  160DOPC   H6Y19345   2.691   7.547   5.419  1.0460 -0.8576 -1.6268
  160DOPC   C3719346   2.781   7.353   5.386 -0.1429 -0.9321  0.6027
  160DOPC   H7X19347   2.885   7.391   5.392 -0.4986  0.5530 -1.5475
  160DOPC   H7Y19348   2.781   7.252   5.432  1.0185 -0.1860  2.3155
  160DOPC   C3819349   2.740   7.360   5.238 -0.4186  0.2810 -0.9941
  160DOPC   H8X19350   2.819   7.298   5.190  0.4380 -0.9587  1.8249
  160DOPC   H8Y19351   2.738   7.462   5.193  2.2471  0.6191 -0.5323
  160DOPC   C3919352   2.600   7.312   5.232  0.7257 -0.4926 -0.1885
  160DOPC   H9X19353   2.523   7.379   5.272 -0.5798 -1.7215 -0.5657
  160DOPC  C31019354   2.552   7.206   5.173 -0.3420  0.3128 -0.7640
  160DOPC  H10X19355   2.445   7.194   5.150 -0.8832 -0.8481  1.9911
  160DOPC  C31119356   2.637   7.107   5.103  0.4409 -0.2137  0.1807
  160DOPC  H11X19357   2.627   7.001   5.135 -1.2006 -0.1300  0.0105
  160DOPC  H11Y19358   2.745   7.124   5.122  0.5781 -0.2947 -0.4993
  160DOPC  C31219359   2.620   7.107   4.949  0.4927  0.0656  0.2912
  160DOPC  H12X19360   2.702   7.057   4.893 -0.2546 -0.8159 -0.0375
  160DOPC  H12Y19361   2.615   7.211   4.911  3.6051  1.1767  2.4797
  160DOPC  C31319362   2.491   7.041   4.903 -0.6891  0.5020  0.6061
  160DOPC  H13X19363   2.476   6.942   4.951  0.6309  0.5505  1.1783
  160DOPC  H13Y19364   2.404   7.098   4.942 -1.4228  0.2959 -0.6733
  160DOPC  C31419365   2.469   7.024   4.757  0.4461  0.9518  1.1559
  160DOPC  H14X19366   2.466   7.131   4.724 -0.2561  1.6907  3.4014
  160DOPC  H14Y19367   2.539   6.961   4.699  0.1882  2.7906 -1.3670
  160DOPC  C31519368   2.329   6.965   4.738 -0.2736 -0.1257 -0.5284
  160DOPC  H15X19369   2.280   6.984   4.640  1.9160  0.5644 -1.5482
  160DOPC  H15Y19370   2.265   7.015   4.815 -0.9336  1.1032 -1.8156
  160DOPC  C31619371   2.327   6.811   4.755 -0.2506 -0.2824 -0.4411
  160DOPC  H16X19372   2.345   6.759   4.659  1.9586 -1.2436  0.4124
  160DOPC  H16Y19373   2.410   6.781   4.823  0.2679 -1.2073 -1.4497
  160DOPC  C31719374   2.200   6.755   4.823 -0.0782 -0.1934  0.0279
  160DOPC  H17X19375   2.236   6.650   4.826  0.9861  0.1579  0.0366
  160DOPC  H17Y19376   2.186   6.790   4.927  0.0367 -3.7704  1.3988
  160DOPC  C31819377   2.076   6.768   4.735  0.1361  0.0499  0.1856
  160DOPC  H18X19378   2.053   6.876   4.738  1.2915  0.4780 -3.0916
  160DOPC  H18Y19379   2.113   6.737   4.635  0.6953 -0.9844  0.6898
  160DOPC  H18Z19380   1.991   6.706   4.772  0.0415  0.6141  0.9295
  161DOPC     N19381   4.571   6.573   7.089  0.1202 -0.5341  0.3977
  161DOPC   C1219382   4.488   6.620   6.969 -0.0858 -0.3323 -0.4623
  161DOPC  H12A19383   4.434   6.536   6.929 -0.8292 -0.1935  0.2312
  161DOPC  H12B19384   4.557   6.668   6.900  2.0170 -2.7885 -0.2122
  161DOPC   C1319385   4.472   6.515   7.190 -0.2375  0.1011 -0.4103
  161DOPC  H13A19386   4.406   6.595   7.219  1.6626  1.5253  0.2204
  161DOPC  H13B19387   4.409   6.439   7.145 -0.9153  2.3870 -3.7177
  161DOPC  H13C19388   4.510   6.482   7.285 -2.7945  0.6447  0.8979
  161DOPC   C1419389   4.643   6.688   7.154 -0.0506  0.2100 -0.7056
  161DOPC  H14A19390   4.697   6.659   7.243 -1.1087  0.5457  0.0659
  161DOPC  H14B19391   4.712   6.732   7.083 -0.8545 -1.8147 -2.9021
  161DOPC  H14C19392   4.566   6.760   7.174  1.4006  1.4044  0.7889
  161DOPC   C1519393   4.661   6.464   7.050  0.0054 -0.1772  0.1302
  161DOPC  H15A19394   4.608   6.379   7.009  0.4595  0.4343 -1.8320
  161DOPC  H15B19395   4.717   6.429   7.135  0.9988  0.3655 -0.2782
  161DOPC  H15C19396   4.731   6.497   6.974 -1.1575  1.6348 -0.1943
  161DOPC   C1119397   4.400   6.745   6.992 -0.1741  0.4430 -0.9253
  161DOPC  H11A19398   4.318   6.747   6.917 -0.5282 -0.5769 -0.5914
  161DOPC  H11B19399   4.363   6.746   7.097  0.7745  0.1204 -0.5771
  161DOPC     P19400   4.544   6.921   6.864 -0.2631  0.3617  0.2300
  161DOPC   O1319401   4.630   6.817   6.796 -0.6094  0.8393 -0.5754
  161DOPC   O1419402   4.606   7.051   6.899 -0.6413 -0.1870  0.2371
  161DOPC   O1219403   4.478   6.863   6.989  0.0263 -0.1980  0.8759
  161DOPC   O1119404   4.407   6.953   6.788 -0.0662 -0.5191  0.1866
  161DOPC    C119405   4.356   6.881   6.683 -0.1370  0.1538 -0.1778
  161DOPC    HA19406   4.245   6.888   6.678 -0.1331  0.4862  0.1908
  161DOPC    HB19407   4.384   6.774   6.690 -1.1583 -0.1953 -1.0353
  161DOPC    C219408   4.411   6.925   6.542  0.6651 -0.8711  0.0263
  161DOPC    HS19409   4.522   6.919   6.544  0.7659 -0.3667 -1.8186
  161DOPC   O2119410   4.366   7.060   6.514  0.3701 -0.1671 -0.6510
  161DOPC   C2119411   4.433   7.137   6.439  0.2736  0.5781  0.9069
  161DOPC   O2219412   4.541   7.114   6.383  0.6286  0.1800 -0.6827
  161DOPC   C2219413   4.367   7.272   6.436 -0.8011 -0.2063 -0.0710
  161DOPC   H2R19414   4.390   7.311   6.537 -1.5464 -0.3444  0.1634
  161DOPC   H2S19415   4.257   7.257   6.424 -0.6442 -1.6830  0.2041
  161DOPC    C319416   4.367   6.822   6.433 -0.1232  0.2389  0.5945
  161DOPC    HX19417   4.261   6.847   6.411  0.5212  0.6610 -2.5946
  161DOPC    HY19418   4.380   6.725   6.484 -4.1215  0.0376  1.5522
  161DOPC   O3119419   4.438   6.842   6.306  0.1842 -0.4232  0.1970
  161DOPC   C3119420   4.558   6.788   6.298  0.4186  0.0853 -0.5894
  161DOPC   O3219421   4.613   6.726   6.387 -0.4638 -0.1055 -0.4300
  161DOPC   C3219422   4.623   6.841   6.165 -0.1711  0.2410 -0.4513
  161DOPC   H2X19423   4.586   6.779   6.080 -0.3344  0.0710 -0.2599
  161DOPC   H2Y19424   4.593   6.947   6.155 -1.7883 -0.1397  0.0020
  161DOPC   C2319425   4.417   7.375   6.336 -0.2458 -0.5209  0.0771
  161DOPC   H3R19426   4.391   7.354   6.230  1.1647 -0.0528 -0.3964
  161DOPC   H3S19427   4.527   7.383   6.349  0.0769 -0.0037 -2.3944
  161DOPC   C2419428   4.350   7.508   6.370  0.2907  0.3509 -0.2743
  161DOPC   H4R19429   4.378   7.533   6.474 -1.7455  0.3661  0.3129
  161DOPC   H4S19430   4.239   7.501   6.363  0.3890 -1.6456 -0.4453
  161DOPC   C2519431   4.398   7.632   6.283 -0.0047  0.1160 -0.2879
  161DOPC   H5R19432   4.420   7.587   6.183 -0.9021 -2.0663  0.4459
  161DOPC   H5S19433   4.489   7.667   6.337 -0.6401  1.6984 -0.2065
  161DOPC   C2619434   4.296   7.748   6.262 -0.6350 -0.0215 -0.3047
  161DOPC   H6R19435   4.272   7.810   6.351 -1.1298 -2.0250  1.0315
  161DOPC   H6S19436   4.205   7.691   6.234 -0.6727  0.5642 -1.4059
  161DOPC   C2719437   4.343   7.839   6.155  0.1986  0.4311  0.5118
  161DOPC   H7R19438   4.371   7.784   6.062  0.7704 -1.2271  1.6154
  161DOPC   H7S19439   4.438   7.884   6.190  0.9166 -1.5827  1.3345
  161DOPC   C2819440   4.236   7.943   6.126  1.5459 -0.1082 -0.0731
  161DOPC   H8R19441   4.229   7.993   6.225 -0.8454 -1.3885  0.4878
  161DOPC   H8S19442   4.134   7.904   6.105  1.3366  0.5577 -0.3067
  161DOPC   C2919443   4.281   8.050   6.028 -0.2497 -0.1525 -0.5216
  161DOPC   H9R19444   4.320   8.141   6.075  0.9984 -0.4894 -0.8464
  161DOPC  C21019445   4.259   8.059   5.897 -0.1247  0.8663 -0.0927
  161DOPC  H10R19446   4.296   8.144   5.838  0.8804 -0.4716 -1.4756
  161DOPC  C21119447   4.190   7.949   5.816  0.7168 -0.1141 -0.4672
  161DOPC  H11R19448   4.086   7.989   5.814  1.7342  2.6473 -1.4598
  161DOPC  H11S19449   4.199   7.850   5.867  1.5875 -0.8555 -2.0021
  161DOPC  C21219450   4.243   7.932   5.675  0.3680  1.3925  0.0790
  161DOPC  H12R19451   4.187   7.849   5.627  1.7082  0.3826  0.1913
  161DOPC  H12S19452   4.352   7.909   5.676  0.3155  1.1263 -0.2504
  161DOPC  C21319453   4.223   8.055   5.579 -0.2992  0.4963  0.2506
  161DOPC  H13R19454   4.253   8.145   5.635 -1.9734  1.9739 -1.0989
  161DOPC  H13S19455   4.118   8.080   5.552  0.0587 -0.2553 -2.0711
  161DOPC  C21419456   4.292   8.036   5.447 -0.0764  0.3416 -0.3568
  161DOPC  H14R19457   4.257   7.938   5.408  0.3065 -0.5403  1.4196
  161DOPC  H14S19458   4.403   8.039   5.455 -0.0934 -0.2815  0.2079
  161DOPC  C21519459   4.251   8.144   5.343  0.4721 -0.6011  0.3926
  161DOPC  H15R19460   4.240   8.235   5.406  1.9806  0.8218 -1.2971
  161DOPC  H15S19461   4.161   8.109   5.289  2.1786 -2.5224 -1.3992
  161DOPC  C21619462   4.367   8.160   5.243  0.0369 -0.3818 -0.1860
  161DOPC  H16R19463   4.381   8.053   5.216 -2.0402 -0.9546  0.8258
  161DOPC  H16S19464   4.459   8.204   5.287  0.5070  0.1914 -1.6460
  161DOPC  C21719465   4.338   8.233   5.108  0.1998 -0.4072 -0.4852
  161DOPC  H17R19466   4.230   8.218   5.086 -0.7475  2.0231  2.0060
  161DOPC  H17S19467   4.387   8.177   5.025 -1.0134 -2.1985 -0.0471
  161DOPC  C21819468   4.396   8.380   5.102  0.4393  0.3712  0.3974
  161DOPC  H18R19469   4.504   8.378   5.126  1.6125 -2.4155 -4.0163
  161DOPC  H18S19470   4.356   8.455   5.175  1.6057  1.2792  0.1338
  161DOPC  H18T19471   4.398   8.434   5.005  1.1792 -1.2078 -0.4990
  161DOPC   C3319472   4.778   6.831   6.167  0.1632  0.2012  0.0816
  161DOPC   H3X19473   4.808   6.725   6.184 -0.3737 -0.0287 -0.3769
  161DOPC   H3Y19474   4.819   6.894   6.249 -0.1020 -0.7680  0.9880
  161DOPC   C3419475   4.826   6.860   6.030 -0.1746  0.0387  0.1376
  161DOPC   H4X19476   4.768   6.798   5.958  0.7409 -1.3325  0.5328
  161DOPC   H4Y19477   4.933   6.831   6.020  0.5423  2.3053  0.7024
  161DOPC   C3519478   4.832   7.008   5.990  0.5623  0.0913 -0.0893
  161DOPC   H5X19479   4.908   7.065   6.048  1.1875 -0.2551 -0.5512
  161DOPC   H5Y19480   4.731   7.048   6.013 -0.5849 -1.5899 -1.8927
  161DOPC   C3619481   4.849   7.040   5.844 -0.0669  1.5540  0.3751
  161DOPC   H6X19482   4.952   7.009   5.814  0.5813  0.7522  3.1639
  161DOPC   H6Y19483   4.782   6.979   5.779  0.6087  0.2952  0.8188
  161DOPC   C3719484   4.830   7.187   5.817 -0.1432 -0.1992 -0.0807
  161DOPC   H7X19485   4.730   7.220   5.853  1.1291  3.2217  0.7140
  161DOPC   H7Y19486   4.909   7.237   5.877  3.4141 -1.7868 -3.0959
  161DOPC   C3819487   4.843   7.230   5.674 -0.7223  0.1998 -0.0923
  161DOPC   H8X19488   4.812   7.336   5.671  3.7995  1.7487  0.2481
  161DOPC   H8Y19489   4.773   7.171   5.611 -2.2838  0.2422  1.5574
  161DOPC   C3919490   4.986   7.212   5.633 -0.4266 -0.5334  0.0113
  161DOPC   H9X19491   5.015   7.111   5.599  1.1370 -0.8159  2.0057
  161DOPC  C31019492   5.083   7.305   5.655  0.1427  0.4374 -0.4384
  161DOPC  H10X19493   5.185   7.268   5.638  0.4599  0.5780  1.0148
  161DOPC  C31119494   5.058   7.438   5.722 -0.4207 -0.3919  0.3727
  161DOPC  H11X19495   5.123   7.448   5.811  1.1744 -0.9078 -0.6781
  161DOPC  H11Y19496   4.960   7.443   5.773 -0.2997 -1.8681  0.7651
  161DOPC  C31219497   5.059   7.560   5.623 -0.2280 -0.7285 -0.0738
  161DOPC  H12X19498   5.041   7.659   5.670 -0.4347 -1.5734  1.7354
  161DOPC  H12Y19499   4.970   7.549   5.558 -0.9140 -0.0368  0.7207
  161DOPC  C31319500   5.181   7.570   5.527 -0.0858 -0.8326  0.0887
  161DOPC  H13X19501   5.277   7.577   5.581  0.4444 -1.1173 -0.8046
  161DOPC  H13Y19502   5.196   7.469   5.482 -1.2289 -1.6632  1.4645
  161DOPC  C31419503   5.171   7.670   5.412 -0.3186  0.2132 -0.2270
  161DOPC  H14X19504   5.263   7.661   5.351  1.1737  0.2771  1.8785
  161DOPC  H14Y19505   5.085   7.658   5.343  0.5710 -0.1797 -1.2843
  161DOPC  C31519506   5.189   7.820   5.461  0.1177 -0.3082  0.2484
  161DOPC  H15X19507   5.264   7.824   5.543 -0.3459  1.6487  0.6110
  161DOPC  H15Y19508   5.089   7.849   5.499  0.2540  0.2153  0.2160
  161DOPC  C31619509   5.215   7.920   5.344 -0.1526  0.2132  0.1901
  161DOPC  H16X19510   5.161   7.896   5.250  2.2483 -0.3850 -1.1316
  161DOPC  H16Y19511   5.188   8.018   5.389 -1.8610 -1.0986  2.2354
  161DOPC  C31719512   5.366   7.932   5.299  0.2067  0.0012 -0.1310
  161DOPC  H17X19513   5.429   7.955   5.387 -1.2905 -0.7304  1.2042
  161DOPC  H17Y19514   5.408   7.840   5.254  2.3111 -0.2940  2.1803
  161DOPC  C31819515   5.385   8.048   5.197  0.3375  0.1224 -0.2216
  161DOPC  H18X19516   5.341   8.139   5.242 -0.4891 -0.9696  1.2445
  161DOPC  H18Y19517   5.493   8.052   5.172  0.3033 -1.5328 -0.8084
  161DOPC  H18Z19518   5.331   8.027   5.102 -2.8525  0.6128  1.3515
  162DOPC     N19519   1.383   6.919   7.211  0.0398 -0.4101 -0.7199
  162DOPC   C1219520   1.469   6.955   7.086  0.1111  0.5145 -0.4693
  162DOPC  H12A19521   1.547   6.881   7.078  1.5152  1.8995 -0.1694
  162DOPC  H12B19522   1.523   7.045   7.112 -1.4720  1.5545 -0.6660
  162DOPC   C1319523   1.478   6.906   7.332  0.6339  0.0927  0.0610
  162DOPC  H13A19524   1.541   6.818   7.332  0.1529 -0.2565 -0.0713
  162DOPC  H13B19525   1.550   6.986   7.336  0.2107  0.5431 -0.9800
  162DOPC  H13C19526   1.422   6.898   7.425 -1.4814 -2.5884 -1.2842
  162DOPC   C1419527   1.310   6.787   7.184 -0.1677  0.1390  0.3614
  162DOPC  H14A19528   1.371   6.701   7.209 -0.1431  0.6377  2.1822
  162DOPC  H14B19529   1.222   6.779   7.246 -2.1446 -0.0219 -2.3173
  162DOPC  H14C19530   1.271   6.777   7.084  0.5151  1.3656 -0.0497
  162DOPC   C1519531   1.285   7.022   7.246 -0.2128  0.1031  0.7382
  162DOPC  H15A19532   1.328   7.113   7.207  0.6216 -0.9540 -0.9194
  162DOPC  H15B19533   1.263   7.017   7.351  0.1704 -0.0609  0.8118
  162DOPC  H15C19534   1.190   7.011   7.195 -0.4125  3.1760  0.2505
  162DOPC   C1119535   1.408   6.961   6.939 -0.1548 -0.5684 -0.3136
  162DOPC  H11A19536   1.335   7.045   6.932  0.6861  0.1297 -0.9591
  162DOPC  H11B19537   1.494   6.988   6.874 -0.2928 -0.3209 -0.3984
  162DOPC     P19538   1.444   6.726   6.854 -0.0074  0.0845 -0.1295
  162DOPC   O1319539   1.388   6.606   6.911  0.6289 -0.3362 -0.2384
  162DOPC   O1419540   1.587   6.752   6.885 -0.7506  0.5092  0.1781
  162DOPC   O1219541   1.352   6.839   6.899 -0.1984  0.2696  0.8735
  162DOPC   O1119542   1.423   6.725   6.695 -0.4495  0.0305  0.3117
  162DOPC    C119543   1.298   6.717   6.641 -0.0657  0.4000 -0.2371
  162DOPC    HA19544   1.215   6.686   6.707  2.0396  0.0793  2.4442
  162DOPC    HB19545   1.306   6.627   6.575  2.0813  0.0247  0.4415
  162DOPC    C219546   1.258   6.841   6.561 -0.5646 -0.2036 -0.3265
  162DOPC    HS19547   1.178   6.811   6.490 -1.3469  1.5591 -0.2411
  162DOPC   O2119548   1.374   6.882   6.486  0.0987 -0.3694  0.4420
  162DOPC   C2119549   1.394   6.809   6.382  0.5902  0.5866 -0.4170
  162DOPC   O2219550   1.323   6.717   6.341  0.0293 -0.7062  0.1689
  162DOPC   C2219551   1.526   6.851   6.307  0.2026 -0.2419  0.2459
  162DOPC   H2R19552   1.562   6.761   6.252  1.3407  0.9422 -1.0149
  162DOPC   H2S19553   1.598   6.874   6.389  0.2825 -0.1579  0.1524
  162DOPC    C319554   1.200   6.958   6.654 -0.6296  0.7699 -0.1175
  162DOPC    HX19555   1.283   7.009   6.708 -1.3308  0.6250  1.1386
  162DOPC    HY19556   1.142   6.907   6.734  1.0551 -0.1831  0.5537
  162DOPC   O3119557   1.119   7.048   6.577  0.2357 -0.1379  0.1437
  162DOPC   C3119558   0.987   7.033   6.568 -0.5421  0.1500  0.0245
  162DOPC   O3219559   0.923   6.943   6.626  0.0987 -0.5992 -0.5681
  162DOPC   C3219560   0.926   7.134   6.467 -0.4956 -0.1230  0.8731
  162DOPC   H2X19561   0.966   7.236   6.485 -3.7308  2.0762 -2.8318
  162DOPC   H2Y19562   0.964   7.107   6.366  0.2803  0.3125  1.0423
  162DOPC   C2319563   1.518   6.979   6.215 -0.6605 -0.6734 -0.4000
  162DOPC   H3R19564   1.623   7.013   6.200 -2.1850  4.5242 -1.3967
  162DOPC   H3S19565   1.476   7.063   6.275 -0.1634 -1.6913  1.4622
  162DOPC   C2419566   1.437   6.960   6.087 -0.1534 -0.3854 -0.2191
  162DOPC   H4R19567   1.335   6.927   6.114 -0.6751 -0.4297 -2.1320
  162DOPC   H4S19568   1.486   6.880   6.027 -3.4197 -1.2524 -1.9363
  162DOPC   C2519569   1.430   7.093   6.016 -0.1352 -0.3444  0.3690
  162DOPC   H5R19570   1.528   7.142   5.994 -0.8791  0.4223 -1.4583
  162DOPC   H5S19571   1.369   7.173   6.062 -1.0391  0.8172 -2.6002
  162DOPC   C2619572   1.379   7.070   5.870 -0.8707 -0.4185  0.0252
  162DOPC   H6R19573   1.280   7.020   5.860 -0.4334 -1.8618  2.2053
  162DOPC   H6S19574   1.462   7.009   5.829 -0.5296 -0.8889  1.3798
  162DOPC   C2719575   1.369   7.204   5.796  0.8741  0.1255  0.5889
  162DOPC   H7R19576   1.462   7.263   5.807  1.2363 -0.4801  0.8282
  162DOPC   H7S19577   1.300   7.273   5.850  0.5616  3.0788 -3.1948
  162DOPC   C2819578   1.316   7.185   5.658  0.5153 -0.2491  0.7813
  162DOPC   H8R19579   1.216   7.138   5.665  1.9908 -3.8419  0.1597
  162DOPC   H8S19580   1.376   7.100   5.619  0.4735  0.0125  0.1351
  162DOPC   C2919581   1.301   7.301   5.556  0.5819 -0.7336 -0.4055
  162DOPC   H9R19582   1.240   7.385   5.593  1.8292  1.0982 -2.2874
  162DOPC  C21019583   1.356   7.309   5.434  0.0678  0.1178 -0.2344
  162DOPC  H10R19584   1.331   7.402   5.381 -1.5664  0.9586  1.8561
  162DOPC  C21119585   1.447   7.207   5.376  0.2818 -0.1311 -0.1481
  162DOPC  H11R19586   1.503   7.143   5.447 -1.0335 -3.0119 -1.5222
  162DOPC  H11S19587   1.522   7.253   5.308  1.8590 -0.6929  1.1465
  162DOPC  C21219588   1.367   7.112   5.281  0.1340  0.1503 -0.3839
  162DOPC  H12R19589   1.293   7.167   5.220  0.2755 -0.1889 -0.8629
  162DOPC  H12S19590   1.308   7.045   5.347 -0.9340  1.0551 -0.3973
  162DOPC  C21319591   1.462   7.030   5.188  0.2390 -0.0598 -0.9409
  162DOPC  H13R19592   1.405   6.944   5.148  1.8335 -1.0230 -1.2297
  162DOPC  H13S19593   1.535   6.979   5.255 -0.8381  2.3639  2.3548
  162DOPC  C21419594   1.525   7.109   5.069 -0.0061  0.3873  0.5303
  162DOPC  H14R19595   1.591   7.187   5.114  0.6076  0.8001 -1.0309
  162DOPC  H14S19596   1.441   7.159   5.016  0.6178  1.8365  0.8528
  162DOPC  C21519597   1.593   7.011   4.970  0.0659  0.2644 -1.1069
  162DOPC  H15R19598   1.510   6.945   4.936 -1.4132  1.5260 -0.1089
  162DOPC  H15S19599   1.670   6.955   5.027 -1.8579 -0.0359  1.3973
  162DOPC  C21619600   1.648   7.066   4.837 -0.0533 -0.2978  0.3118
  162DOPC  H16R19601   1.564   7.109   4.778  0.4335 -0.4565 -0.5223
  162DOPC  H16S19602   1.677   6.973   4.784 -1.0336 -0.9384  0.8465
  162DOPC  C21719603   1.761   7.161   4.861  0.1419  0.6222 -0.1285
  162DOPC  H17R19604   1.738   7.258   4.908 -0.7106  0.4384 -0.1343
  162DOPC  H17S19605   1.773   7.202   4.758  1.0730 -0.0832 -0.3195
  162DOPC  C21819606   1.893   7.104   4.918 -0.4581  0.0284  1.0434
  162DOPC  H18R19607   1.970   7.182   4.902 -2.3717  1.6458 -0.6323
  162DOPC  H18S19608   1.926   7.019   4.854  1.1699  1.3961 -0.0168
  162DOPC  H18T19609   1.892   7.072   5.025  1.9922 -2.7204  0.3990
  162DOPC   C3319610   0.771   7.130   6.470  0.1673  0.2797 -0.2651
  162DOPC   H3X19611   0.738   7.158   6.572 -0.9820 -2.1620  0.0973
  162DOPC   H3Y19612   0.735   7.025   6.472  0.2027  0.2736  0.7985
  162DOPC   C3419613   0.711   7.211   6.354 -0.5471 -0.1203 -0.2205
  162DOPC   H4X19614   0.763   7.170   6.265 -0.0187  0.2334 -0.0804
  162DOPC   H4Y19615   0.743   7.317   6.365  0.3300 -0.3306 -0.7096
  162DOPC   C3519616   0.560   7.204   6.346  0.5919 -0.1605 -0.4406
  162DOPC   H5X19617   0.507   7.242   6.435 -0.2888 -0.8422 -0.6609
  162DOPC   H5Y19618   0.544   7.094   6.341 -1.3654  0.1205 -1.2884
  162DOPC   C3619619   0.500   7.267   6.217 -0.3345 -0.6549 -0.3589
  162DOPC   H6X19620   0.478   7.373   6.242 -0.7464 -0.6330 -0.8091
  162DOPC   H6Y19621   0.572   7.262   6.132 -0.7047 -1.9801 -0.6168
  162DOPC   C3719622   0.357   7.216   6.174  0.7404  0.2728  0.1998
  162DOPC   H7X19623   0.362   7.106   6.159 -1.3132  0.1557  0.1212
  162DOPC   H7Y19624   0.302   7.226   6.270 -1.6354 -0.6769 -0.9784
  162DOPC   C3819625   0.303   7.296   6.058 -0.8767 -0.8444  0.7015
  162DOPC   H8X19626   0.363   7.269   5.968 -1.5808  0.4514 -0.1830
  162DOPC   H8Y19627   0.322   7.402   6.085 -0.2543 -0.4836 -1.0381
  162DOPC   C3919628   0.158   7.263   6.032  0.3992 -0.0448 -0.0038
  162DOPC   H9X19629   0.091   7.317   6.100  0.5214 -0.0811  0.1444
  162DOPC  C31019630   0.104   7.180   5.944 -0.3997 -0.3318 -0.1724
  162DOPC  H10X19631  -0.004   7.175   5.958 -0.3802  0.3026  0.2312
  162DOPC  C31119632   0.169   7.095   5.843  0.1527  0.6926  0.4721
  162DOPC  H11X19633   0.142   6.991   5.872  1.9788  0.4934  1.5999
  162DOPC  H11Y19634   0.280   7.097   5.849  0.1647 -0.7526  1.3865
  162DOPC  C31219635   0.118   7.107   5.702 -0.9957  0.1746 -0.4184
  162DOPC  H12X19636   0.112   7.215   5.678  0.9149  0.6753  1.0548
  162DOPC  H12Y19637   0.026   7.045   5.698 -0.5397 -0.5509  0.1790
  162DOPC  C31319638   0.215   7.048   5.596  0.1626 -0.4126  0.5154
  162DOPC  H13X19639   0.308   7.107   5.584  0.4480 -0.8085  0.7532
  162DOPC  H13Y19640   0.233   6.945   5.633  1.7979  0.5081  2.5190
  162DOPC  C31419641   0.154   7.036   5.454  0.4193 -0.1968 -0.6158
  162DOPC  H14X19642   0.055   6.989   5.470  1.0008 -0.9944  0.8645
  162DOPC  H14Y19643   0.127   7.140   5.425  0.8495  0.1021  0.0360
  162DOPC  C31519644   0.239   6.973   5.346 -0.0326  0.4158 -0.0849
  162DOPC  H15X19645   0.273   6.873   5.379  0.0840 -0.3475 -2.3702
  162DOPC  H15Y19646   0.323   7.039   5.313  0.8366 -0.2511  0.7326
  162DOPC  C31619647   0.146   6.956   5.224  0.0379  0.8554 -0.0172
  162DOPC  H16X19648   0.058   6.897   5.256 -0.2532  0.8733 -0.7462
  162DOPC  H16Y19649   0.106   7.053   5.188 -1.3194 -0.4574 -2.3631
  162DOPC  C31719650   0.198   6.881   5.107 -0.5492  0.2505  0.7745
  162DOPC  H17X19651   0.231   6.778   5.130  2.6288  1.0468  0.3263
  162DOPC  H17Y19652   0.135   6.872   5.017  1.4171  0.8152 -0.7319
  162DOPC  C31819653   0.326   6.951   5.047 -0.6567 -0.9189 -0.0994
  162DOPC  H18X19654   0.412   6.956   5.117 -2.4294  0.6549  2.1059
  162DOPC  H18Y19655   0.357   6.907   4.950 -0.9643  0.8003 -1.0130
  162DOPC  H18Z19656   0.298   7.056   5.025 -0.0162 -0.2225  2.1254
  163DOPC     N19657   7.029   3.037   7.205 -0.2962  0.0286  0.0154
  163DOPC   C1219658   6.973   3.082   7.070 -0.2400 -0.6080  0.0505
  163DOPC  H12A19659   7.046   3.137   7.012 -1.5260  1.4025  0.2423
  163DOPC  H12B19660   6.903   3.159   7.096  0.9608  0.5944 -0.1775
  163DOPC   C1319661   7.147   2.944   7.187  0.4560 -0.2818  0.8767
  163DOPC  H13A19662   7.122   2.859   7.125  3.2827 -0.2487 -0.4753
  163DOPC  H13B19663   7.222   2.993   7.127  1.2960 -0.1607  2.0085
  163DOPC  H13C19664   7.194   2.925   7.282 -3.0561 -0.2624  2.7848
  163DOPC   C1419665   6.930   2.989   7.308 -0.3073  0.3789  0.4023
  163DOPC  H14A19666   6.966   2.994   7.410 -0.9088  0.0130  0.6426
  163DOPC  H14B19667   6.846   3.058   7.308  0.9426  2.0469 -2.4143
  163DOPC  H14C19668   6.895   2.897   7.264  0.3606  0.7606 -0.9763
  163DOPC   C1519669   7.088   3.170   7.267  0.5330  0.2081  0.3733
  163DOPC  H15A19670   7.144   3.164   7.359 -1.2268  1.4587  1.5856
  163DOPC  H15B19671   7.004   3.234   7.288  0.8525  1.4147 -1.7357
  163DOPC  H15C19672   7.160   3.208   7.196  0.6876  0.6854  0.7852
  163DOPC   C1119673   6.916   2.983   6.966 -0.0182  0.2325  0.5360
  163DOPC  H11A19674   6.871   3.037   6.880 -0.4192  0.3667  0.8257
  163DOPC  H11B19675   7.000   2.926   6.922  0.3546  0.7468  0.5730
  163DOPC     P19676   6.676   2.950   7.067 -0.6149 -0.1802 -0.1894
  163DOPC   O1319677   6.677   3.100   7.055 -0.5228 -0.3363 -0.1788
  163DOPC   O1419678   6.646   2.899   7.200 -1.1111  0.4307  0.5241
  163DOPC   O1219679   6.815   2.886   7.020 -0.3547  0.0820  0.8648
  163DOPC   O1119680   6.575   2.879   6.971 -0.1750 -0.3369  0.4300
  163DOPC    C119681   6.614   2.821   6.848 -0.9341 -0.3494 -0.2823
  163DOPC    HA19682   6.673   2.730   6.874 -1.8308 -0.3205  2.1159
  163DOPC    HB19683   6.675   2.894   6.791  0.7950 -0.0937  1.7497
  163DOPC    C219684   6.494   2.759   6.769  0.5763 -0.1004 -0.6012
  163DOPC    HS19685   6.537   2.691   6.692  1.8900 -0.2647  0.2430
  163DOPC   O2119686   6.409   2.862   6.720  0.1837 -0.0972 -0.3144
  163DOPC   C2119687   6.456   2.941   6.627  0.6623 -0.0068  0.7521
  163DOPC   O2219688   6.565   2.935   6.574 -0.2196 -0.0120 -0.4099
  163DOPC   C2219689   6.357   3.045   6.596  0.3228 -0.0635  0.0240
  163DOPC   H2R19690   6.414   3.132   6.556  3.2365 -0.8662  2.1711
  163DOPC   H2S19691   6.312   3.080   6.692  0.3245  1.5720 -0.5331
  163DOPC    C319692   6.403   2.670   6.862 -0.2456  0.5069 -0.1684
  163DOPC    HX19693   6.361   2.744   6.932 -0.4406  0.2790 -0.0444
  163DOPC    HY19694   6.461   2.593   6.916  0.0723  0.1379 -1.0087
  163DOPC   O3119695   6.306   2.586   6.792  0.0936 -0.1428  0.6069
  163DOPC   C3119696   6.173   2.628   6.795 -0.0788 -0.7617  0.4338
  163DOPC   O3219697   6.136   2.727   6.853 -0.0434 -0.0401 -0.5312
  163DOPC   C3219698   6.083   2.544   6.709 -0.5691  0.2819  0.2137
  163DOPC   H2X19699   6.118   2.438   6.711 -0.2838  0.3699  2.0357
  163DOPC   H2Y19700   5.999   2.534   6.781  0.2670  0.7655  1.2824
  163DOPC   C2319701   6.246   3.003   6.498  0.4635 -0.4764 -0.2776
  163DOPC   H3R19702   6.175   3.084   6.472 -2.0265 -2.0804  1.0992
  163DOPC   H3S19703   6.187   2.918   6.539 -1.2133  1.7537  2.2065
  163DOPC   C2419704   6.301   2.941   6.363  1.1583  0.0923  0.0634
  163DOPC   H4R19705   6.224   2.869   6.329 -0.1485  0.3641  2.2649
  163DOPC   H4S19706   6.390   2.883   6.394 -0.9822 -2.8267  1.1542
  163DOPC   C2519707   6.345   3.045   6.260  0.1812  0.0196 -0.5959
  163DOPC   H5R19708   6.439   3.099   6.285  0.3227 -0.4433 -0.1162
  163DOPC   H5S19709   6.268   3.125   6.252 -1.3450 -1.3520 -0.0916
  163DOPC   C2619710   6.370   2.987   6.120  0.2088 -0.0059  0.3851
  163DOPC   H6R19711   6.279   2.941   6.076  2.4136 -2.1299 -2.3355
  163DOPC   H6S19712   6.450   2.910   6.129 -2.4900 -2.8890  1.0910
  163DOPC   C2719713   6.415   3.105   6.032 -0.7599  0.0029  0.1957
  163DOPC   H7R19714   6.504   3.155   6.075 -0.7525 -0.2387  0.4586
  163DOPC   H7S19715   6.340   3.187   6.025  1.0118  1.7721  1.2353
  163DOPC   C2819716   6.464   3.060   5.890 -0.4213 -0.9861 -0.4945
  163DOPC   H8R19717   6.547   2.988   5.908  1.0082  0.5878 -0.5513
  163DOPC   H8S19718   6.518   3.143   5.841  0.8620 -3.0674 -2.8435
  163DOPC   C2919719   6.361   3.005   5.796  0.2075 -0.3302 -0.3181
  163DOPC   H9R19720   6.312   2.912   5.831 -1.7789  0.1618 -1.6071
  163DOPC  C21019721   6.316   3.068   5.682  0.5895  0.0195  0.1908
  163DOPC  H10R19722   6.227   3.021   5.637 -0.5214  2.3869 -0.2801
  163DOPC  C21119723   6.356   3.201   5.624  0.0548 -0.2211 -0.0748
  163DOPC  H11R19724   6.355   3.278   5.704  1.4116  1.2663 -1.4193
  163DOPC  H11S19725   6.277   3.233   5.552  0.8168 -1.1155 -1.3503
  163DOPC  C21219726   6.485   3.211   5.545  0.4615  0.0074  0.4353
  163DOPC  H12R19727   6.580   3.189   5.599 -0.6502 -0.5033  2.2814
  163DOPC  H12S19728   6.509   3.314   5.510  0.0732  0.3827  1.2643
  163DOPC  C21319729   6.472   3.113   5.423 -0.2406 -0.3898 -0.2690
  163DOPC  H13R19730   6.381   3.127   5.361 -0.6671  1.5151  0.7243
  163DOPC  H13S19731   6.463   3.006   5.453  2.0040 -0.5704 -0.0724
  163DOPC  C21419732   6.584   3.116   5.321  0.5272  0.3211 -0.2514
  163DOPC  H14R19733   6.586   3.017   5.270 -0.8501 -0.9892  2.0348
  163DOPC  H14S19734   6.682   3.144   5.366 -0.6445  1.1104  1.9639
  163DOPC  C21519735   6.556   3.222   5.211  0.5273  0.2326 -0.2481
  163DOPC  H15R19736   6.651   3.256   5.165 -1.6893  2.7594 -3.4420
  163DOPC  H15S19737   6.508   3.314   5.250 -1.6833 -1.4345  1.1724
  163DOPC  C21619738   6.479   3.173   5.092  0.1051  0.2822 -0.3768
  163DOPC  H16R19739   6.375   3.145   5.121  1.1084 -1.5283  1.8615
  163DOPC  H16S19740   6.520   3.089   5.031  0.4705  0.1542  0.0373
  163DOPC  C21719741   6.466   3.285   4.988  0.4017  0.7171 -0.2096
  163DOPC  H17R19742   6.567   3.318   4.956  0.9253 -1.7627 -1.3527
  163DOPC  H17S19743   6.404   3.359   5.043 -0.8605  0.5229 -1.3224
  163DOPC  C21819744   6.390   3.235   4.868  0.6684  1.3351  0.8395
  163DOPC  H18R19745   6.455   3.170   4.806 -2.2109 -1.5240  0.5466
  163DOPC  H18S19746   6.346   3.319   4.810  2.0011  1.9251  0.6375
  163DOPC  H18T19747   6.308   3.170   4.905  2.8286 -1.0386  1.7663
  163DOPC   C3319748   6.035   2.613   6.581  0.2804  0.7720 -0.1835
  163DOPC   H3X19749   5.998   2.717   6.600  0.3950  0.8349 -0.3000
  163DOPC   H3Y19750   5.951   2.547   6.552  1.9241 -1.7514  0.5363
  163DOPC   C3419751   6.137   2.610   6.468 -0.1290 -0.0297  0.1379
  163DOPC   H4X19752   6.179   2.508   6.454  2.2481  0.6781  1.5399
  163DOPC   H4Y19753   6.225   2.672   6.495  0.0688  0.2815 -1.1274
  163DOPC   C3519754   6.081   2.659   6.333  0.5078  0.0539  0.5731
  163DOPC   H5X19755   6.053   2.765   6.352 -1.9183 -0.6887  1.5519
  163DOPC   H5Y19756   5.984   2.609   6.312 -0.1007  0.9624  1.1154
  163DOPC   C3619757   6.167   2.637   6.207  0.2012 -0.4240 -0.5375
  163DOPC   H6X19758   6.258   2.700   6.221 -1.0481  1.5076 -0.7703
  163DOPC   H6Y19759   6.184   2.529   6.189 -0.5111 -0.6364 -0.0024
  163DOPC   C3719760   6.097   2.698   6.083 -0.4905  0.4377 -0.3392
  163DOPC   H7X19761   5.990   2.670   6.089 -1.5947  4.0621 -0.7404
  163DOPC   H7Y19762   6.107   2.809   6.089  1.3523  0.3545 -0.9869
  163DOPC   C3819763   6.155   2.641   5.957  0.1253  0.0833  0.3067
  163DOPC   H8X19764   6.120   2.536   5.968 -0.1797  0.1309 -0.1625
  163DOPC   H8Y19765   6.266   2.642   5.957  0.2121 -0.5560 -2.8295
  163DOPC   C3919766   6.112   2.705   5.830  0.1888  0.2371  0.2461
  163DOPC   H9X19767   6.125   2.815   5.832  0.7638  0.1640  1.0151
  163DOPC  C31019768   6.045   2.647   5.728 -0.9068 -0.6259 -0.4041
  163DOPC  H10X19769   6.037   2.714   5.641  0.9719 -0.0805 -0.2139
  163DOPC  C31119770   6.004   2.505   5.696  0.0981 -0.3208 -0.5567
  163DOPC  H11X19771   5.894   2.490   5.686  0.3445 -1.2352 -2.5842
  163DOPC  H11Y19772   6.039   2.438   5.777  0.8158  0.7254  0.0153
  163DOPC  C31219773   6.072   2.438   5.575  1.0761  0.2446  0.5941
  163DOPC  H12X19774   6.054   2.329   5.570  1.3935  0.2089  0.2055
  163DOPC  H12Y19775   6.181   2.457   5.584  0.8972  0.6705  2.0542
  163DOPC  C31319776   6.007   2.493   5.442 -0.0836  0.4037  0.0113
  163DOPC  H13X19777   5.901   2.459   5.440  0.4849 -1.4466  0.1470
  163DOPC  H13Y19778   6.007   2.604   5.436 -0.6995  0.4224  0.2634
  163DOPC  C31419779   6.089   2.438   5.325 -0.1966  0.6964  0.0293
  163DOPC  H14X19780   6.194   2.470   5.338  0.9785 -2.9987  0.8500
  163DOPC  H14Y19781   6.099   2.327   5.323  0.7513  0.7739 -0.2519
  163DOPC  C31519782   6.037   2.487   5.189  0.6968  0.4020  0.3550
  163DOPC  H15X19783   6.118   2.469   5.115  1.1205  1.9101  0.4197
  163DOPC  H15Y19784   6.007   2.594   5.187 -0.0179  0.2018 -0.0366
  163DOPC  C31619785   5.914   2.407   5.134 -0.0570  0.6067 -0.5615
  163DOPC  H16X19786   5.933   2.298   5.139  1.7951  0.9418  0.8478
  163DOPC  H16Y19787   5.828   2.418   5.203 -1.1307 -0.9907 -1.5615
  163DOPC  C31719788   5.867   2.440   4.992  0.1746 -0.2365  0.6054
  163DOPC  H17X19789   5.947   2.415   4.919 -1.1285  0.3645 -1.0916
  163DOPC  H17Y19790   5.783   2.376   4.959 -0.2663  0.5582  0.1471
  163DOPC  C31819791   5.817   2.581   4.954  0.2025  0.2884 -0.1338
  163DOPC  H18X19792   5.762   2.620   5.042 -1.9674 -1.2370 -0.7309
  163DOPC  H18Y19793   5.899   2.648   4.920 -1.9897  1.6770 -3.0928
  163DOPC  H18Z19794   5.749   2.584   4.866 -0.6726  1.2802  0.5497
  164DOPC     N19795   2.256   0.951   6.937  0.2277 -0.3348 -0.2185
  164DOPC   C1219796   2.373   0.880   7.005  1.0813  0.6941  0.5839
  164DOPC  H12A19797   2.349   0.774   7.004 -0.5790  1.0351 -0.8384
  164DOPC  H12B19798   2.390   0.913   7.107  1.7916  1.5090  0.2085
  164DOPC   C1319799   2.249   0.915   6.795 -0.3734 -0.0211 -0.1183
  164DOPC  H13A19800   2.333   0.950   6.737 -0.9697 -2.5055 -2.6656
  164DOPC  H13B19801   2.260   0.809   6.780  2.1256  0.1332  0.2606
  164DOPC  H13C19802   2.161   0.959   6.751 -0.4444  0.9597  0.9538
  164DOPC   C1419803   2.281   1.094   6.939 -0.3160 -0.1572  0.5670
  164DOPC  H14A19804   2.379   1.101   6.893 -0.4547 -0.6393  0.1887
  164DOPC  H14B19805   2.206   1.146   6.881 -1.3265 -0.1373  1.8422
  164DOPC  H14C19806   2.277   1.137   7.038 -1.3329  0.0470  0.4443
  164DOPC   C1519807   2.128   0.914   7.005 -0.0844 -0.1299 -0.2308
  164DOPC  H15A19808   2.038   0.954   6.961  0.4195  0.2592 -0.9119
  164DOPC  H15B19809   2.132   0.945   7.109  0.0599  0.1262 -0.3122
  164DOPC  H15C19810   2.112   0.807   6.998 -3.1441  0.0634  1.7744
  164DOPC   C1119811   2.513   0.881   6.930 -0.1710  0.0364  0.7307
  164DOPC  H11A19812   2.582   0.842   7.008  0.0089  0.3646  0.7375
  164DOPC  H11B19813   2.518   0.816   6.840  0.9236 -1.8041  2.0532
  164DOPC     P19814   2.684   1.067   6.840  0.1082 -0.0674 -0.1803
  164DOPC   O1319815   2.783   1.044   6.944 -0.1888 -0.8205  0.1660
  164DOPC   O1419816   2.672   1.208   6.797 -0.6404 -0.2583 -0.1481
  164DOPC   O1219817   2.550   1.014   6.897 -0.6808 -0.0026  0.3546
  164DOPC   O1119818   2.715   0.975   6.722  0.3052 -0.2970  0.2379
  164DOPC    C119819   2.851   0.967   6.673  0.0832 -0.0845 -0.5918
  164DOPC    HA19820   2.846   0.917   6.574  1.8514  0.0474 -0.7721
  164DOPC    HB19821   2.902   0.899   6.745 -0.8157  0.8695  1.0291
  164DOPC    C219822   2.939   1.094   6.658 -0.0363  0.2577  0.4176
  164DOPC    HS19823   2.953   1.157   6.748 -0.7311  1.3072 -0.1923
  164DOPC   O2119824   2.869   1.181   6.567 -0.3727  0.4062  0.9534
  164DOPC   C2119825   2.919   1.300   6.545  0.1091 -0.0602 -0.6358
  164DOPC   O2219826   3.020   1.347   6.597  0.9406  0.3406 -0.6636
  164DOPC   C2219827   2.831   1.376   6.452 -0.7739  0.3127  0.4616
  164DOPC   H2R19828   2.824   1.481   6.489  3.3361  0.6226  0.8128
  164DOPC   H2S19829   2.729   1.334   6.446 -0.7773  0.4075 -0.2634
  164DOPC    C319830   3.076   1.058   6.594  0.1155  0.1552  0.5912
  164DOPC    HX19831   3.124   0.976   6.651  1.1066  0.3589  0.0755
  164DOPC    HY19832   3.150   1.139   6.613 -0.5190  1.1388 -0.9233
  164DOPC   O3119833   3.066   1.041   6.452  0.4022 -0.0286 -0.6928
  164DOPC   C3119834   3.085   0.913   6.411  0.3174  0.0626 -0.7373
  164DOPC   O3219835   3.118   0.815   6.475  0.4188 -0.3183  0.0098
  164DOPC   C3219836   3.037   0.920   6.265  0.1561  0.0689 -0.8586
  164DOPC   H2X19837   2.931   0.952   6.267 -0.7127 -2.4841 -2.1881
  164DOPC   H2Y19838   3.101   0.995   6.214  3.0309  0.0414  2.3450
  164DOPC   C2319839   2.894   1.395   6.312 -0.6502  0.4614 -0.6234
  164DOPC   H3R19840   3.000   1.424   6.322 -0.2335 -0.9814 -0.6731
  164DOPC   H3S19841   2.849   1.482   6.258  2.3181  3.3966  1.2416
  164DOPC   C2419842   2.879   1.276   6.217 -0.5516  0.9939  0.1781
  164DOPC   H4R19843   2.780   1.276   6.166 -0.3763 -0.0377 -0.1797
  164DOPC   H4S19844   2.880   1.186   6.281  1.5519 -2.3012 -3.9389
  164DOPC   C2519845   3.000   1.270   6.121 -0.2855 -0.2830  1.0248
  164DOPC   H5R19846   3.082   1.209   6.165 -0.0298 -0.3319  0.4885
  164DOPC   H5S19847   3.035   1.374   6.102 -1.6114 -0.1724 -1.1193
  164DOPC   C2619848   2.961   1.205   5.983  0.2808 -0.1273 -0.4433
  164DOPC   H6R19849   2.893   1.120   6.003 -0.1854  0.2480 -0.4243
  164DOPC   H6S19850   3.050   1.163   5.931 -0.0381 -0.4694 -0.7211
  164DOPC   C2719851   2.895   1.298   5.894  0.6954 -0.6119 -0.0323
  164DOPC   H7R19852   2.959   1.387   5.876 -0.8317  0.6101  0.3548
  164DOPC   H7S19853   2.806   1.352   5.931  1.0535 -0.4757  0.6653
  164DOPC   C2819854   2.856   1.251   5.754  0.8679  0.3533  0.7720
  164DOPC   H8R19855   2.773   1.178   5.762  0.6412  0.4039 -0.7914
  164DOPC   H8S19856   2.937   1.202   5.695  1.0782  1.0256  0.4908
  164DOPC   C2919857   2.799   1.368   5.672 -0.1392  0.8287  0.2013
  164DOPC   H9R19858   2.689   1.375   5.670 -0.2916 -0.8579  1.1055
  164DOPC  C21019859   2.876   1.447   5.597 -0.8422 -0.0566 -0.1111
  164DOPC  H10R19860   2.834   1.533   5.541 -0.9380  0.6762  1.0500
  164DOPC  C21119861   3.025   1.437   5.588 -0.0678  0.4768  0.2909
  164DOPC  H11R19862   3.069   1.384   5.675  0.4382  2.1845  1.1106
  164DOPC  H11S19863   3.066   1.538   5.610  0.5030  0.2978  0.0724
  164DOPC  C21219864   3.073   1.363   5.464  0.5427 -1.2123  0.0805
  164DOPC  H12R19865   3.015   1.271   5.441  2.2640 -2.5138  0.7786
  164DOPC  H12S19866   3.174   1.327   5.493  1.8037  1.4830 -0.6511
  164DOPC  C21319867   3.078   1.447   5.342  0.3186  0.2138  0.1139
  164DOPC  H13R19868   3.124   1.548   5.354  2.3706 -0.5159 -1.0659
  164DOPC  H13S19869   2.971   1.470   5.320  0.1605  0.4711  1.0978
  164DOPC  C21419870   3.145   1.382   5.218  0.5890 -0.4478  0.1882
  164DOPC  H14R19871   3.116   1.276   5.205  0.4220 -0.2087 -1.7432
  164DOPC  H14S19872   3.251   1.384   5.249  0.6024 -0.4179  0.1396
  164DOPC  C21519873   3.134   1.467   5.087 -0.6996  0.2544  0.3151
  164DOPC  H15R19874   3.221   1.440   5.024  0.3665  0.1434  1.7663
  164DOPC  H15S19875   3.157   1.574   5.105  2.8266 -0.2813 -0.2690
  164DOPC  C21619876   2.992   1.467   5.011 -0.5525  0.7989  0.3879
  164DOPC  H16R19877   2.999   1.555   4.944  1.3616 -0.5528 -1.3095
  164DOPC  H16S19878   2.905   1.480   5.078 -1.3811 -1.7632 -0.0711
  164DOPC  C21719879   2.941   1.341   4.930 -0.6677 -0.0655 -0.4142
  164DOPC  H17R19880   2.863   1.370   4.856 -0.0870  1.0187 -0.6285
  164DOPC  H17S19881   2.901   1.265   5.000 -0.5025  0.4792  0.2770
  164DOPC  C21819882   3.058   1.277   4.851 -0.6136  0.3368  0.1561
  164DOPC  H18R19883   3.132   1.237   4.924 -0.3322 -1.8741 -1.2557
  164DOPC  H18S19884   3.118   1.353   4.795 -0.9193  0.5868  0.1652
  164DOPC  H18T19885   3.024   1.196   4.784 -0.3571  0.0237  0.3982
  164DOPC   C3319886   3.036   0.775   6.200  0.0401 -0.2792 -0.8183
  164DOPC   H3X19887   2.980   0.706   6.267  1.7098 -0.0726  0.8665
  164DOPC   H3Y19888   3.144   0.750   6.198 -0.0130 -0.4897 -1.3541
  164DOPC   C3419889   2.977   0.776   6.059  0.5882 -0.1316  0.2749
  164DOPC   H4X19890   2.874   0.819   6.065 -0.0840 -1.7152  0.5747
  164DOPC   H4Y19891   2.968   0.671   6.026 -2.3814  0.6148 -1.7539
  164DOPC   C3519892   3.074   0.861   5.969 -0.3632  0.1548 -0.3669
  164DOPC   H5X19893   3.173   0.810   5.978 -1.2575 -1.2197  3.5580
  164DOPC   H5Y19894   3.089   0.964   6.007 -1.3278 -0.0280  0.5439
  164DOPC   C3619895   3.039   0.874   5.823  0.2371  0.7203 -0.6712
  164DOPC   H6X19896   2.960   0.800   5.801  0.9009 -0.0156 -0.6104
  164DOPC   H6Y19897   2.988   0.972   5.806  0.6130  0.9734 -0.3735
  164DOPC   C3719898   3.160   0.848   5.732 -0.4931 -0.6092  0.4137
  164DOPC   H7X19899   3.248   0.899   5.776  0.2392 -0.2172 -1.4060
  164DOPC   H7Y19900   3.190   0.741   5.740  1.0034 -0.2333  0.2307
  164DOPC   C3819901   3.137   0.897   5.589 -0.1922  0.0017  0.5932
  164DOPC   H8X19902   3.238   0.901   5.542 -0.1338 -0.7961  0.6221
  164DOPC   H8Y19903   3.100   1.001   5.588 -0.7446 -0.1900  0.7821
  164DOPC   C3919904   3.041   0.812   5.509 -0.0105  0.5281 -0.0007
  164DOPC   H9X19905   3.069   0.708   5.487 -0.3056  0.2405  0.9286
  164DOPC  C31019906   2.908   0.835   5.484  0.2546 -0.1282 -0.2130
  164DOPC  H10X19907   2.855   0.755   5.429 -2.6763  0.9799  0.8307
  164DOPC  C31119908   2.826   0.961   5.489 -0.9118  0.7614 -0.4544
  164DOPC  H11X19909   2.869   1.035   5.560 -0.3032 -0.4451  0.4871
  164DOPC  H11Y19910   2.727   0.936   5.532  0.3984  0.0248  2.4131
  164DOPC  C31219911   2.818   1.025   5.347 -0.5921 -0.2097 -0.0584
  164DOPC  H12X19912   2.916   1.034   5.297  0.0813  2.8261  1.5723
  164DOPC  H12Y19913   2.782   1.130   5.344  1.4154  0.5739  1.3973
  164DOPC  C31319914   2.727   0.950   5.252  1.2183  0.8083 -0.0730
  164DOPC  H13X19915   2.765   0.850   5.224 -1.8461  0.0715 -2.1942
  164DOPC  H13Y19916   2.624   0.936   5.290  1.5326  1.8817  1.2265
  164DOPC  C31419917   2.714   1.024   5.118  0.2172 -0.0579 -0.2747
  164DOPC  H14X19918   2.814   1.027   5.069  0.2121 -2.1722 -0.4995
  164DOPC  H14Y19919   2.682   1.129   5.131  1.2171  0.0115  2.1229
  164DOPC  C31519920   2.612   0.954   5.031  0.0431  0.2941 -0.0527
  164DOPC  H15X19921   2.523   0.927   5.092 -1.6082 -0.6233 -2.6671
  164DOPC  H15Y19922   2.660   0.866   4.984 -1.0359 -1.2949  1.6587
  164DOPC  C31619923   2.554   1.038   4.922  0.6233 -0.3285 -0.5891
  164DOPC  H16X19924   2.505   1.132   4.955 -2.8284 -1.3348 -2.3726
  164DOPC  H16Y19925   2.639   1.058   4.852  0.8363  1.7548  0.1973
  164DOPC  C31719926   2.440   0.972   4.839  0.6351 -0.4639 -0.2283
  164DOPC  H17X19927   2.489   0.882   4.798  0.6744  0.2232 -1.7482
  164DOPC  H17Y19928   2.354   0.957   4.909  0.1959  2.6263  0.0641
  164DOPC  C31819929   2.385   1.059   4.727 -0.2096 -0.3827 -0.4345
  164DOPC  H18X19930   2.365   1.165   4.755  0.4081 -0.1052 -1.0320
  164DOPC  H18Y19931   2.456   1.041   4.645 -0.4969 -4.3025  0.0006
  164DOPC  H18Z19932   2.288   1.019   4.691 -0.9457  1.2358 -0.3667
  165DOPC     N19933   6.122   0.385   7.493  0.0521 -0.4467 -0.5126
  165DOPC   C1219934   6.165   0.310   7.371 -0.7080 -0.5638 -0.2430
  165DOPC  H12A19935   6.101   0.337   7.288  1.0859 -0.5433 -1.7050
  165DOPC  H12B19936   6.158   0.204   7.390  1.3803 -0.5388  1.0350
  165DOPC   C1319937   6.214   0.373   7.607  0.0013  0.0246 -0.1495
  165DOPC  H13A19938   6.310   0.420   7.593  0.5178 -1.2726 -1.1561
  165DOPC  H13B19939   6.175   0.432   7.688 -0.3134 -0.8830  0.3715
  165DOPC  H13C19940   6.222   0.270   7.639 -0.6094 -0.0176 -0.1206
  165DOPC   C1419941   5.984   0.340   7.534 -0.3602  0.2506 -0.0472
  165DOPC  H14A19942   5.984   0.233   7.542 -2.2776  0.1793 -0.5318
  165DOPC  H14B19943   5.948   0.389   7.624 -0.2306 -1.1356  0.7853
  165DOPC  H14C19944   5.918   0.362   7.451  1.7827  1.1724 -1.5863
  165DOPC   C1519945   6.113   0.527   7.450  0.0643  0.1577 -0.3911
  165DOPC  H15A19946   6.207   0.560   7.408  0.9773  1.0655  2.1625
  165DOPC  H15B19947   6.087   0.595   7.530 -3.3208  0.6465 -1.7433
  165DOPC  H15C19948   6.032   0.534   7.379 -2.6205 -0.8071  2.3212
  165DOPC   C1119949   6.304   0.345   7.311  0.3204 -0.0769  0.2162
  165DOPC  H11A19950   6.375   0.325   7.394 -0.2468  0.1363  0.7552
  165DOPC  H11B19951   6.343   0.274   7.235  0.7455 -0.0897  0.4384
  165DOPC     P19952   6.310   0.515   7.109 -0.1404 -0.3258 -0.0006
  165DOPC   O1319953   6.449   0.508   7.063 -0.2735  0.1562 -0.7424
  165DOPC   O1419954   6.235   0.642   7.095  0.0185 -0.3862  0.1744
  165DOPC   O1219955   6.313   0.476   7.258  0.3421  0.3038 -0.0741
  165DOPC   O1119956   6.231   0.401   7.044  0.3012 -0.0449 -0.0217
  165DOPC    C119957   6.293   0.315   6.948 -0.7825 -0.1872  1.0768
  165DOPC    HA19958   6.240   0.219   6.936 -0.9858 -0.0123  0.5509
  165DOPC    HB19959   6.394   0.279   6.979  0.4745 -1.3225 -3.5363
  165DOPC    C219960   6.319   0.386   6.807  0.4227  1.1088  0.0715
  165DOPC    HS19961   6.397   0.464   6.823 -0.1851  1.7560 -0.0911
  165DOPC   O2119962   6.191   0.430   6.750 -0.0081  0.4432 -0.2748
  165DOPC   C2119963   6.176   0.558   6.733 -0.0859 -0.2610  0.2677
  165DOPC   O2219964   6.265   0.643   6.743  0.3509  0.3847 -0.3039
  165DOPC   C2219965   6.042   0.571   6.660 -0.4343 -0.0440  0.3464
  165DOPC   H2R19966   5.972   0.640   6.713 -1.4107 -0.7417  0.0032
  165DOPC   H2S19967   5.991   0.473   6.649 -0.5891  0.1661 -0.9657
  165DOPC    C319968   6.392   0.293   6.706 -0.2157 -0.2675  0.5297
  165DOPC    HX19969   6.334   0.206   6.668  0.4161 -1.0016  1.1935
  165DOPC    HY19970   6.474   0.246   6.765 -1.7500 -3.2999  0.4244
  165DOPC   O3119971   6.442   0.375   6.604 -0.3002  0.1679  0.0684
  165DOPC   C3119972   6.565   0.429   6.618  0.5389  0.7028  0.2588
  165DOPC   O3219973   6.635   0.416   6.714  0.3487 -0.4839  0.1053
  165DOPC   C3219974   6.600   0.492   6.483  0.2886  0.1828 -0.9162
  165DOPC   H2X19975   6.622   0.405   6.418 -2.4299 -1.5112  0.2621
  165DOPC   H2Y19976   6.516   0.550   6.439  1.3944  2.0282 -0.6988
  165DOPC   C2319977   6.045   0.639   6.520  0.0940 -0.0689 -0.0604
  165DOPC   H3R19978   6.107   0.729   6.539  0.4279 -0.2366 -0.3430
  165DOPC   H3S19979   5.942   0.676   6.498  0.5501  1.5125  0.3494
  165DOPC   C2419980   6.095   0.552   6.403  0.4668 -0.2318 -0.7399
  165DOPC   H4R19981   6.049   0.453   6.424  1.7853 -0.8092 -0.4433
  165DOPC   H4S19982   6.206   0.542   6.397  0.3344 -1.9653 -0.9272
  165DOPC   C2519983   6.040   0.606   6.274  0.2676  0.4421  0.1052
  165DOPC   H5R19984   6.052   0.717   6.270 -1.2440  0.5867 -2.5654
  165DOPC   H5S19985   5.930   0.594   6.265  0.3868 -0.3391 -0.3158
  165DOPC   C2619986   6.111   0.539   6.153 -0.0281 -0.3358  0.8056
  165DOPC   H6R19987   6.083   0.431   6.159 -0.5596 -0.2857 -0.4995
  165DOPC   H6S19988   6.218   0.551   6.182  0.5106  0.4713 -1.3497
  165DOPC   C2719989   6.077   0.603   6.019 -0.7710  1.0113  0.0901
  165DOPC   H7R19990   6.124   0.704   6.022  2.0050 -0.1812  0.1778
  165DOPC   H7S19991   5.966   0.611   6.017 -0.8064  0.6223 -2.0406
  165DOPC   C2819992   6.136   0.522   5.899 -0.1697 -1.2810  0.4200
  165DOPC   H8R19993   6.152   0.415   5.926  0.5239 -1.5035 -0.7579
  165DOPC   H8S19994   6.235   0.567   5.874  0.1000 -0.5665  2.6249
  165DOPC   C2919995   6.046   0.522   5.779 -0.2217  0.2630  0.6772
  165DOPC   H9R19996   5.938   0.534   5.797 -0.5685 -0.8829 -0.5276
  165DOPC  C21019997   6.100   0.515   5.655 -0.4130  0.8085  0.3325
  165DOPC  H10R19998   6.026   0.516   5.574 -0.4199 -1.3175  0.2673
  165DOPC  C21119999   6.249   0.508   5.619  0.5564  0.7193  0.1536
  165DOPC  H11R20000   6.317   0.464   5.696  1.2363  1.7285  0.1497
  165DOPC  H11S20001   6.282   0.614   5.617  2.2836  0.2007 -0.6290
  165DOPC  C21220002   6.278   0.438   5.482 -1.2612  1.0814  0.0367
  165DOPC  H12R20003   6.225   0.341   5.468  0.7228 -0.0016 -0.4410
  165DOPC  H12S20004   6.387   0.421   5.495 -1.1105 -0.9588 -2.9323
  165DOPC  C21320005   6.264   0.530   5.358 -0.4896 -0.1586 -0.1844
  165DOPC  H13R20006   6.302   0.631   5.383 -0.8801  0.6844 -2.6720
  165DOPC  H13S20007   6.160   0.546   5.322  0.2552  1.6886 -1.7076
  165DOPC  C21420008   6.352   0.469   5.240 -0.1955  0.0621 -0.0901
  165DOPC  H14R20009   6.306   0.375   5.203  0.5545  0.1971 -1.4333
  165DOPC  H14S20010   6.450   0.449   5.288 -1.9385 -0.4508  3.6158
  165DOPC  C21520011   6.358   0.572   5.126  0.1704  0.1770  0.6142
  165DOPC  H15R20012   6.379   0.671   5.172  2.2689 -0.6974  1.6175
  165DOPC  H15S20013   6.258   0.580   5.078  0.9443 -0.0832 -1.1238
  165DOPC  C21620014   6.466   0.531   5.020  0.6043  0.2365  0.3411
  165DOPC  H16R20015   6.470   0.425   4.988 -1.8632  0.4203 -0.7929
  165DOPC  H16S20016   6.569   0.547   5.059  0.5396 -1.1470  1.1695
  165DOPC  C21720017   6.437   0.621   4.894 -0.1810 -0.4800 -0.4497
  165DOPC  H17R20018   6.437   0.726   4.929  0.3304 -0.3394 -0.8799
  165DOPC  H17S20019   6.334   0.593   4.863 -0.3971  0.0226 -0.1946
  165DOPC  C21820020   6.540   0.617   4.784  0.9447 -0.0394 -0.2656
  165DOPC  H18R20021   6.634   0.675   4.798  0.1932  1.5794 -1.5114
  165DOPC  H18S20022   6.487   0.648   4.691 -1.8958 -1.3877  0.7644
  165DOPC  H18T20023   6.563   0.509   4.773  2.6518  0.3371 -0.6855
  165DOPC   C3320024   6.720   0.585   6.497 -0.3930  0.1676  0.4496
  165DOPC   H3X20025   6.814   0.528   6.514 -0.3843  0.0586  0.0368
  165DOPC   H3Y20026   6.695   0.657   6.578 -1.2792  0.1240  0.2242
  165DOPC   C3420027   6.762   0.663   6.368 -0.5630  0.3179  0.3530
  165DOPC   H4X20028   6.696   0.748   6.342 -1.7951 -1.0426 -1.1753
  165DOPC   H4Y20029   6.764   0.588   6.285 -0.2491  1.6644 -0.8871
  165DOPC   C3520030   6.911   0.718   6.369  0.2805  0.4954 -0.1349
  165DOPC   H5X20031   6.935   0.769   6.465  0.0385 -0.0490  0.2233
  165DOPC   H5Y20032   6.912   0.803   6.297  1.3385  0.8695  0.2926
  165DOPC   C3620033   7.025   0.614   6.328  0.6297 -0.5144  0.0632
  165DOPC   H6X20034   7.120   0.667   6.349  1.5538 -2.0164 -0.1285
  165DOPC   H6Y20035   7.017   0.519   6.386 -0.9919 -1.2929 -1.3419
  165DOPC   C3720036   7.030   0.577   6.183  0.7644  0.9554  0.6567
  165DOPC   H7X20037   7.011   0.672   6.129 -1.2530  0.3943  0.2842
  165DOPC   H7Y20038   6.938   0.523   6.153  1.6208 -0.5323  0.5760
  165DOPC   C3820039   7.169   0.520   6.147 -0.4168  0.5206 -0.1019
  165DOPC   H8X20040   7.246   0.592   6.181 -0.6379 -0.0919  1.8084
  165DOPC   H8Y20041   7.180   0.512   6.037 -0.3085  0.8177 -0.1128
  165DOPC   C3920042   7.191   0.376   6.188  0.7241 -0.2753 -0.4179
  165DOPC   H9X20043   7.253   0.364   6.278  1.6589  2.1484 -0.6595
  165DOPC  C31020044   7.126   0.273   6.131  0.9369 -0.1153 -0.9293
  165DOPC  H10X20045   7.139   0.172   6.172  0.9501 -0.4603 -1.7715
  165DOPC  C31120046   7.035   0.270   6.009  0.3271 -0.5161 -0.4810
  165DOPC  H11X20047   7.041   0.361   5.946 -2.8095  2.0617  2.5020
  165DOPC  H11Y20048   6.926   0.264   6.034  0.7270 -1.0553  1.2808
  165DOPC  C31220049   7.055   0.146   5.920 -0.4276  0.5205  0.3836
  165DOPC  H12X20050   7.021   0.052   5.969 -1.6288 -0.1917 -1.6740
  165DOPC  H12Y20051   7.164   0.123   5.913 -0.4142  0.4674  0.7741
  165DOPC  C31320052   6.989   0.144   5.788 -0.8561 -0.0170 -0.2346
  165DOPC  H13X20053   6.887   0.185   5.805  0.7815  4.7907 -0.4966
  165DOPC  H13Y20054   7.042   0.210   5.716 -0.7221 -1.1602 -1.2224
  165DOPC  C31420055   6.965   0.007   5.726  0.5877  0.3246  0.5078
  165DOPC  H14X20056   7.061  -0.047   5.711  0.6358  0.7395 -0.7602
  165DOPC  H14Y20057   6.910  -0.064   5.792  0.8863 -1.0287 -0.6419
  165DOPC  C31520058   6.892   0.021   5.592  0.4130  0.3278 -0.1650
  165DOPC  H15X20059   6.953   0.079   5.519  0.6281 -1.7848 -1.7493
  165DOPC  H15Y20060   6.800   0.081   5.609 -2.9260 -4.2861 -0.3529
  165DOPC  C31620061   6.860  -0.116   5.526 -0.5107 -0.9123  0.2755
  165DOPC  H16X20062   6.802  -0.188   5.588  0.0794  0.3241  2.3611
  165DOPC  H16Y20063   6.794  -0.088   5.441 -0.8184 -1.0635  0.4620
  165DOPC  C31720064   6.988  -0.186   5.483 -0.7539 -0.5061  0.3731
  165DOPC  H17X20065   7.048  -0.209   5.574 -1.2638 -2.4842  0.2420
  165DOPC  H17Y20066   6.964  -0.289   5.451  1.0481 -1.0231  0.5506
  165DOPC  C31820067   7.090  -0.112   5.387  0.3625  0.0436 -0.2781
  165DOPC  H18X20068   7.036  -0.065   5.303  0.1121 -1.4619 -0.9946
  165DOPC  H18Y20069   7.151  -0.032   5.434  0.8022  0.4552 -1.5205
  165DOPC  H18Z20070   7.159  -0.187   5.343  1.6103 -0.2849  2.0602
  166DOPC     N20071   5.748   1.892   7.392 -0.2725 -0.3951 -0.3129
  166DOPC   C1220072   5.679   1.858   7.261  1.1533  0.4583  0.0531
  166DOPC  H12A20073   5.633   1.761   7.271  0.1823  0.9049  0.0065
  166DOPC  H12B20074   5.753   1.844   7.183 -0.3749 -0.0100 -1.3604
  166DOPC   C1320075   5.830   1.769   7.431 -0.4159  0.2820  0.3463
  166DOPC  H13A20076   5.871   1.784   7.530 -0.5969 -1.4569  0.7245
  166DOPC  H13B20077   5.758   1.689   7.439 -1.5845  1.1566 -0.9555
  166DOPC  H13C20078   5.890   1.736   7.348  0.5211  0.0163  1.1078
  166DOPC   C1420079   5.646   1.921   7.499 -0.0716  0.5411  0.2035
  166DOPC  H14A20080   5.576   1.841   7.518 -1.2590  1.0913 -1.6194
  166DOPC  H14B20081   5.690   1.942   7.596  1.3733  0.2053 -0.3566
  166DOPC  H14C20082   5.590   2.005   7.460  1.1558  0.2284 -2.4373
  166DOPC   C1520083   5.838   2.009   7.380  0.7662  0.2712  0.4085
  166DOPC  H15A20084   5.911   2.011   7.458  1.4607 -0.9926 -0.1879
  166DOPC  H15B20085   5.782   2.102   7.372 -2.0665 -1.4489 -3.3280
  166DOPC  H15C20086   5.895   1.999   7.289  1.4657  1.6434  0.6629
  166DOPC   C1120087   5.567   1.956   7.206  0.8545 -0.4030 -0.2035
  166DOPC  H11A20088   5.528   1.911   7.112  0.0195 -0.0218 -0.0500
  166DOPC  H11B20089   5.478   1.971   7.271  1.3738  0.0642  0.4072
  166DOPC     P20090   5.716   2.117   7.066 -0.3089  0.5065  0.0699
  166DOPC   O1320091   5.825   2.017   7.082  0.3837 -0.1827  0.0956
  166DOPC   O1420092   5.762   2.260   7.070  0.2119  0.0503  0.6382
  166DOPC   O1220093   5.603   2.096   7.176  0.0088  0.5374  0.7049
  166DOPC   O1120094   5.635   2.095   6.936 -0.1052 -0.7975 -0.0143
  166DOPC    C120095   5.667   1.976   6.855 -0.3278 -0.2923  0.3734
  166DOPC    HA20096   5.582   1.957   6.786 -0.4236 -0.3609  0.5111
  166DOPC    HB20097   5.684   1.880   6.909  1.2667 -0.0443  0.3760
  166DOPC    C220098   5.784   1.992   6.759 -0.6256 -0.0631 -0.3580
  166DOPC    HS20099   5.862   2.041   6.820 -0.4229  0.9321 -1.3781
  166DOPC   O2120100   5.747   2.084   6.655 -0.2517 -0.1246 -0.5673
  166DOPC   C2120101   5.844   2.165   6.623  0.0375 -0.0018  0.2756
  166DOPC   O2220102   5.957   2.162   6.669  0.5756  0.5503  0.2354
  166DOPC   C2220103   5.791   2.278   6.533 -0.1629 -0.3643  0.1682
  166DOPC   H2R20104   5.797   2.367   6.599 -0.1169 -2.0554  2.5579
  166DOPC   H2S20105   5.687   2.249   6.510 -0.9760  0.9968  1.9022
  166DOPC    C320106   5.847   1.862   6.696  0.3583  0.1008 -0.1471
  166DOPC    HX20107   5.779   1.806   6.629  0.7016  1.2225 -1.4733
  166DOPC    HY20108   5.866   1.802   6.788  3.0623  1.4779  0.3077
  166DOPC   O3120109   5.973   1.887   6.632 -0.3177  0.0243 -0.4931
  166DOPC   C3120110   5.976   1.863   6.502 -0.2444 -0.0236  0.8444
  166DOPC   O3220111   5.878   1.854   6.429 -0.4362 -0.2308  0.1279
  166DOPC   C3220112   6.127   1.856   6.458 -0.5894 -0.1913  0.3711
  166DOPC   H2X20113   6.182   1.829   6.551  0.0556  2.3780  0.8248
  166DOPC   H2Y20114   6.142   1.772   6.386 -0.1797 -1.0806  1.4586
  166DOPC   C2320115   5.891   2.292   6.415 -0.1911 -0.0358 -0.0409
  166DOPC   H3R20116   5.994   2.286   6.454 -0.5405  1.1453  1.1598
  166DOPC   H3S20117   5.883   2.397   6.378  0.6694  0.2984  0.6804
  166DOPC   C2420118   5.862   2.197   6.303 -0.3121  0.0137 -0.7170
  166DOPC   H4R20119   5.751   2.202   6.291 -0.3100 -0.2917 -0.8691
  166DOPC   H4S20120   5.872   2.095   6.345  0.1271  0.7214  0.9533
  166DOPC   C2520121   5.942   2.213   6.177  0.2330 -0.1438 -0.1470
  166DOPC   H5R20122   6.050   2.229   6.198  0.1011 -1.5501  1.9138
  166DOPC   H5S20123   5.902   2.299   6.121  0.3502 -0.8622 -1.3788
  166DOPC   C2620124   5.924   2.100   6.075  0.2438  0.4175 -0.1047
  166DOPC   H6R20125   5.948   2.004   6.126 -1.1976 -0.1486 -0.4283
  166DOPC   H6S20126   6.016   2.113   6.014  1.4210  0.5959  1.6455
  166DOPC   C2720127   5.790   2.096   5.997  0.2423 -0.0074  0.6231
  166DOPC   H7R20128   5.739   2.192   6.020 -0.5499 -0.2871  0.1094
  166DOPC   H7S20129   5.727   2.009   6.027 -0.9406 -0.0686 -1.7595
  166DOPC   C2820130   5.811   2.082   5.847  0.4360  0.1975  0.0399
  166DOPC   H8R20131   5.900   2.143   5.822 -0.5659  1.4528 -0.5911
  166DOPC   H8S20132   5.725   2.127   5.792 -0.9128 -2.1673  0.0290
  166DOPC   C2920133   5.840   1.945   5.791  0.4618 -0.4151 -0.2148
  166DOPC   H9R20134   5.919   1.900   5.853 -0.4735  1.7629  2.7687
  166DOPC  C21020135   5.821   1.898   5.673 -0.7862 -0.2846  0.5393
  166DOPC  H10R20136   5.847   1.796   5.642  1.4567  0.2404  0.5563
  166DOPC  C21120137   5.746   1.960   5.556  0.3915 -0.0088  0.4402
  166DOPC  H11R20138   5.653   2.007   5.594  0.6608 -0.5330  1.7966
  166DOPC  H11S20139   5.704   1.874   5.500 -3.5563 -0.0366  3.0673
  166DOPC  C21220140   5.821   2.061   5.468 -0.1531  0.2233  0.0713
  166DOPC  H12R20141   5.913   2.007   5.435 -0.0582 -0.5200  1.5021
  166DOPC  H12S20142   5.856   2.150   5.524 -1.9565 -0.3512  2.2368
  166DOPC  C21320143   5.739   2.091   5.339  0.2783 -0.5126 -0.8036
  166DOPC  H13R20144   5.678   2.004   5.307 -0.6028 -1.8539  3.7027
  166DOPC  H13S20145   5.808   2.138   5.266  1.7308  0.1992  0.9480
  166DOPC  C21420146   5.632   2.199   5.370 -0.2532  0.2815  0.5663
  166DOPC  H14R20147   5.696   2.280   5.413  0.1212  0.6822 -0.6939
  166DOPC  H14S20148   5.569   2.154   5.450 -2.4371  1.0089 -0.6854
  166DOPC  C21520149   5.551   2.257   5.248 -0.7064  0.7248 -0.3692
  166DOPC  H15R20150   5.618   2.296   5.168  0.4916  0.7726  0.6318
  166DOPC  H15S20151   5.476   2.324   5.295 -2.5520 -2.2194  1.1586
  166DOPC  C21620152   5.462   2.144   5.185 -0.4444  0.2849 -0.3401
  166DOPC  H16R20153   5.398   2.092   5.259 -2.1320 -3.5366 -4.0238
  166DOPC  H16S20154   5.530   2.070   5.138  0.6023  1.0492 -0.0691
  166DOPC  C21720155   5.371   2.204   5.076  0.0823 -0.4363  0.4067
  166DOPC  H17R20156   5.327   2.116   5.025  0.6966 -0.9034  0.6590
  166DOPC  H17S20157   5.432   2.256   4.999  0.8147 -1.6932  0.1138
  166DOPC  C21820158   5.258   2.292   5.117  0.0116  0.1388 -0.2085
  166DOPC  H18R20159   5.175   2.222   5.140 -0.8854  1.2370 -0.0383
  166DOPC  H18S20160   5.219   2.352   5.032 -1.4740 -0.5922 -0.0718
  166DOPC  H18T20161   5.275   2.360   5.203 -3.4292  0.0981  0.6771
  166DOPC   C3320162   6.164   1.990   6.399 -0.1895  0.3051  0.9466
  166DOPC   H3X20163   6.122   2.072   6.462 -0.3530  0.4499  0.6528
  166DOPC   H3Y20164   6.108   2.002   6.303 -2.9674 -0.2405  2.3776
  166DOPC   C3420165   6.310   2.007   6.376 -0.4077  0.0849  0.0250
  166DOPC   H4X20166   6.350   2.011   6.480  0.9929  1.2005 -0.5230
  166DOPC   H4Y20167   6.328   2.103   6.323 -0.7968 -0.8551 -1.8888
  166DOPC   C3520168   6.382   1.897   6.295  0.2217 -0.4782 -0.5086
  166DOPC   H5X20169   6.391   1.807   6.359  0.4581  1.7436  2.8245
  166DOPC   H5Y20170   6.482   1.940   6.275  0.2286 -0.9334 -1.5324
  166DOPC   C3620171   6.317   1.878   6.153  0.0331 -0.2553 -0.3408
  166DOPC   H6X20172   6.369   1.791   6.107  0.3030 -1.0271  1.3513
  166DOPC   H6Y20173   6.212   1.846   6.164  0.3725 -0.6670  2.3125
  166DOPC   C3720174   6.330   2.004   6.061 -0.3795 -0.2437  0.4391
  166DOPC   H7X20175   6.244   2.069   6.088  0.4424  0.7441  0.7281
  166DOPC   H7Y20176   6.426   2.056   6.079  0.0024 -0.4908 -0.7835
  166DOPC   C3820177   6.341   1.976   5.906 -0.1276 -0.1119  0.2754
  166DOPC   H8X20178   6.264   1.903   5.874 -1.5387  1.0695  0.8437
  166DOPC   H8Y20179   6.434   1.917   5.894  1.6776  2.6179  0.0376
  166DOPC   C3920180   6.327   2.098   5.820 -0.4179  0.8698 -0.4340
  166DOPC   H9X20181   6.390   2.183   5.852  0.5991 -0.5534  1.5166
  166DOPC  C31020182   6.257   2.106   5.705  1.1597 -0.0065  0.1907
  166DOPC  H10X20183   6.253   2.207   5.661 -1.6314 -0.5627 -1.0403
  166DOPC  C31120184   6.173   2.006   5.631  0.1818 -0.4372  0.8427
  166DOPC  H11X20185   6.077   2.056   5.604  1.2768  1.0702 -0.4260
  166DOPC  H11Y20186   6.147   1.916   5.691  2.3123 -0.8701  1.2001
  166DOPC  C31220187   6.246   1.961   5.501  0.2850 -0.2499  0.2811
  166DOPC  H12X20188   6.351   1.935   5.527  0.3359 -0.3353 -0.0000
  166DOPC  H12Y20189   6.245   2.046   5.429  0.7572  0.1672  0.7574
  166DOPC  C31320190   6.179   1.837   5.444  0.9332 -0.0049 -0.9011
  166DOPC  H13X20191   6.187   1.759   5.523 -0.4584  0.7756  0.0417
  166DOPC  H13Y20192   6.074   1.869   5.427  0.8671  1.9253  2.2894
  166DOPC  C31420193   6.240   1.788   5.312  0.4455  0.3027 -0.0117
  166DOPC  H14X20194   6.166   1.717   5.270  0.6656  0.0711 -0.0084
  166DOPC  H14Y20195   6.250   1.874   5.242  0.5958  0.3137  0.0231
  166DOPC  C31520196   6.377   1.720   5.331  0.0083 -0.5419  0.0719
  166DOPC  H15X20197   6.379   1.645   5.412 -0.4649  1.7992  2.3749
  166DOPC  H15Y20198   6.449   1.798   5.365 -0.0192 -0.2691 -0.4826
  166DOPC  C31620199   6.432   1.659   5.196  0.1659  0.3097 -0.7611
  166DOPC  H16X20200   6.528   1.609   5.219  0.0481 -1.4560 -3.5761
  166DOPC  H16Y20201   6.359   1.583   5.159  0.3022 -0.3166  0.2230
  166DOPC  C31720202   6.449   1.758   5.083 -0.3661  0.3266  0.8253
  166DOPC  H17X20203   6.369   1.834   5.069 -1.1401 -0.6482 -0.3213
  166DOPC  H17Y20204   6.534   1.826   5.102  0.1745 -0.0948 -0.0330
  166DOPC  C31820205   6.476   1.694   4.950 -0.3123  0.5826 -0.0648
  166DOPC  H18X20206   6.389   1.643   4.904  0.9634 -2.6647  0.8222
  166DOPC  H18Y20207   6.512   1.773   4.880  0.8189  0.5026  0.4000
  166DOPC  H18Z20208   6.554   1.615   4.962 -0.5875  0.1958 -0.7521
  167DOPC     N20209   6.108   1.413   7.298  0.1624  0.6198  0.2255
  167DOPC   C1220210   6.103   1.480   7.159  0.3347  0.3944 -0.5670
  167DOPC  H12A20211   6.204   1.472   7.121  0.7627 -1.2031  0.8181
  167DOPC  H12B20212   6.073   1.584   7.161  0.7869  0.5390 -0.9508
  167DOPC   C1320213   5.967   1.385   7.337 -0.7915 -0.0663  0.7008
  167DOPC  H13A20214   5.955   1.340   7.435 -0.8570 -1.0445  0.2589
  167DOPC  H13B20215   5.908   1.475   7.330 -0.3583  0.0864 -2.1220
  167DOPC  H13C20216   5.929   1.316   7.263  1.2926 -0.9419  0.3679
  167DOPC   C1420217   6.167   1.508   7.398  0.4172  0.4259 -0.4348
  167DOPC  H14A20218   6.085   1.579   7.399 -2.3081 -2.4982 -0.6129
  167DOPC  H14B20219   6.171   1.461   7.495 -0.5101  0.0311 -0.5790
  167DOPC  H14C20220   6.256   1.566   7.375  0.7673 -0.1233 -0.4895
  167DOPC   C1520221   6.186   1.287   7.287 -0.1133  0.3240  0.4438
  167DOPC  H15A20222   6.288   1.315   7.264 -0.2462 -1.1093 -2.3040
  167DOPC  H15B20223   6.156   1.224   7.205  0.8821  0.2199  0.1489
  167DOPC  H15C20224   6.184   1.237   7.382  0.5195 -1.2305 -0.3302
  167DOPC   C1120225   6.011   1.415   7.051 -0.5541 -0.5884 -0.2948
  167DOPC  H11A20226   6.033   1.458   6.951 -2.1611  0.0205 -0.4045
  167DOPC  H11B20227   6.035   1.307   7.039 -0.6875 -0.7790  0.9846
  167DOPC     P20228   5.800   1.561   7.052  0.1312  0.0085  0.0674
  167DOPC   O1320229   5.875   1.667   7.120  0.3170  0.7664 -0.3278
  167DOPC   O1420230   5.662   1.546   7.106 -0.7185 -0.1553 -0.1040
  167DOPC   O1220231   5.877   1.427   7.066  0.1861  0.0499  0.0958
  167DOPC   O1120232   5.797   1.593   6.904 -0.4970  0.3035  0.7463
  167DOPC    C120233   5.703   1.557   6.803  0.5666 -0.4751  0.0931
  167DOPC    HA20234   5.718   1.623   6.714 -0.1651 -0.0447  0.2788
  167DOPC    HB20235   5.598   1.574   6.835  0.2099 -1.3808 -0.5563
  167DOPC    C220236   5.719   1.413   6.754  0.0717  0.1847  0.5094
  167DOPC    HS20237   5.690   1.361   6.848  0.7742  0.0238  0.6418
  167DOPC   O2120238   5.855   1.392   6.710  0.1231  0.1023 -0.5453
  167DOPC   C2120239   5.893   1.265   6.703 -0.2158 -0.0842 -0.2005
  167DOPC   O2220240   5.818   1.166   6.725 -0.2140 -0.4904 -0.4653
  167DOPC   C2220241   6.030   1.264   6.647  0.0502  0.8426  0.1671
  167DOPC   H2R20242   6.089   1.329   6.715 -0.2447 -0.2821  1.5536
  167DOPC   H2S20243   6.027   1.303   6.543  1.9568 -1.1372 -0.7153
  167DOPC    C320244   5.612   1.377   6.644 -0.1922  0.3748 -0.0121
  167DOPC    HX20245   5.517   1.396   6.698  0.1864 -2.3675  1.8298
  167DOPC    HY20246   5.620   1.274   6.602  1.8103  0.5808 -0.1992
  167DOPC   O3120247   5.622   1.462   6.531 -0.2438  0.3039 -0.5492
  167DOPC   C3120248   5.710   1.438   6.427  0.1888 -0.1308 -0.2388
  167DOPC   O3220249   5.783   1.338   6.420  0.6943  0.3867 -0.2065
  167DOPC   C3220250   5.695   1.539   6.319  0.1613 -0.9192  0.7992
  167DOPC   H2X20251   5.630   1.505   6.236  1.8914  1.6600 -1.8162
  167DOPC   H2Y20252   5.661   1.639   6.354 -1.4796 -0.7891 -1.0034
  167DOPC   C2320253   6.099   1.124   6.659  0.4585 -0.5517  0.4550
  167DOPC   H3R20254   6.129   1.097   6.763  3.0583  0.7760  0.1381
  167DOPC   H3S20255   6.196   1.147   6.609 -0.2541  2.3336  0.2180
  167DOPC   C2420256   6.038   1.005   6.589  0.5729 -0.4799  0.0941
  167DOPC   H4R20257   5.960   0.960   6.653 -0.8114 -1.4857 -2.1877
  167DOPC   H4S20258   6.111   0.920   6.585  0.3009 -0.9352  2.7897
  167DOPC   C2520259   5.972   1.038   6.457 -0.2061 -0.7464 -0.1478
  167DOPC   H5R20260   5.903   1.122   6.482  2.0294  0.5913  1.9227
  167DOPC   H5S20261   5.899   0.956   6.442  1.6092 -2.4565 -0.0300
  167DOPC   C2620262   6.057   1.069   6.336  0.4890  0.4915 -0.4502
  167DOPC   H6R20263   6.148   1.006   6.351  0.8377  1.8028  4.9801
  167DOPC   H6S20264   6.092   1.175   6.340 -2.6122  1.6190 -0.7487
  167DOPC   C2720265   6.002   1.045   6.197  0.2807  0.2636  0.0827
  167DOPC   H7R20266   5.892   1.053   6.190  0.3910  0.8508 -1.2691
  167DOPC   H7S20267   6.034   0.942   6.169  1.1436  0.1835  1.2851
  167DOPC   C2820268   6.066   1.137   6.090  0.3340  0.8792  0.0921
  167DOPC   H8R20269   6.163   1.090   6.060 -0.9044 -0.1310 -2.6857
  167DOPC   H8S20270   6.094   1.236   6.131 -0.3665  0.6681  1.1237
  167DOPC   C2920271   5.975   1.168   5.966 -0.3498  0.9641 -0.3836
  167DOPC   H9R20272   5.892   1.240   5.977 -2.2175 -1.3086  1.2912
  167DOPC  C21020273   6.003   1.102   5.855 -0.2960 -0.3208  0.3626
  167DOPC  H10R20274   5.940   1.127   5.769  2.2346  0.7157 -1.3141
  167DOPC  C21120275   6.105   0.989   5.840 -0.4582  0.0812 -0.4538
  167DOPC  H11R20276   6.099   0.928   5.933 -0.1979 -1.0785 -1.1744
  167DOPC  H11S20277   6.212   1.016   5.825 -0.4170  2.0661  2.6062
  167DOPC  C21220278   6.072   0.897   5.720  0.5228  0.6041 -0.7281
  167DOPC  H12R20279   6.142   0.811   5.713 -2.2713 -1.9643  0.5593
  167DOPC  H12S20280   5.978   0.844   5.748  0.3265  0.8209 -0.9740
  167DOPC  C21320281   6.063   0.969   5.587  0.5746 -0.1022 -0.1612
  167DOPC  H13R20282   6.141   1.048   5.576  0.7525 -0.5334 -2.2674
  167DOPC  H13S20283   5.969   1.029   5.581 -0.1843 -0.6798  3.4880
  167DOPC  C21420284   6.077   0.875   5.475  0.4053  0.4802  0.6841
  167DOPC  H14R20285   6.024   0.781   5.502  0.4505 -0.4151 -1.9512
  167DOPC  H14S20286   6.185   0.856   5.457  0.2501 -0.4616  0.7082
  167DOPC  C21520287   6.023   0.933   5.344  0.3074 -0.4144 -0.2142
  167DOPC  H15R20288   6.068   1.034   5.333 -0.6014  0.0058 -0.1682
  167DOPC  H15S20289   5.914   0.954   5.337  0.0209 -1.5708  0.6171
  167DOPC  C21620290   6.064   0.859   5.211 -0.1704  0.1943  0.8338
  167DOPC  H16R20291   6.021   0.757   5.225 -2.2271  1.0854  1.2901
  167DOPC  H16S20292   6.174   0.844   5.200 -0.3490 -0.5854 -0.0722
  167DOPC  C21720293   5.990   0.927   5.103  0.4921 -0.2435  0.3461
  167DOPC  H17R20294   6.002   1.038   5.095 -1.2877 -0.1348 -1.5480
  167DOPC  H17S20295   5.881   0.916   5.121 -0.0828 -0.2033 -2.7155
  167DOPC  C21820296   6.024   0.881   4.962 -0.0785 -0.5472  0.1238
  167DOPC  H18R20297   6.047   0.774   4.947 -1.3426 -0.6616 -1.2617
  167DOPC  H18S20298   6.109   0.942   4.925 -1.1682  0.1371 -1.3346
  167DOPC  H18T20299   5.936   0.902   4.898 -0.6207  2.2639  1.6123
  167DOPC   C3320300   5.841   1.560   6.260 -0.4926 -0.4343 -0.1339
  167DOPC   H3X20301   5.875   1.462   6.219 -1.7136 -1.3585  0.9544
  167DOPC   H3Y20302   5.918   1.598   6.331  0.5428  1.4255 -2.1116
  167DOPC   C3420303   5.836   1.661   6.154 -0.2116 -0.0988 -0.4120
  167DOPC   H4X20304   5.806   1.760   6.194 -1.6351  1.0547 -3.9194
  167DOPC   H4Y20305   5.754   1.630   6.086  2.0176 -1.1745 -2.7912
  167DOPC   C3520306   5.959   1.680   6.061 -0.4795  0.0437 -0.4047
  167DOPC   H5X20307   6.051   1.678   6.124 -0.7827  0.0720  0.0448
  167DOPC   H5Y20308   5.943   1.781   6.020 -0.9041 -0.1165 -0.6351
  167DOPC   C3620309   5.975   1.578   5.952  0.0437  0.1297 -0.0613
  167DOPC   H6X20310   5.969   1.482   6.008 -0.2088  0.2956  0.2025
  167DOPC   H6Y20311   5.887   1.591   5.886  0.1589  1.8598  0.0624
  167DOPC   C3720312   6.110   1.591   5.875  0.3604 -0.7651  0.5377
  167DOPC   H7X20313   6.095   1.689   5.824 -1.1790 -0.6108  1.2247
  167DOPC   H7Y20314   6.190   1.600   5.951  1.0005 -0.6935 -0.1267
  167DOPC   C3820315   6.132   1.477   5.774  0.8453  0.4854 -0.1540
  167DOPC   H8X20316   6.035   1.467   5.720 -2.2187  3.2870  4.1047
  167DOPC   H8Y20317   6.137   1.385   5.835 -1.5776  0.0844 -0.4661
  167DOPC   C3920318   6.243   1.505   5.681  0.6281 -0.0114 -0.2226
  167DOPC   H9X20319   6.307   1.587   5.719 -1.1566  1.3996 -0.1318
  167DOPC  C31020320   6.259   1.436   5.566  0.6377 -0.1530  1.0290
  167DOPC  H10X20321   6.331   1.468   5.490 -1.3312  0.9148 -0.4736
  167DOPC  C31120322   6.164   1.329   5.520 -0.4152 -0.8181  0.3620
  167DOPC  H11X20323   6.077   1.322   5.589 -0.1509  1.3706  0.9935
  167DOPC  H11Y20324   6.222   1.236   5.508  2.3639  1.0001 -1.4406
  167DOPC  C31220325   6.083   1.358   5.385  0.4369  0.9953  0.1352
  167DOPC  H12X20326   6.025   1.263   5.383  0.4915  0.8814  2.2650
  167DOPC  H12Y20327   6.156   1.362   5.301 -2.3016  0.8278 -2.4299
  167DOPC  C31320328   5.988   1.470   5.393  0.0531 -0.1092 -0.2795
  167DOPC  H13X20329   5.939   1.465   5.493  1.0756  1.2736  0.3243
  167DOPC  H13Y20330   6.046   1.564   5.400 -0.1093 -0.0558  0.4163
  167DOPC  C31420331   5.901   1.471   5.274 -0.8097 -0.3338 -0.1091
  167DOPC  H14X20332   5.970   1.497   5.191 -1.4449  2.6499  0.1579
  167DOPC  H14Y20333   5.853   1.376   5.246 -1.4539  0.3491 -1.3968
  167DOPC  C31520334   5.790   1.588   5.277 -0.1682  0.1668 -0.7171
  167DOPC  H15X20335   5.813   1.671   5.346 -3.0315  1.4213 -1.1240
  167DOPC  H15Y20336   5.700   1.534   5.314  2.3647 -3.7372  0.4150
  167DOPC  C31620337   5.763   1.647   5.144  0.0752  0.0446  0.1387
  167DOPC  H16X20338   5.849   1.707   5.107 -0.2808  2.2096  2.5384
  167DOPC  H16Y20339   5.741   1.568   5.069 -0.7713 -0.1354  0.5615
  167DOPC  C31720340   5.641   1.744   5.143  0.9153 -0.0260 -0.3132
  167DOPC  H17X20341   5.554   1.679   5.169  0.0133  0.3729 -2.1651
  167DOPC  H17Y20342   5.654   1.833   5.209 -0.0545  0.3799 -0.6489
  167DOPC  C31820343   5.616   1.801   5.005  0.8611  0.2998 -0.5377
  167DOPC  H18X20344   5.691   1.882   4.992  2.8363 -1.3954 -0.3833
  167DOPC  H18Y20345   5.635   1.732   4.920  0.3456  0.5940 -0.8983
  167DOPC  H18Z20346   5.514   1.843   5.001  0.9646  0.5038 -1.2028
  168DOPC     N20347   1.966   0.209   6.964  0.4072  0.0674 -0.0544
  168DOPC   C1220348   1.983   0.302   6.844  0.1253 -0.2693  0.2612
  168DOPC  H12A20349   1.957   0.404   6.868 -0.0239 -0.4846  1.0090
  168DOPC  H12B20350   1.926   0.269   6.758  0.6791  0.1752 -0.2852
  168DOPC   C1320351   2.011   0.073   6.936  0.1545  0.6521  0.3428
  168DOPC  H13A20352   1.967   0.006   7.008  0.6928  0.4733  0.5076
  168DOPC  H13B20353   1.980   0.041   6.838  0.1027  1.5150  0.0639
  168DOPC  H13C20354   2.116   0.052   6.929  0.4533  2.1299 -0.0122
  168DOPC   C1420355   1.817   0.206   6.996 -0.1752 -0.4804  0.8657
  168DOPC  H14A20356   1.787   0.305   7.026  2.1341 -0.2684  2.8707
  168DOPC  H14B20357   1.761   0.174   6.910  0.4549  1.2175 -0.2286
  168DOPC  H14C20358   1.797   0.158   7.091  1.7701  2.2095  2.7926
  168DOPC   C1520359   2.039   0.255   7.084  0.8362 -0.0339 -0.3155
  168DOPC  H15A20360   2.141   0.289   7.074  0.9576 -0.2004  0.3308
  168DOPC  H15B20361   2.045   0.177   7.159 -1.5011  1.7294  1.8831
  168DOPC  H15C20362   1.982   0.335   7.128  0.8677 -0.7586  1.0874
  168DOPC   C1120363   2.124   0.335   6.800 -0.2098  0.1759  0.5430
  168DOPC  H11A20364   2.175   0.240   6.771  0.3838  0.8343 -0.6370
  168DOPC  H11B20365   2.120   0.390   6.704 -0.6788  1.0406  1.0507
  168DOPC     P20366   2.204   0.542   6.926 -0.3795  0.1720 -0.6366
  168DOPC   O1320367   2.271   0.581   7.059 -0.5475  0.0846 -0.0910
  168DOPC   O1420368   2.069   0.594   6.897  0.1541 -0.0728 -0.3774
  168DOPC   O1220369   2.205   0.388   6.901  0.5996 -1.0328  0.3720
  168DOPC   O1120370   2.289   0.591   6.809  0.2697 -0.8851 -0.1578
  168DOPC    C120371   2.426   0.552   6.790 -0.5899  0.0224 -0.4185
  168DOPC    HA20372   2.449   0.444   6.804  1.5965  0.5671  0.4691
  168DOPC    HB20373   2.485   0.618   6.857 -1.0300  1.1665 -1.1234
  168DOPC    C220374   2.464   0.575   6.640 -0.8327  0.1141 -0.7424
  168DOPC    HS20375   2.567   0.535   6.629 -0.9675 -0.7447  0.8954
  168DOPC   O2120376   2.467   0.715   6.614  0.1136  0.5356  0.1879
  168DOPC   C2120377   2.547   0.751   6.517 -0.3729 -0.1946 -0.4852
  168DOPC   O2220378   2.632   0.684   6.461 -0.1755 -0.2636  0.1628
  168DOPC   C2220379   2.508   0.892   6.485  0.0572 -0.2676  0.0201
  168DOPC   H2R20380   2.564   0.945   6.565  1.1799  0.9162 -1.4883
  168DOPC   H2S20381   2.399   0.917   6.490 -0.5011 -1.6072 -3.0876
  168DOPC    C320382   2.355   0.520   6.553  0.3149 -0.1095 -0.3055
  168DOPC    HX20383   2.262   0.578   6.571 -0.1063 -0.9054  0.1322
  168DOPC    HY20384   2.331   0.416   6.583 -0.6521  0.0288 -0.5700
  168DOPC   O3120385   2.372   0.528   6.410  0.0785  0.2249 -0.1372
  168DOPC   C3120386   2.479   0.466   6.358 -0.1774  0.0082  0.4197
  168DOPC   O3220387   2.546   0.386   6.417  0.5773 -0.2487 -0.1534
  168DOPC   C3220388   2.495   0.496   6.210  0.4048  0.1931  0.1005
  168DOPC   H2X20389   2.398   0.483   6.158  0.3902 -1.1293  0.4410
  168DOPC   H2Y20390   2.521   0.602   6.189 -0.2878  0.1838 -0.8542
  168DOPC   C2320391   2.572   0.956   6.361  0.3793  0.1108  0.2355
  168DOPC   H3R20392   2.675   0.916   6.351 -0.3125 -2.2155  1.5723
  168DOPC   H3S20393   2.580   1.066   6.374  2.3677  0.2055 -1.2309
  168DOPC   C2420394   2.484   0.927   6.239  0.1326  0.4060  0.1570
  168DOPC   H4R20395   2.386   0.979   6.250  0.1983  0.6442 -0.3279
  168DOPC   H4S20396   2.463   0.819   6.230  2.7093 -0.0520 -0.9767
  168DOPC   C2520397   2.563   0.976   6.119  0.6306 -0.3031  0.5244
  168DOPC   H5R20398   2.651   0.909   6.103  2.0668  1.2799  1.4959
  168DOPC   H5S20399   2.586   1.084   6.129 -0.6664 -0.0025  0.3789
  168DOPC   C2620400   2.484   0.949   5.992  0.3499  0.2785 -0.5291
  168DOPC   H6R20401   2.385   0.994   6.014  1.8545  3.0309  1.1990
  168DOPC   H6S20402   2.453   0.842   5.985 -2.5837  1.1017 -1.1960
  168DOPC   C2720403   2.556   1.006   5.871 -0.0717 -0.0908 -0.5101
  168DOPC   H7R20404   2.628   0.929   5.837 -0.9405 -0.7147 -0.9569
  168DOPC   H7S20405   2.617   1.093   5.905 -1.3376  0.0739  1.5375
  168DOPC   C2820406   2.456   1.041   5.763 -0.3480  0.6654 -1.0939
  168DOPC   H8R20407   2.393   0.951   5.750  0.0850  0.3571 -1.0559
  168DOPC   H8S20408   2.518   1.060   5.673 -0.8836  0.0407 -1.5983
  168DOPC   C2920409   2.363   1.160   5.794 -0.4549 -0.4142 -0.2712
  168DOPC   H9R20410   2.334   1.179   5.899 -0.6734  1.4873 -0.6339
  168DOPC  C21020411   2.305   1.236   5.701 -0.2115 -0.6995  0.9182
  168DOPC  H10R20412   2.235   1.314   5.733  0.2323 -0.3837  1.1332
  168DOPC  C21120413   2.309   1.217   5.547 -0.0478  0.0455  0.1065
  168DOPC  H11R20414   2.206   1.236   5.509 -1.3023  0.7269  3.5303
  168DOPC  H11S20415   2.347   1.118   5.512 -1.8078 -0.1565 -1.4110
  168DOPC  C21220416   2.382   1.335   5.486 -0.8468 -0.2894  0.3235
  168DOPC  H12R20417   2.488   1.342   5.520 -0.1786  1.0477 -1.8397
  168DOPC  H12S20418   2.327   1.430   5.497  0.5420  0.4766  0.8780
  168DOPC  C21320419   2.398   1.315   5.334  0.2705  0.0703 -0.6881
  168DOPC  H13R20420   2.299   1.291   5.289 -0.9793 -0.0779  1.9523
  168DOPC  H13S20421   2.466   1.232   5.303  1.5652  0.4740  0.9561
  168DOPC  C21420422   2.480   1.438   5.268  0.3996 -0.1821  0.2007
  168DOPC  H14R20423   2.579   1.442   5.317 -0.7449  0.5387  2.5795
  168DOPC  H14S20424   2.424   1.527   5.305  2.0533  1.0168 -0.0983
  168DOPC  C21520425   2.480   1.442   5.114 -0.7443  0.3438  0.4926
  168DOPC  H15R20426   2.381   1.458   5.066  0.2354  0.8581 -1.4876
  168DOPC  H15S20427   2.517   1.343   5.079 -0.7882  1.0037 -1.5546
  168DOPC  C21620428   2.582   1.554   5.066  0.2874  0.0878  0.1292
  168DOPC  H16R20429   2.671   1.548   5.133  0.3368  0.9570  0.1638
  168DOPC  H16S20430   2.533   1.653   5.083 -2.0459 -1.1641  1.1139
  168DOPC  C21720431   2.627   1.540   4.919  0.2810  1.1716  0.6101
  168DOPC  H17R20432   2.694   1.452   4.922 -0.0539  0.6289 -2.9510
  168DOPC  H17S20433   2.692   1.628   4.899  0.5514  1.0163  0.8053
  168DOPC  C21820434   2.522   1.515   4.812 -0.5509 -0.2372  0.1392
  168DOPC  H18R20435   2.456   1.430   4.840  0.2074 -1.0905 -0.5805
  168DOPC  H18S20436   2.578   1.494   4.718  3.3970  0.1790  2.2060
  168DOPC  H18T20437   2.460   1.606   4.798  1.3271  1.0649 -0.0736
  168DOPC   C3320438   2.595   0.412   6.137  0.5544  0.3022  0.1501
  168DOPC   H3X20439   2.579   0.303   6.153 -0.5705  0.3509 -0.5853
  168DOPC   H3Y20440   2.695   0.431   6.182  0.3505 -0.6584  1.0606
  168DOPC   C3420441   2.592   0.440   5.982 -0.0239  0.7478 -0.3452
  168DOPC   H4X20442   2.482   0.440   5.965 -0.4947 -0.9645  2.1615
  168DOPC   H4Y20443   2.652   0.355   5.942 -1.0217 -0.1901  0.0965
  168DOPC   C3520444   2.650   0.573   5.940  0.4679  0.0083 -0.9973
  168DOPC   H5X20445   2.755   0.565   5.975  0.4123  0.0948 -0.8134
  168DOPC   H5Y20446   2.613   0.666   5.990  1.4942  0.7666 -1.6106
  168DOPC   C3620447   2.657   0.582   5.787 -0.1061  0.4781  0.1565
  168DOPC   H6X20448   2.734   0.652   5.749 -0.6482  1.0828  0.1620
  168DOPC   H6Y20449   2.684   0.481   5.748 -0.0798 -0.0464  1.4972
  168DOPC   C3720450   2.521   0.617   5.728 -0.5120  0.1878 -0.3507
  168DOPC   H7X20451   2.461   0.524   5.710  1.6363 -1.8457  2.2009
  168DOPC   H7Y20452   2.475   0.685   5.802 -0.8215 -1.8514  1.4453
  168DOPC   C3820453   2.527   0.697   5.597 -0.2961  0.2126 -0.0785
  168DOPC   H8X20454   2.592   0.785   5.620  0.6393 -0.2954 -0.7189
  168DOPC   H8Y20455   2.426   0.739   5.577 -1.5290 -2.9491 -1.0809
  168DOPC   C3920456   2.579   0.613   5.486 -0.5753 -0.0366  0.4712
  168DOPC   H9X20457   2.663   0.547   5.511  0.5329  1.8532  2.0801
  168DOPC  C31020458   2.522   0.606   5.359 -0.3699 -0.0425 -0.9912
  168DOPC  H10X20459   2.564   0.531   5.290 -1.5032 -2.1946  0.5225
  168DOPC  C31120460   2.400   0.684   5.314 -0.1967 -0.0260  0.1213
  168DOPC  H11X20461   2.403   0.786   5.357  0.8895 -0.8202  2.0775
  168DOPC  H11Y20462   2.309   0.632   5.350 -1.8860  1.6899 -1.4548
  168DOPC  C31220463   2.387   0.677   5.160 -0.3733 -0.1325 -0.1376
  168DOPC  H12X20464   2.393   0.577   5.112  2.9887  0.3219 -0.9471
  168DOPC  H12Y20465   2.478   0.727   5.119  0.2342 -0.7338  0.4507
  168DOPC  C31320466   2.259   0.757   5.117 -0.4896  0.0381 -0.2083
  168DOPC  H13X20467   2.182   0.723   5.189 -0.2061 -0.8283 -0.3020
  168DOPC  H13Y20468   2.290   0.864   5.124  0.4955 -0.2873  0.6521
  168DOPC  C31420469   2.213   0.729   4.973 -0.6176  0.1564  0.1749
  168DOPC  H14X20470   2.291   0.760   4.901 -1.5733  1.9231 -0.1427
  168DOPC  H14Y20471   2.181   0.623   4.956  0.7600 -0.1042 -0.9463
  168DOPC  C31520472   2.094   0.823   4.942 -0.1589 -0.8366  0.6331
  168DOPC  H15X20473   2.119   0.929   4.960  0.0384 -0.6402 -0.7500
  168DOPC  H15Y20474   2.027   0.790   5.024  0.2619 -1.7679  0.6162
  168DOPC  C31620475   2.050   0.807   4.792  0.4034 -0.6180 -0.4730
  168DOPC  H16X20476   2.141   0.826   4.732  1.1803 -3.0151 -0.1663
  168DOPC  H16Y20477   2.036   0.699   4.768  1.1331 -1.2093  1.5088
  168DOPC  C31720478   1.916   0.876   4.751 -0.3873 -0.2091 -0.7830
  168DOPC  H17X20479   1.861   0.810   4.681 -0.8982 -0.2805 -0.3200
  168DOPC  H17Y20480   1.849   0.871   4.840  0.9163  0.6942  0.2872
  168DOPC  C31820481   1.939   1.018   4.691  0.3340  0.0856 -0.1041
  168DOPC  H18X20482   1.851   1.079   4.663  0.7321 -0.5787 -3.0796
  168DOPC  H18Y20483   2.011   1.076   4.752 -0.7321  0.8713  0.4372
  168DOPC  H18Z20484   1.999   0.989   4.602 -0.0462 -1.2059  0.0307
  169DOPC     N20485   6.734   1.844   7.198 -0.5304 -0.4593 -0.1387
  169DOPC   C1220486   6.653   1.882   7.078  0.3006 -0.1652  0.1326
  169DOPC  H12A20487   6.622   1.985   7.078  0.9593  0.0821 -1.9932
  169DOPC  H12B20488   6.568   1.816   7.067 -0.6623  0.9011  0.9540
  169DOPC   C1320489   6.790   1.703   7.193 -0.2613 -0.1323  0.3500
  169DOPC  H13A20490   6.860   1.699   7.111  2.1570  0.0721  2.2767
  169DOPC  H13B20491   6.833   1.678   7.289 -2.5471  2.2261  2.1405
  169DOPC  H13C20492   6.716   1.626   7.178  1.3185 -1.2861 -2.1996
  169DOPC   C1420493   6.657   1.851   7.319  0.0952  0.1369 -0.4009
  169DOPC  H14A20494   6.609   1.944   7.346 -2.2521 -1.3564  1.0204
  169DOPC  H14B20495   6.577   1.778   7.308 -0.9918  1.1737  0.3243
  169DOPC  H14C20496   6.709   1.819   7.409 -1.2063  1.2763  0.8071
  169DOPC   C1520497   6.850   1.939   7.208  0.1941 -0.1819 -0.3875
  169DOPC  H15A20498   6.902   1.937   7.113  1.7572 -1.4360  0.4449
  169DOPC  H15B20499   6.927   1.911   7.278  0.9874 -3.3870 -2.3433
  169DOPC  H15C20500   6.811   2.039   7.222  0.2706 -0.2960  0.7641
  169DOPC   C1120501   6.726   1.873   6.940 -0.1832  0.2852 -0.4246
  169DOPC  H11A20502   6.657   1.898   6.856  0.3937  0.6724 -0.7930
  169DOPC  H11B20503   6.811   1.944   6.933  0.4842 -0.3242  1.0818
  169DOPC     P20504   6.674   1.622   6.865  0.2555 -0.0898  0.1018
  169DOPC   O1320505   6.532   1.657   6.893 -0.1907  0.3508 -0.4938
  169DOPC   O1420506   6.728   1.497   6.922  0.0791 -0.1844  0.8807
  169DOPC   O1220507   6.772   1.738   6.915 -0.2206 -0.4947 -0.6521
  169DOPC   O1120508   6.705   1.615   6.708  0.2823 -0.1860 -0.0075
  169DOPC    C120509   6.802   1.692   6.644 -0.1685  0.1446  0.4808
  169DOPC    HA20510   6.787   1.797   6.678 -1.0478 -0.2859  1.4806
  169DOPC    HB20511   6.771   1.687   6.537 -0.4408  2.4094  0.4099
  169DOPC    C220512   6.945   1.645   6.647 -0.3077 -0.3380 -0.2820
  169DOPC    HS20513   6.976   1.632   6.753  0.2027 -1.6677 -0.5705
  169DOPC   O2120514   7.021   1.743   6.570  0.1341 -0.3714  0.3064
  169DOPC   C2120515   7.150   1.750   6.598 -0.2213 -0.9562 -0.0618
  169DOPC   O2220516   7.209   1.678   6.675 -0.2557 -0.1510  0.1604
  169DOPC   C2220517   7.215   1.868   6.534 -0.2265 -0.5367 -0.2123
  169DOPC   H2R20518   7.226   1.948   6.610  1.0417 -1.0193  0.1389
  169DOPC   H2S20519   7.139   1.915   6.468  1.0779 -0.7084 -1.9215
  169DOPC    C320520   6.959   1.512   6.573  0.3817 -0.8703 -0.4308
  169DOPC    HX20521   6.892   1.436   6.618 -2.1455  1.6900  0.4443
  169DOPC    HY20522   7.063   1.474   6.575  1.8712  2.7552 -1.3075
  169DOPC   O3120523   6.911   1.529   6.440  0.4293 -0.2043  0.2704
  169DOPC   C3120524   6.987   1.565   6.345  0.1265 -0.3504  0.1569
  169DOPC   O3220525   7.110   1.560   6.344 -0.5426 -0.0542  0.1281
  169DOPC   C3220526   6.898   1.612   6.230 -0.0195  0.6748  0.5636
  169DOPC   H2X20527   6.813   1.542   6.214  0.2969  0.2644  0.6845
  169DOPC   H2Y20528   6.848   1.710   6.250  0.4770  1.0657 -0.0692
  169DOPC   C2320529   7.330   1.851   6.428 -0.1424 -0.0214  0.4606
  169DOPC   H3R20530   7.400   1.770   6.457 -0.8442  0.2871  3.2736
  169DOPC   H3S20531   7.394   1.941   6.415  0.2315  0.0219  2.2954
  169DOPC   C2420532   7.295   1.828   6.281  0.5473  0.1608 -0.1667
  169DOPC   H4R20533   7.195   1.869   6.255 -0.0735  1.4189  3.5753
  169DOPC   H4S20534   7.283   1.717   6.274 -0.0928  0.2674 -0.9382
  169DOPC   C2520535   7.410   1.861   6.188  0.7673 -0.4302 -0.4173
  169DOPC   H5R20536   7.509   1.856   6.237  0.1778 -0.9185  0.7720
  169DOPC   H5S20537   7.392   1.969   6.168  0.4072 -0.7070 -1.6891
  169DOPC   C2620538   7.399   1.785   6.054 -0.4159 -0.7759  0.1306
  169DOPC   H6R20539   7.293   1.780   6.022  0.5173 -0.4071 -3.5240
  169DOPC   H6S20540   7.418   1.676   6.066  0.1402 -0.8870 -1.4413
  169DOPC   C2720541   7.485   1.854   5.939  0.0318 -0.3366  0.1733
  169DOPC   H7R20542   7.482   1.810   5.837 -0.6150 -1.3737  0.6245
  169DOPC   H7S20543   7.594   1.845   5.957 -0.2798 -2.3466  1.3598
  169DOPC   C2820544   7.444   2.005   5.928 -0.5643 -0.3966 -0.4385
  169DOPC   H8R20545   7.477   2.059   6.020  0.7318  0.7931 -1.5640
  169DOPC   H8S20546   7.333   2.012   5.935 -0.4990  1.2156 -0.6040
  169DOPC   C2920547   7.500   2.068   5.803  0.2582 -0.6071 -0.2612
  169DOPC   H9R20548   7.606   2.095   5.821 -0.1233 -0.0605  1.3896
  169DOPC  C21020549   7.432   2.091   5.687 -0.3894  0.8929 -0.0426
  169DOPC  H10R20550   7.491   2.129   5.602 -0.5991  0.7865 -0.2340
  169DOPC  C21120551   7.285   2.063   5.664  0.0602  0.3144  0.3037
  169DOPC  H11R20552   7.237   2.146   5.608  2.1987 -0.2102 -2.5496
  169DOPC  H11S20553   7.240   2.036   5.762 -0.1996  2.2633  0.7624
  169DOPC  C21220554   7.276   1.936   5.574 -0.2040  0.0074  1.2176
  169DOPC  H12R20555   7.168   1.915   5.562 -0.3118  0.8623  0.5870
  169DOPC  H12S20556   7.327   1.848   5.618 -0.1935 -1.2296 -1.1065
  169DOPC  C21320557   7.319   1.959   5.428 -0.2013  0.3027  0.1742
  169DOPC  H13R20558   7.295   1.870   5.366  0.3100 -1.2788  2.1474
  169DOPC  H13S20559   7.430   1.955   5.428 -0.1771 -0.4737 -1.8257
  169DOPC  C21420560   7.279   2.082   5.360 -0.7473 -0.2611 -0.7312
  169DOPC  H14R20561   7.347   2.165   5.388 -0.2943  0.3056 -3.2610
  169DOPC  H14S20562   7.175   2.110   5.386 -0.7625 -0.5790 -0.4407
  169DOPC  C21520563   7.291   2.063   5.211 -0.2508  0.0466  0.3876
  169DOPC  H15R20564   7.259   2.157   5.160 -1.3665  0.9254  2.5979
  169DOPC  H15S20565   7.217   1.984   5.185  0.2977  0.5912 -3.4182
  169DOPC  C21620566   7.431   2.045   5.152 -0.3549 -0.2231  0.2075
  169DOPC  H16R20567   7.418   2.016   5.045  0.4300  0.2521 -0.0285
  169DOPC  H16S20568   7.488   1.966   5.206  0.3847 -0.0926 -0.3608
  169DOPC  C21720569   7.528   2.165   5.185 -0.5913 -0.0753  0.8335
  169DOPC  H17R20570   7.492   2.209   5.280 -0.7811  0.1443  0.6616
  169DOPC  H17S20571   7.527   2.239   5.102 -0.1199 -2.2350 -1.2169
  169DOPC  C21820572   7.674   2.125   5.218  0.5273 -0.2087 -0.2564
  169DOPC  H18R20573   7.724   2.212   5.266  0.5545 -0.7573  0.7255
  169DOPC  H18S20574   7.738   2.076   5.140 -1.0308  1.1141 -2.4941
  169DOPC  H18T20575   7.675   2.050   5.299  0.0156 -2.3896 -2.1474
  169DOPC   C3320576   6.978   1.620   6.101  0.3331 -0.6937  0.3425
  169DOPC   H3X20577   7.074   1.673   6.115 -0.3530  1.7620 -3.0538
  169DOPC   H3Y20578   6.922   1.676   6.023  1.9920 -1.5500 -1.5713
  169DOPC   C3420579   7.016   1.484   6.045  0.6548 -0.0102 -0.6362
  169DOPC   H4X20580   6.943   1.403   6.065  1.4048 -0.8630 -1.2483
  169DOPC   H4Y20581   7.106   1.453   6.102  1.3400  1.4615 -0.8421
  169DOPC   C3520582   7.062   1.488   5.897  0.3040 -0.6511  0.0577
  169DOPC   H5X20583   7.134   1.572   5.887 -1.1626  0.5936 -0.5952
  169DOPC   H5Y20584   6.988   1.509   5.816  0.9355  0.5540 -0.2316
  169DOPC   C3620585   7.132   1.365   5.847 -0.9460  0.2640  0.0883
  169DOPC   H6X20586   7.233   1.350   5.892 -1.4331 -2.4194  0.4427
  169DOPC   H6Y20587   7.075   1.278   5.886 -1.1094  0.4953  0.3646
  169DOPC   C3720588   7.136   1.357   5.698 -0.3661 -0.4592  0.8007
  169DOPC   H7X20589   7.169   1.252   5.687  1.5437  0.1990 -0.3289
  169DOPC   H7Y20590   7.033   1.361   5.657  0.5575  2.2456 -1.6229
  169DOPC   C3820591   7.232   1.469   5.639  0.5128 -0.0412 -0.0452
  169DOPC   H8X20592   7.192   1.572   5.641 -1.8669 -0.8776 -1.1476
  169DOPC   H8Y20593   7.231   1.461   5.528 -0.3975 -0.3923 -0.0235
  169DOPC   C3920594   7.372   1.480   5.692 -0.8413  0.3295 -0.2690
  169DOPC   H9X20595   7.385   1.503   5.799 -1.2063 -2.1481  0.3547
  169DOPC  C31020596   7.482   1.472   5.620 -0.2158 -0.1987  0.4150
  169DOPC  H10X20597   7.585   1.476   5.659  0.4423 -1.2669 -1.1297
  169DOPC  C31120598   7.495   1.462   5.468  0.0679  0.2836  0.1872
  169DOPC  H11X20599   7.574   1.532   5.435 -0.3503  0.0441 -1.4526
  169DOPC  H11Y20600   7.400   1.500   5.425 -0.8569  0.8647  2.6096
  169DOPC  C31220601   7.536   1.324   5.415 -0.2922  0.6282  0.4496
  169DOPC  H12X20602   7.452   1.261   5.451 -1.3921  1.8586  0.1119
  169DOPC  H12Y20603   7.630   1.290   5.463 -0.1240  2.1670  1.2733
  169DOPC  C31320604   7.539   1.325   5.264 -0.4082 -0.4391 -0.0911
  169DOPC  H13X20605   7.446   1.361   5.216  0.8891  1.0374 -1.6347
  169DOPC  H13Y20606   7.618   1.390   5.220 -0.2606  1.2283  2.4298
  169DOPC  C31420607   7.574   1.184   5.217 -0.1097  0.0530  0.2278
  169DOPC  H14X20608   7.676   1.161   5.254 -0.6315 -0.8541  1.1604
  169DOPC  H14Y20609   7.511   1.106   5.265  0.8085 -1.2063 -0.5641
  169DOPC  C31520610   7.560   1.162   5.066 -0.5043  0.7961  0.1584
  169DOPC  H15X20611   7.453   1.151   5.037  0.1234  0.0033 -2.0419
  169DOPC  H15Y20612   7.606   1.063   5.043 -0.9220 -0.0586  2.6500
  169DOPC  C31620613   7.635   1.277   4.995  0.3836 -1.0813  0.1429
  169DOPC  H16X20614   7.587   1.374   5.016 -3.0679 -2.0509 -2.3612
  169DOPC  H16Y20615   7.743   1.290   5.018  0.4864  3.0480 -1.8259
  169DOPC  C31720616   7.628   1.265   4.840 -0.2586 -0.4098  0.0517
  169DOPC  H17X20617   7.675   1.167   4.819  1.1490  0.1937  0.2113
  169DOPC  H17Y20618   7.522   1.255   4.810 -0.7711 -0.3341  1.6984
  169DOPC  C31820619   7.688   1.379   4.759 -0.7774 -0.6216 -0.6513
  169DOPC  H18X20620   7.652   1.374   4.654  0.4025  1.4349 -1.2086
  169DOPC  H18Y20621   7.677   1.479   4.807 -0.2227  0.0114 -1.8130
  169DOPC  H18Z20622   7.798   1.360   4.754 -0.5411 -0.0138  1.2833
  170DOPC     N20623   6.533   0.805   7.322 -0.1893  0.2145  0.2729
  170DOPC   C1220624   6.569   0.800   7.177  0.3015 -0.2274 -0.6390
  170DOPC  H12A20625   6.515   0.719   7.130  0.9956 -1.4691  0.6133
  170DOPC  H12B20626   6.673   0.774   7.164  1.5173  2.2435  2.6334
  170DOPC   C1320627   6.390   0.840   7.344 -0.1011 -0.4212 -0.3978
  170DOPC  H13A20628   6.366   0.847   7.448  1.2335  0.5141 -0.1142
  170DOPC  H13B20629   6.383   0.939   7.301  3.3976 -0.5809 -1.7478
  170DOPC  H13C20630   6.324   0.779   7.284 -1.0977  0.8207 -0.5989
  170DOPC   C1420631   6.611   0.893   7.409 -0.7087 -0.0852 -0.2109
  170DOPC  H14A20632   6.707   0.845   7.420 -1.1402 -1.3299 -1.5195
  170DOPC  H14B20633   6.631   0.990   7.365 -3.1867  0.4879 -0.2222
  170DOPC  H14C20634   6.558   0.895   7.503 -2.2847  1.3015 -1.0793
  170DOPC   C1520635   6.548   0.661   7.376  0.2159  0.2598  0.0004
  170DOPC  H15A20636   6.503   0.598   7.301 -1.4686  1.1081  0.2598
  170DOPC  H15B20637   6.517   0.631   7.474  0.0471  0.1064 -0.0997
  170DOPC  H15C20638   6.651   0.630   7.379 -0.5287 -2.5319 -0.6418
  170DOPC   C1120639   6.574   0.937   7.100 -0.8853 -0.0802 -0.3496
  170DOPC  H11A20640   6.598   0.918   6.993  0.1332  2.5144 -0.6357
  170DOPC  H11B20641   6.473   0.985   7.101 -0.0909  1.6550  0.6902
  170DOPC     P20642   6.813   1.030   7.095  0.2435 -0.1688 -0.2636
  170DOPC   O1320643   6.861   0.893   7.122 -0.5518 -0.0906 -0.4112
  170DOPC   O1420644   6.885   1.150   7.150  0.4605 -0.1736  0.0809
  170DOPC   O1220645   6.668   1.037   7.144 -0.2615  0.2445  0.3564
  170DOPC   O1120646   6.795   1.053   6.944 -0.3572  0.3910  0.0801
  170DOPC    C120647   6.722   1.175   6.899  0.2128  0.4792 -0.5977
  170DOPC    HA20648   6.750   1.265   6.958 -0.7418  0.0137  0.6124
  170DOPC    HB20649   6.612   1.159   6.908  0.1154  1.5882  0.5023
  170DOPC    C220650   6.761   1.203   6.752 -0.3069  0.6417  0.4329
  170DOPC    HS20651   6.726   1.305   6.726  0.1410  0.9174  0.8923
  170DOPC   O2120652   6.714   1.104   6.652  0.1482 -0.0286 -0.4105
  170DOPC   C2120653   6.581   1.081   6.642 -0.7578  0.4622  0.6043
  170DOPC   O2220654   6.497   1.148   6.692 -0.2234 -1.2354 -0.0055
  170DOPC   C2220655   6.561   0.963   6.542  0.2947  0.9311  0.0809
  170DOPC   H2R20656   6.615   0.871   6.573 -1.7611 -0.4590 -0.3318
  170DOPC   H2S20657   6.609   0.997   6.448 -1.3314  0.7804 -0.8256
  170DOPC    C320658   6.918   1.208   6.734  0.3514  0.5132  0.1253
  170DOPC    HX20659   6.952   1.115   6.784 -0.9318 -0.1381 -0.1707
  170DOPC    HY20660   6.958   1.295   6.790  0.3986  0.0925  0.7488
  170DOPC   O3120661   6.956   1.222   6.597  0.0462  0.0283 -0.0842
  170DOPC   C3120662   6.983   1.108   6.538 -0.0991  0.5051 -0.4248
  170DOPC   O3220663   6.997   0.998   6.589  0.3852 -0.3192  0.5392
  170DOPC   C3220664   7.021   1.130   6.398  0.0911  0.4002 -0.3558
  170DOPC   H2X20665   6.927   1.107   6.342 -0.7545 -0.2905  1.2843
  170DOPC   H2Y20666   7.047   1.238   6.389  0.7729  0.3935  1.2109
  170DOPC   C2320667   6.410   0.942   6.522 -0.1701  0.4388 -0.5881
  170DOPC   H3R20668   6.362   1.036   6.487 -1.0461 -0.0297 -0.6771
  170DOPC   H3S20669   6.364   0.912   6.618 -1.2992  1.9239 -0.6298
  170DOPC   C2420670   6.373   0.852   6.406 -0.5799 -0.0968  0.0548
  170DOPC   H4R20671   6.264   0.832   6.406 -0.3895 -1.3857  1.9775
  170DOPC   H4S20672   6.406   0.747   6.420 -0.3988 -0.2699 -1.4787
  170DOPC   C2520673   6.424   0.901   6.272  0.5268 -0.4189 -0.4245
  170DOPC   H5R20674   6.532   0.916   6.254  0.6999  0.5697  1.1857
  170DOPC   H5S20675   6.380   1.003   6.265 -2.9949 -1.7377  0.4705
  170DOPC   C2620676   6.372   0.828   6.149 -0.2110  0.1388 -0.1208
  170DOPC   H6R20677   6.367   0.897   6.062 -1.0897  2.1036  1.4164
  170DOPC   H6S20678   6.265   0.800   6.159 -0.2796 -1.5270 -3.8346
  170DOPC   C2720679   6.442   0.699   6.113  1.2302  0.2091 -0.0473
  170DOPC   H7R20680   6.375   0.631   6.056 -0.8959  0.4435  2.0397
  170DOPC   H7S20681   6.455   0.642   6.208 -0.8198 -1.0086 -0.4328
  170DOPC   C2820682   6.572   0.719   6.030 -0.5198 -0.7336 -0.0190
  170DOPC   H8R20683   6.648   0.765   6.097  0.1296 -1.4852 -0.2298
  170DOPC   H8S20684   6.552   0.798   5.954  2.8736 -1.2726 -1.6731
  170DOPC   C2920685   6.649   0.613   5.961 -0.0252  0.0571 -0.0156
  170DOPC   H9R20686   6.748   0.645   5.926 -0.0170 -2.5324 -2.7848
  170DOPC  C21020687   6.630   0.484   5.955 -0.0131  1.2297 -0.4025
  170DOPC  H10R20688   6.706   0.432   5.894  0.3175 -0.4866  1.3954
  170DOPC  C21120689   6.525   0.393   6.005  0.3211  0.0504 -0.6730
  170DOPC  H11R20690   6.441   0.438   6.062  0.9590 -0.0366  0.3558
  170DOPC  H11S20691   6.571   0.321   6.076 -4.4564 -2.6542  0.1316
  170DOPC  C21220692   6.475   0.286   5.901  0.1881  0.3503  0.6027
  170DOPC  H12R20693   6.437   0.347   5.816  2.0007 -1.6010 -1.7548
  170DOPC  H12S20694   6.387   0.232   5.943  0.8410 -0.7119  0.6402
  170DOPC  C21320695   6.579   0.183   5.853 -0.3353 -0.7926  0.3259
  170DOPC  H13R20696   6.619   0.130   5.942 -0.7349 -2.6886 -0.5613
  170DOPC  H13S20697   6.665   0.239   5.811 -0.3508 -1.3390 -0.4546
  170DOPC  C21420698   6.530   0.084   5.746 -0.1095  0.0684  0.2455
  170DOPC  H14R20699   6.432   0.045   5.780  0.5544 -2.0522 -0.1355
  170DOPC  H14S20700   6.605   0.003   5.751  0.7261  0.6134 -2.0095
  170DOPC  C21520701   6.499   0.149   5.611 -0.0698 -0.3300  0.0310
  170DOPC  H15R20702   6.574   0.230   5.596  1.3762 -1.7444 -0.6331
  170DOPC  H15S20703   6.406   0.208   5.628  0.2997  0.4235 -0.4915
  170DOPC  C21620704   6.488   0.056   5.495  0.1937 -0.2969  1.0997
  170DOPC  H16R20705   6.408  -0.020   5.512 -0.2444  0.3981  2.2791
  170DOPC  H16S20706   6.583  -0.001   5.499  0.0887 -0.4627  1.3395
  170DOPC  C21720707   6.497   0.125   5.355  0.5249 -1.3235 -0.3439
  170DOPC  H17R20708   6.582   0.195   5.369 -0.6882 -0.1148  1.3723
  170DOPC  H17S20709   6.403   0.181   5.335  0.9500 -0.8128 -0.9642
  170DOPC  C21820710   6.532   0.034   5.240  0.0779 -0.0912 -0.8896
  170DOPC  H18R20711   6.494   0.080   5.147  0.0789  0.7391 -0.4909
  170DOPC  H18S20712   6.487  -0.063   5.269  0.8130  0.6294  3.4156
  170DOPC  H18T20713   6.642   0.018   5.234  0.3526 -0.1761  2.2807
  170DOPC   C3320714   7.148   1.037   6.356 -0.3570 -1.0093  0.7709
  170DOPC   H3X20715   7.122   0.938   6.399  0.4447 -0.9711  1.3545
  170DOPC   H3Y20716   7.239   1.079   6.404  0.9650 -2.0480 -0.7344
  170DOPC   C3420717   7.171   1.017   6.205 -0.3184  0.5111 -0.6282
  170DOPC   H4X20718   7.182   1.118   6.159  2.4403  0.5095 -0.1338
  170DOPC   H4Y20719   7.078   0.970   6.165 -0.8622  1.1593 -0.1409
  170DOPC   C3520720   7.295   0.935   6.172  0.8930 -0.7171  0.2092
  170DOPC   H5X20721   7.292   0.842   6.233 -0.3668  0.0696  1.4035
  170DOPC   H5Y20722   7.386   0.994   6.197  0.0964  0.8809 -0.5955
  170DOPC   C3620723   7.302   0.895   6.022 -0.5995 -0.5367 -0.2164
  170DOPC   H6X20724   7.378   0.817   6.002 -1.0659 -0.7223 -1.3538
  170DOPC   H6Y20725   7.206   0.843   6.002 -0.7684  0.2112 -1.4578
  170DOPC   C3720726   7.311   1.021   5.933  0.3583  0.2830  0.1861
  170DOPC   H7X20727   7.218   1.081   5.937  1.6862  2.4359  0.3967
  170DOPC   H7Y20728   7.386   1.093   5.972  0.7267  0.4921 -0.8642
  170DOPC   C3820729   7.330   0.989   5.784  0.1738  0.6568  0.5850
  170DOPC   H8X20730   7.413   0.918   5.762  1.0935  2.2389 -1.4067
  170DOPC   H8Y20731   7.337   1.084   5.727  0.9575  1.6543  2.2798
  170DOPC   C3920732   7.206   0.928   5.737  0.4248  0.4011 -0.1371
  170DOPC   H9X20733   7.129   0.905   5.812  0.7413 -1.4730 -0.3365
  170DOPC  C31020734   7.172   0.895   5.611 -0.0681 -1.0506  0.2733
  170DOPC  H10X20735   7.074   0.851   5.592 -0.7350  0.5134 -0.0941
  170DOPC  C31120736   7.265   0.909   5.495 -0.3445  0.5472 -0.6694
  170DOPC  H11X20737   7.246   0.826   5.425  0.5249  0.0299 -0.3037
  170DOPC  H11Y20738   7.369   0.921   5.532 -0.1008 -1.8876 -0.4277
  170DOPC  C31220739   7.244   1.031   5.405  0.4694  0.0411 -0.4759
  170DOPC  H12X20740   7.299   1.020   5.309 -2.3181  1.6940 -2.4141
  170DOPC  H12Y20741   7.270   1.128   5.454 -2.5124  0.7516 -0.0856
  170DOPC  C31320742   7.099   1.052   5.358  0.1368  0.1523  0.0959
  170DOPC  H13X20743   7.072   0.963   5.297 -0.2783  1.5691 -1.8935
  170DOPC  H13Y20744   7.047   1.063   5.455  2.5807 -0.7468  1.5996
  170DOPC  C31420745   7.066   1.178   5.279 -0.2523  0.0086  0.2097
  170DOPC  H14X20746   7.120   1.272   5.306 -0.2665  0.2023 -0.4354
  170DOPC  H14Y20747   7.098   1.160   5.175 -0.5151 -0.4915  0.2163
  170DOPC  C31520748   6.913   1.215   5.298 -0.9220 -0.2429 -0.5802
  170DOPC  H15X20749   6.906   1.251   5.402  0.4566  0.6327 -0.7627
  170DOPC  H15Y20750   6.861   1.118   5.282 -1.1387  0.0625 -1.8710
  170DOPC  C31620751   6.851   1.323   5.205 -0.4705  0.6363 -0.4560
  170DOPC  H16X20752   6.893   1.426   5.209  2.2165 -0.3624 -0.6791
  170DOPC  H16Y20753   6.872   1.284   5.103  1.3166  2.1032 -0.6914
  170DOPC  C31720754   6.699   1.324   5.232  0.0589 -0.0233  0.6456
  170DOPC  H17X20755   6.644   1.398   5.170 -0.8138 -1.4725 -0.3852
  170DOPC  H17Y20756   6.658   1.224   5.206  0.8948  0.0493 -1.0812
  170DOPC  C31820757   6.666   1.357   5.377  0.0418  0.2858 -0.1079
  170DOPC  H18X20758   6.560   1.389   5.385 -0.3865 -0.5320 -2.0390
  170DOPC  H18Y20759   6.676   1.263   5.435  0.0545  0.1300 -0.3642
  170DOPC  H18Z20760   6.729   1.439   5.418 -0.3776  0.7301 -0.3413
  171DOPC     N20761   2.023   3.474   2.289  0.5147 -0.6284 -0.1556
  171DOPC   C1220762   2.079   3.388   2.397 -0.0464 -0.1363 -0.2122
  171DOPC  H12A20763   2.183   3.413   2.409  0.7360 -3.1654 -0.0634
  171DOPC  H12B20764   2.080   3.288   2.356 -1.1938 -0.6399  0.9328
  171DOPC   C1320765   2.134   3.483   2.187 -0.2898 -0.2921  0.3904
  171DOPC  H13A20766   2.217   3.546   2.214 -1.2810  1.2187  0.1004
  171DOPC  H13B20767   2.177   3.387   2.168 -1.3172 -0.7262  0.1596
  171DOPC  H13C20768   2.091   3.517   2.094  0.9040 -1.2016 -0.5021
  171DOPC   C1420769   2.006   3.613   2.343 -0.6061 -0.1032  0.0758
  171DOPC  H14A20770   1.925   3.623   2.414 -0.8767 -0.0446 -0.2396
  171DOPC  H14B20771   2.097   3.653   2.384 -1.2844  2.8509 -1.0470
  171DOPC  H14C20772   1.981   3.683   2.264 -1.8155 -1.1398 -0.5095
  171DOPC   C1520773   1.902   3.419   2.232  0.1718  0.5007 -0.2513
  171DOPC  H15A20774   1.824   3.403   2.305 -0.7238  2.4528 -0.7147
  171DOPC  H15B20775   1.927   3.323   2.189  0.4709 -0.0986  1.2143
  171DOPC  H15C20776   1.852   3.480   2.159 -1.8278  0.2185  0.7973
  171DOPC   C1120777   2.015   3.373   2.538  0.2584 -0.4457  0.0511
  171DOPC  H11A20778   2.072   3.294   2.591  1.2049  2.3501  3.5829
  171DOPC  H11B20779   2.028   3.463   2.603 -0.8882  0.5886 -1.0877
  171DOPC     P20780   1.758   3.417   2.562 -0.0433 -0.2694  0.1808
  171DOPC   O1320781   1.661   3.379   2.457  0.7095  0.2440  0.1566
  171DOPC   O1420782   1.798   3.560   2.567 -0.6759 -0.2352 -0.2935
  171DOPC   O1220783   1.879   3.326   2.533  0.4079  0.3847  0.2543
  171DOPC   O1120784   1.705   3.369   2.703  0.0362 -0.1263  0.3044
  171DOPC    C120785   1.757   3.420   2.825  0.5292 -0.2876  0.5099
  171DOPC    HA20786   1.687   3.493   2.870 -1.6326 -2.2279  0.4818
  171DOPC    HB20787   1.854   3.470   2.806 -0.3917  0.8117 -1.6929
  171DOPC    C220788   1.780   3.301   2.920  0.1579  0.3594  0.1430
  171DOPC    HS20789   1.680   3.255   2.929  0.2993  0.0887  0.3444
  171DOPC   O2120790   1.831   3.346   3.045  0.5650 -0.0952 -0.5274
  171DOPC   C2120791   1.754   3.401   3.141  0.0760 -0.3598  0.4751
  171DOPC   O2220792   1.635   3.416   3.129  0.2802 -0.0226 -0.7633
  171DOPC   C2220793   1.831   3.461   3.261 -0.7044 -0.3567 -0.0898
  171DOPC   H2R20794   1.898   3.543   3.227  0.4142 -0.1173  2.4079
  171DOPC   H2S20795   1.891   3.373   3.295  2.3784  0.2157 -3.4476
  171DOPC    C320796   1.852   3.182   2.863  0.3592 -0.2292 -0.1493
  171DOPC    HX20797   1.960   3.203   2.851  1.2010 -4.3337 -1.2353
  171DOPC    HY20798   1.815   3.147   2.764  1.8930 -0.6360 -0.5902
  171DOPC   O3120799   1.832   3.080   2.956  1.1177 -1.2613  0.0579
  171DOPC   C3120800   1.933   3.058   3.050  0.6169  0.1526  1.3803
  171DOPC   O3220801   2.050   3.091   3.043  0.1567  0.4200  0.2309
  171DOPC   C3220802   1.876   2.975   3.158  0.2962 -0.5831 -0.1469
  171DOPC   H2X20803   1.770   2.941   3.157 -0.0004  0.3196 -1.4044
  171DOPC   H2Y20804   1.939   2.884   3.163 -0.2225 -0.8798  2.9270
  171DOPC   C2320805   1.746   3.496   3.384 -0.0979  0.7402  0.9563
  171DOPC   H3R20806   1.661   3.426   3.399 -1.0979  1.5111 -0.8317
  171DOPC   H3S20807   1.692   3.591   3.364 -0.7530  0.2989  0.5962
  171DOPC   C2420808   1.831   3.501   3.520  0.0875 -0.7985 -0.3305
  171DOPC   H4R20809   1.930   3.551   3.511 -0.4394  0.0892 -1.3976
  171DOPC   H4S20810   1.857   3.397   3.550 -1.8466 -1.6670 -1.4758
  171DOPC   C2520811   1.748   3.566   3.636 -0.4172 -0.1505 -0.3935
  171DOPC   H5R20812   1.659   3.502   3.653 -0.1273  0.1898  3.4599
  171DOPC   H5S20813   1.713   3.667   3.605  0.6112  0.5631  0.6996
  171DOPC   C2620814   1.833   3.569   3.768 -0.2484  0.5730  0.1021
  171DOPC   H6R20815   1.919   3.638   3.758 -0.6475  0.9245 -1.0860
  171DOPC   H6S20816   1.868   3.464   3.777 -1.1265  0.1685 -0.9974
  171DOPC   C2720817   1.751   3.600   3.894 -0.1790 -0.0110 -0.0746
  171DOPC   H7R20818   1.666   3.528   3.901 -0.9762  0.9280  0.0949
  171DOPC   H7S20819   1.696   3.695   3.882  0.8465  0.7258  0.8576
  171DOPC   C2820820   1.839   3.606   4.023 -0.2774  0.3212 -0.1866
  171DOPC   H8R20821   1.787   3.659   4.105 -1.2978 -0.1792 -0.4870
  171DOPC   H8S20822   1.926   3.670   4.002  0.7811 -0.1911  2.3223
  171DOPC   C2920823   1.888   3.467   4.073  0.7860  0.2562 -0.3347
  171DOPC   H9R20824   1.950   3.410   4.002  1.9125 -0.2975  1.0581
  171DOPC  C21020825   1.848   3.415   4.193 -0.0923 -0.6985 -0.2045
  171DOPC  H10R20826   1.893   3.326   4.239  0.1113 -0.0553  0.8844
  171DOPC  C21120827   1.744   3.453   4.300 -0.4587  0.0737  0.1418
  171DOPC  H11R20828   1.800   3.490   4.388 -2.5517 -1.1896  2.1277
  171DOPC  H11S20829   1.688   3.365   4.338  0.4266  0.2280  1.9163
  171DOPC  C21220830   1.638   3.560   4.272  0.5086  0.3539 -0.5636
  171DOPC  H12R20831   1.572   3.532   4.187  2.1456  0.9194 -2.0930
  171DOPC  H12S20832   1.680   3.662   4.254  0.2726  0.5826  0.1464
  171DOPC  C21320833   1.542   3.575   4.397  0.2416  0.2095  0.1970
  171DOPC  H13R20834   1.493   3.476   4.410  0.0910  0.5215  2.3188
  171DOPC  H13S20835   1.465   3.654   4.380 -0.6149 -0.4193  1.0575
  171DOPC  C21420836   1.615   3.623   4.519 -0.2716  0.6141  0.7769
  171DOPC  H14R20837   1.673   3.714   4.489  0.9766 -0.0728  1.0326
  171DOPC  H14S20838   1.689   3.544   4.540 -0.6627 -1.0850 -3.2718
  171DOPC  C21520839   1.516   3.649   4.629  0.2257  0.8157 -0.2636
  171DOPC  H15R20840   1.442   3.728   4.603  1.3003  2.3284  1.1012
  171DOPC  H15S20841   1.577   3.675   4.718 -0.3886  1.9280 -0.1586
  171DOPC  C21620842   1.455   3.519   4.684  0.1607 -0.4780 -0.0917
  171DOPC  H16R20843   1.376   3.476   4.619  0.8193 -1.1770 -0.4387
  171DOPC  H16S20844   1.397   3.538   4.777 -0.3135  0.3970 -0.5510
  171DOPC  C21720845   1.542   3.400   4.714 -0.9047  0.2211 -0.0278
  171DOPC  H17R20846   1.630   3.426   4.776 -0.4132  0.3628 -0.7646
  171DOPC  H17S20847   1.579   3.381   4.611 -3.1612  2.2220 -1.3283
  171DOPC  C21820848   1.480   3.279   4.783 -0.5461  0.8083  0.4435
  171DOPC  H18R20849   1.558   3.212   4.825  0.3370  0.8552 -1.0640
  171DOPC  H18S20850   1.417   3.223   4.710  0.2071  0.7760 -0.1866
  171DOPC  H18T20851   1.425   3.306   4.876 -0.6357  1.1940  0.2788
  171DOPC   C3320852   1.883   3.039   3.297  0.2597  0.1172 -0.6186
  171DOPC   H3X20853   1.813   3.126   3.294  0.3876  0.3294  1.3995
  171DOPC   H3Y20854   1.989   3.065   3.317  0.1051  0.7202 -0.5614
  171DOPC   C3420855   1.854   2.936   3.412 -0.5152 -1.0400 -1.0731
  171DOPC   H4X20856   1.931   2.862   3.442 -1.1898 -1.1361  0.5467
  171DOPC   H4Y20857   1.770   2.874   3.374 -0.0696 -2.7006  0.5046
  171DOPC   C3520858   1.819   3.007   3.545  0.2148  0.8978 -0.4662
  171DOPC   H5X20859   1.786   2.923   3.611 -1.4722  0.7252 -1.4847
  171DOPC   H5Y20860   1.726   3.065   3.526 -0.5265 -0.2548 -0.4681
  171DOPC   C3620861   1.917   3.096   3.611  0.1589 -0.2265  0.0527
  171DOPC   H6X20862   2.004   3.039   3.648  0.8570 -0.2408 -1.5072
  171DOPC   H6Y20863   1.953   3.169   3.534 -0.6319 -1.0805 -1.1658
  171DOPC   C3720864   1.875   3.175   3.737 -0.0164 -0.4744  0.1600
  171DOPC   H7X20865   1.958   3.226   3.789  0.5703  0.0637 -1.2406
  171DOPC   H7Y20866   1.802   3.249   3.700  2.0409  1.6944  0.2167
  171DOPC   C3820867   1.791   3.090   3.832 -0.5358 -0.0676  0.4207
  171DOPC   H8X20868   1.692   3.062   3.790 -1.7681  1.3477  2.2006
  171DOPC   H8Y20869   1.762   3.155   3.918  0.5527 -1.4665  1.9051
  171DOPC   C3920870   1.870   2.975   3.893  0.5085  0.0111  0.0552
  171DOPC   H9X20871   1.906   2.901   3.820  2.1124  0.6935  0.1114
  171DOPC  C31020872   1.910   2.958   4.019 -0.1616  0.2580 -0.3199
  171DOPC  H10X20873   1.961   2.865   4.048 -1.9868 -1.2601 -1.7568
  171DOPC  C31120874   1.889   3.037   4.143 -0.3222 -1.4161 -0.0746
  171DOPC  H11X20875   1.844   3.134   4.113  0.5567 -0.7496  0.7293
  171DOPC  H11Y20876   1.988   3.062   4.186  0.7424 -0.3791 -2.8976
  171DOPC  C31220877   1.812   2.968   4.248 -0.2308  0.2996 -0.0886
  171DOPC  H12X20878   1.885   2.893   4.284  1.6655  2.4865  0.8348
  171DOPC  H12Y20879   1.726   2.911   4.205 -0.0112 -0.0060 -0.1238
  171DOPC  C31320880   1.764   3.053   4.358  0.1858 -0.5927 -0.0136
  171DOPC  H13X20881   1.848   3.095   4.417 -1.6048  0.7419  1.7115
  171DOPC  H13Y20882   1.684   3.124   4.330  0.2137 -0.2109  0.8596
  171DOPC  C31420883   1.691   2.975   4.467 -0.2109 -0.3297 -0.9317
  171DOPC  H14X20884   1.663   3.053   4.541 -0.4457  0.6093 -1.9867
  171DOPC  H14Y20885   1.604   2.927   4.417 -0.6350  0.8222 -1.3471
  171DOPC  C31520886   1.779   2.871   4.539  0.3954  0.3683  0.4102
  171DOPC  H15X20887   1.869   2.926   4.574 -0.3093  2.6292 -1.0948
  171DOPC  H15Y20888   1.802   2.784   4.473 -2.1389 -1.0135  1.1930
  171DOPC  C31620889   1.700   2.818   4.666 -0.3478 -0.1561  0.3774
  171DOPC  H16X20890   1.667   2.904   4.728  0.2090  0.8236 -0.6321
  171DOPC  H16Y20891   1.606   2.772   4.629  0.1827  0.4561 -1.9573
  171DOPC  C31720892   1.790   2.724   4.752 -0.1494 -0.5087 -0.4425
  171DOPC  H17X20893   1.846   2.652   4.688  1.2179 -0.8769  1.0863
  171DOPC  H17Y20894   1.878   2.772   4.801 -1.1328 -0.9375  1.8651
  171DOPC  C31820895   1.698   2.656   4.853  0.2374 -0.3426 -0.7829
  171DOPC  H18X20896   1.756   2.615   4.938  1.5112  2.7118 -0.0422
  171DOPC  H18Y20897   1.640   2.746   4.882 -0.7791  0.3118 -4.3497
  171DOPC  H18Z20898   1.630   2.588   4.798 -2.3313 -0.6835  2.4470
  172DOPC     N20899   3.211   5.550   3.101 -0.1522 -0.2447 -0.3997
  172DOPC   C1220900   3.274   5.503   3.234 -0.0696  0.7781  0.1999
  172DOPC  H12A20901   3.201   5.507   3.313  0.6385  1.9864  0.8279
  172DOPC  H12B20902   3.345   5.579   3.264 -0.1488  0.9129  0.0507
  172DOPC   C1320903   3.114   5.454   3.057 -0.5632 -0.4150  0.3426
  172DOPC  H13A20904   3.061   5.498   2.974 -2.3493  1.2001  2.2038
  172DOPC  H13B20905   3.169   5.363   3.038 -0.3248 -0.3843  0.8671
  172DOPC  H13C20906   3.037   5.442   3.132  0.0994 -0.1939  1.0732
  172DOPC   C1420907   3.310   5.582   3.000  0.0947  0.4458  0.5386
  172DOPC  H14A20908   3.356   5.492   2.960  1.8712  2.1567 -1.5569
  172DOPC  H14B20909   3.260   5.636   2.920 -0.8118 -1.8186 -0.5143
  172DOPC  H14C20910   3.383   5.653   3.035  1.5508 -0.0356 -1.3669
  172DOPC   C1520911   3.130   5.665   3.155  0.3968  0.1911 -0.2007
  172DOPC  H15A20912   3.182   5.738   3.216  0.7806 -2.5403  3.0723
  172DOPC  H15B20913   3.041   5.628   3.205 -0.0890 -0.4337 -1.4865
  172DOPC  H15C20914   3.101   5.718   3.066  0.6928  1.7542  0.5891
  172DOPC   C1120915   3.341   5.364   3.232 -0.1918 -0.5058  0.0817
  172DOPC  H11A20916   3.354   5.325   3.335 -0.3540 -0.0300  0.2896
  172DOPC  H11B20917   3.268   5.288   3.195 -1.4909  0.7408 -0.0221
  172DOPC     P20918   3.597   5.424   3.214 -0.0592  0.2846  0.0760
  172DOPC   O1320919   3.600   5.563   3.167  0.3930  0.6459  0.1638
  172DOPC   O1420920   3.709   5.332   3.181 -0.0683 -0.9583  0.0291
  172DOPC   O1220921   3.466   5.355   3.158  0.2563  0.2401  0.7340
  172DOPC   O1120922   3.575   5.429   3.373 -0.6904  0.4584  0.2979
  172DOPC    C120923   3.690   5.393   3.446  0.0010 -0.3718 -0.8750
  172DOPC    HA20924   3.780   5.457   3.438 -0.5069  0.6639  1.0469
  172DOPC    HB20925   3.732   5.296   3.412  0.4564 -0.7050  0.5394
  172DOPC    C220926   3.671   5.370   3.605 -0.3045  0.1836  0.1939
  172DOPC    HS20927   3.770   5.359   3.655 -0.9182 -2.4927  0.9695
  172DOPC   O2120928   3.600   5.249   3.628  0.1657 -0.1123 -0.4840
  172DOPC   C2120929   3.661   5.128   3.630  0.4765  0.2372  0.4328
  172DOPC   O2220930   3.770   5.099   3.586 -0.1222 -0.0987 -0.1417
  172DOPC   C2220931   3.572   5.019   3.704  0.0917 -0.4311  0.3096
  172DOPC   H2R20932   3.651   4.943   3.723  1.7711  0.9863 -0.5956
  172DOPC   H2S20933   3.502   4.988   3.624  0.1885  1.0402 -0.3827
  172DOPC    C320934   3.582   5.480   3.662  0.0854 -0.3913  0.5493
  172DOPC    HX20935   3.479   5.458   3.629  0.1486 -2.5103  1.5765
  172DOPC    HY20936   3.616   5.578   3.622 -0.2900 -1.5195 -2.8485
  172DOPC   O3120937   3.585   5.477   3.812  0.5953  0.4307  0.7432
  172DOPC   C3120938   3.672   5.557   3.873  0.0951 -0.3870  0.3072
  172DOPC   O3220939   3.752   5.632   3.820  0.5627  0.3958  0.2728
  172DOPC   C3220940   3.666   5.545   4.024 -0.1791  0.1161 -0.0798
  172DOPC   H2X20941   3.571   5.590   4.061 -0.3469  0.1821 -0.5854
  172DOPC   H2Y20942   3.673   5.438   4.056  2.8488  0.0168 -0.8309
  172DOPC   C2320943   3.501   5.079   3.824 -0.2315  0.2982  1.6056
  172DOPC   H3R20944   3.474   4.987   3.881  0.3267 -0.6554  0.3878
  172DOPC   H3S20945   3.414   5.144   3.804 -0.0056  0.2335  0.3476
  172DOPC   C2420946   3.607   5.128   3.926 -0.0115 -0.2965  0.4176
  172DOPC   H4R20947   3.647   5.227   3.894 -0.1753 -1.2608 -3.1836
  172DOPC   H4S20948   3.697   5.063   3.928  2.4489  2.7356 -1.5690
  172DOPC   C2520949   3.547   5.144   4.062  0.4399  0.1620 -0.3124
  172DOPC   H5R20950   3.478   5.061   4.087  0.1220  0.5336  0.0683
  172DOPC   H5S20951   3.492   5.241   4.066  0.8261  0.3514  0.7487
  172DOPC   C2620952   3.655   5.141   4.171 -0.0275  0.8150  0.0952
  172DOPC   H6R20953   3.739   5.212   4.157 -1.0978  2.2200  0.4944
  172DOPC   H6S20954   3.683   5.034   4.169 -1.1953  0.4059  2.1039
  172DOPC   C2720955   3.592   5.157   4.311  0.0543 -0.1864  0.1477
  172DOPC   H7R20956   3.518   5.079   4.338 -1.3241  2.1018  3.6172
  172DOPC   H7S20957   3.538   5.253   4.329 -2.1716 -1.3767  0.2107
  172DOPC   C2820958   3.698   5.139   4.420  0.0387 -0.1176  0.0879
  172DOPC   H8R20959   3.766   5.227   4.411 -0.6790  0.4995  0.5143
  172DOPC   H8S20960   3.759   5.047   4.416  0.2522 -0.0047  0.6634
  172DOPC   C2920961   3.627   5.146   4.552  0.3624  0.7515  1.1748
  172DOPC   H9R20962   3.548   5.222   4.542 -0.1934 -0.0069 -0.7003
  172DOPC  C21020963   3.620   5.059   4.654  0.0610  0.4298 -0.2178
  172DOPC  H10R20964   3.559   5.069   4.744  1.0685 -1.6969  0.7689
  172DOPC  C21120965   3.687   4.928   4.661  0.1174  0.6454 -0.3435
  172DOPC  H11R20966   3.768   4.915   4.586 -1.5936 -1.9010 -1.8822
  172DOPC  H11S20967   3.613   4.848   4.641 -0.3986  0.6928  1.2251
  172DOPC  C21220968   3.746   4.899   4.796  0.8894  0.2302 -0.4283
  172DOPC  H12R20969   3.669   4.892   4.876  1.0824  1.2530 -0.1340
  172DOPC  H12S20970   3.814   4.981   4.828 -0.4925  0.7339  1.3852
  172DOPC  C21320971   3.833   4.771   4.805 -0.2123 -0.0107  0.2185
  172DOPC  H13R20972   3.903   4.771   4.719  0.1807  1.7570  0.5063
  172DOPC  H13S20973   3.773   4.677   4.800  0.7480 -0.6767  0.8888
  172DOPC  C21420974   3.920   4.750   4.931 -0.4200  0.3028  0.1476
  172DOPC  H14R20975   3.988   4.834   4.953 -1.9503  1.0291  2.4785
  172DOPC  H14S20976   3.977   4.656   4.913  0.2033  0.9820 -1.6561
  172DOPC  C21520977   3.826   4.728   5.045 -0.1957 -0.3330  0.3330
  172DOPC  H15R20978   3.744   4.663   5.009  1.2231 -2.6724  1.0943
  172DOPC  H15S20979   3.788   4.831   5.065 -1.6815 -0.8494  0.2405
  172DOPC  C21620980   3.892   4.663   5.174 -0.3398 -0.3863  0.6074
  172DOPC  H16R20981   3.948   4.572   5.142 -0.8792  0.1204 -1.9584
  172DOPC  H16S20982   3.814   4.640   5.249  0.7926 -0.3445  1.8432
  172DOPC  C21720983   3.999   4.760   5.237  0.0364  0.2560  0.0563
  172DOPC  H17R20984   3.959   4.864   5.236 -0.0776  0.2124  0.1073
  172DOPC  H17S20985   4.082   4.766   5.162 -1.4194  0.3252 -1.6258
  172DOPC  C21820986   4.041   4.717   5.373  0.1668  0.0773  0.7254
  172DOPC  H18R20987   4.087   4.616   5.362 -0.6551 -0.1566 -0.8216
  172DOPC  H18S20988   3.956   4.715   5.444 -0.0546  2.0387  0.5795
  172DOPC  H18T20989   4.112   4.792   5.414  2.3452 -0.6334 -1.4969
  172DOPC   C3320990   3.788   5.618   4.084 -1.0343  0.2535  0.8099
  172DOPC   H3X20991   3.758   5.723   4.068 -1.7234 -0.2283 -1.4713
  172DOPC   H3Y20992   3.879   5.589   4.028 -1.3290  1.9647 -0.6553
  172DOPC   C3420993   3.824   5.594   4.235 -0.4701  0.8982 -0.9774
  172DOPC   H4X20994   3.883   5.683   4.267 -1.4718  0.9900  0.7204
  172DOPC   H4Y20995   3.890   5.507   4.256 -1.3196  0.7299  1.2194
  172DOPC   C3520996   3.705   5.584   4.330  0.4328  0.6537 -0.0331
  172DOPC   H5X20997   3.664   5.481   4.335  1.9268 -0.0205 -0.9468
  172DOPC   H5Y20998   3.639   5.665   4.291 -0.0607 -1.0690 -3.0667
  172DOPC   C3620999   3.751   5.610   4.475 -0.0996 -0.0017  0.1713
  172DOPC   H6X21000   3.827   5.532   4.496 -1.5500 -0.9037  2.3214
  172DOPC   H6Y21001   3.796   5.711   4.488 -1.1966  0.1509  3.7691
  172DOPC   C3721002   3.636   5.602   4.581  0.0140 -0.1212 -0.7575
  172DOPC   H7X21003   3.558   5.674   4.548  1.0442  1.8726  0.8875
  172DOPC   H7Y21004   3.602   5.497   4.568 -1.5524  0.2671  0.0087
  172DOPC   C3821005   3.667   5.621   4.731  0.4224  0.1832 -0.0843
  172DOPC   H8X21006   3.574   5.617   4.791 -0.1432 -0.7993 -0.9783
  172DOPC   H8Y21007   3.709   5.724   4.731 -1.6344  1.0724 -0.8728
  172DOPC   C3921008   3.758   5.515   4.784 -0.1616 -0.2222 -0.7247
  172DOPC   H9X21009   3.844   5.506   4.715 -0.4630 -0.7245 -1.0379
  172DOPC  C31021010   3.756   5.434   4.894  0.3135 -0.6415  0.1944
  172DOPC  H10X21011   3.834   5.357   4.900  0.6995 -0.6009 -2.8808
  172DOPC  C31121012   3.651   5.430   5.003 -0.2201 -0.5737 -0.5879
  172DOPC  H11X21013   3.622   5.328   5.036 -1.6403  0.1078  0.3608
  172DOPC  H11Y21014   3.564   5.494   4.976  0.3458 -0.1160 -1.4132
  172DOPC  C31221015   3.709   5.518   5.122 -0.8544 -0.5339 -0.2171
  172DOPC  H12X21016   3.711   5.623   5.087 -1.1170 -0.4851 -0.0882
  172DOPC  H12Y21017   3.807   5.477   5.153 -0.1439 -0.9970 -2.8234
  172DOPC  C31321018   3.623   5.525   5.248  0.5151  0.4614  0.4663
  172DOPC  H13X21019   3.520   5.545   5.211  0.3251 -0.6791  0.3548
  172DOPC  H13Y21020   3.619   5.421   5.288  0.4327  0.8797  1.5670
  172DOPC  C31421021   3.674   5.615   5.360  0.0240  0.3129  0.2347
  172DOPC  H14X21022   3.781   5.590   5.373 -0.2720 -0.3103  1.6447
  172DOPC  H14Y21023   3.662   5.723   5.336  1.3218  0.5118  0.4416
  172DOPC  C31521024   3.600   5.580   5.489  0.0201 -0.1003  0.0097
  172DOPC  H15X21025   3.606   5.478   5.533 -2.0328 -0.0176  0.5762
  172DOPC  H15Y21026   3.496   5.594   5.452  0.6388 -0.1069 -1.7898
  172DOPC  C31621027   3.637   5.664   5.614 -0.9001 -0.1048 -0.6615
  172DOPC  H16X21028   3.646   5.771   5.586  0.3268  0.4933  1.7868
  172DOPC  H16Y21029   3.549   5.660   5.682 -0.4963 -2.0689 -0.1931
  172DOPC  C31721030   3.768   5.617   5.672 -0.0021 -0.0442 -0.3675
  172DOPC  H17X21031   3.762   5.511   5.706  0.8494  0.4125  1.3326
  172DOPC  H17Y21032   3.844   5.624   5.591 -2.5673  1.2599 -2.8155
  172DOPC  C31821033   3.798   5.702   5.805  0.2027  0.4638  0.1302
  172DOPC  H18X21034   3.904   5.693   5.834  0.1416  0.1246  0.2531
  172DOPC  H18Y21035   3.760   5.806   5.793  2.5566  1.7574  2.9141
  172DOPC  H18Z21036   3.738   5.647   5.881  1.1555 -1.6560 -0.5839
  173DOPC     N21037   7.115   5.045   2.946  0.5433 -0.3940 -0.1741
  173DOPC   C1221038   7.261   5.024   2.935 -0.0874  0.2509  0.2362
  173DOPC  H12A21039   7.289   5.063   2.838  1.5602 -2.3494 -0.4479
  173DOPC  H12B21040   7.287   4.920   2.925 -1.1731  0.0009 -0.1227
  173DOPC   C1321041   7.059   4.975   3.067 -0.0000 -0.2596 -0.2878
  173DOPC  H13A21042   7.024   4.875   3.046 -1.7996 -0.2932  2.3704
  173DOPC  H13B21043   7.119   4.962   3.156 -1.7708  1.2109  1.2052
  173DOPC  H13C21044   6.967   5.017   3.105 -1.1231  0.6269 -3.5948
  173DOPC   C1421045   7.040   5.008   2.821  0.2507 -0.2889  0.4216
  173DOPC  H14A21046   7.080   5.058   2.734  0.0630 -1.6984 -0.5090
  173DOPC  H14B21047   7.063   4.906   2.792  0.6895 -0.6707  1.9962
  173DOPC  H14C21048   6.935   5.032   2.818  0.6164  1.3179 -1.0733
  173DOPC   C1521049   7.093   5.193   2.953  0.4552  0.1085  0.6959
  173DOPC  H15A21050   6.990   5.224   2.958  0.4057 -0.2334  2.8613
  173DOPC  H15B21051   7.129   5.239   2.863 -0.5655 -4.1173 -2.1599
  173DOPC  H15C21052   7.136   5.243   3.038 -2.8858  1.3390  1.8138
  173DOPC   C1121053   7.348   5.090   3.047  0.1626 -0.6285 -0.0775
  173DOPC  H11A21054   7.336   5.200   3.041  0.1048 -0.4580  2.2568
  173DOPC  H11B21055   7.295   5.051   3.137 -1.2220  0.7277 -0.2875
  173DOPC     P21056   7.601   5.119   3.109 -0.1315 -0.0014  0.0715
  173DOPC   O1321057   7.655   5.212   3.006 -0.0733 -0.2365 -0.4829
  173DOPC   O1421058   7.692   5.024   3.176 -0.4564  0.5622 -0.3284
  173DOPC   O1221059   7.482   5.038   3.047  0.0557 -0.3142  0.4184
  173DOPC   O1121060   7.525   5.200   3.222  0.0431  0.2339 -0.2515
  173DOPC    C121061   7.567   5.339   3.246 -0.5894 -0.2979  0.0112
  173DOPC    HA21062   7.533   5.407   3.164  0.8946 -0.0320 -0.4089
  173DOPC    HB21063   7.677   5.350   3.240 -0.5513 -0.3592  0.5379
  173DOPC    C221064   7.521   5.375   3.388  0.0246  0.0203 -0.2733
  173DOPC    HS21065   7.567   5.474   3.412  0.6160 -0.0129 -1.2236
  173DOPC   O2121066   7.574   5.283   3.488 -0.8838  0.0947  0.2370
  173DOPC   C2121067   7.705   5.277   3.510 -0.1683  0.2139 -0.2738
  173DOPC   O2221068   7.791   5.347   3.459 -0.0849 -0.0108 -0.0524
  173DOPC   C2221069   7.728   5.158   3.615  0.4268 -0.2332  0.2832
  173DOPC   H2R21070   7.834   5.176   3.642 -0.2396  1.4586  1.9802
  173DOPC   H2S21071   7.724   5.067   3.552 -2.9064  0.7598 -1.2069
  173DOPC    C321072   7.370   5.392   3.408  0.4651  0.1017 -0.7597
  173DOPC    HX21073   7.319   5.298   3.377  0.1220  0.8482 -2.5428
  173DOPC    HY21074   7.328   5.473   3.345  1.4844  0.7258 -0.6682
  173DOPC   O3121075   7.351   5.426   3.541 -0.2010  0.0045 -0.1024
  173DOPC   C3121076   7.234   5.422   3.584  0.0384 -0.2326 -0.1191
  173DOPC   O3221077   7.142   5.382   3.517  0.1624  0.4325  0.0873
  173DOPC   C3221078   7.220   5.461   3.726 -0.0622  0.8918  0.1584
  173DOPC   H2X21079   7.236   5.375   3.795  1.9738  2.1435  1.3394
  173DOPC   H2Y21080   7.287   5.547   3.749 -0.0672  0.8774  0.2275
  173DOPC   C2321081   7.632   5.159   3.737 -0.5174  0.0182  0.1803
  173DOPC   H3R21082   7.675   5.077   3.799  0.4612 -0.0983 -0.6191
  173DOPC   H3S21083   7.524   5.145   3.718 -0.0267  0.7473 -4.3314
  173DOPC   C2421084   7.626   5.291   3.816 -0.8363  0.2207 -0.0079
  173DOPC   H4R21085   7.553   5.364   3.775 -0.0444  0.4339 -1.0830
  173DOPC   H4S21086   7.730   5.330   3.810 -0.9059  0.1814 -2.0972
  173DOPC   C2521087   7.596   5.263   3.968  0.4551 -0.8604  0.7146
  173DOPC   H5R21088   7.659   5.186   4.018  3.1500 -0.5175 -1.8570
  173DOPC   H5S21089   7.495   5.217   3.968 -0.3190  0.6206 -1.7375
  173DOPC   C2621090   7.594   5.379   4.061  0.5902  0.1844 -1.3295
  173DOPC   H6R21091   7.677   5.450   4.043 -0.0151  0.6970 -2.1699
  173DOPC   H6S21092   7.592   5.338   4.165 -2.3704 -1.0837 -1.7777
  173DOPC   C2721093   7.461   5.462   4.059 -0.0603  0.9507  0.2025
  173DOPC   H7R21094   7.379   5.391   4.084 -0.6383  1.2732 -0.7372
  173DOPC   H7S21095   7.460   5.496   3.954 -0.1955 -0.2528 -0.1981
  173DOPC   C2821096   7.452   5.581   4.155 -0.4544 -0.6488  0.3796
  173DOPC   H8R21097   7.361   5.642   4.138  0.1480  0.6248  1.5191
  173DOPC   H8S21098   7.533   5.655   4.141  0.2428 -0.7788  3.0900
  173DOPC   C2921099   7.453   5.528   4.298  0.1305  0.1101  0.0553
  173DOPC   H9R21100   7.543   5.470   4.323  0.3690 -1.2003 -3.2966
  173DOPC  C21021101   7.344   5.518   4.382  0.1561  0.5603 -0.7811
  173DOPC  H10R21102   7.360   5.474   4.482  0.6880 -0.0446 -1.1206
  173DOPC  C21121103   7.200   5.555   4.355 -0.2978  0.0053 -0.0745
  173DOPC  H11R21104   7.132   5.469   4.342  1.0899 -0.8873 -1.9019
  173DOPC  H11S21105   7.195   5.615   4.262  1.5807 -1.0492 -0.8988
  173DOPC  C21221106   7.160   5.646   4.471 -0.4239 -0.3101  0.5143
  173DOPC  H12R21107   7.228   5.734   4.475  0.3891 -0.9614  1.3942
  173DOPC  H12S21108   7.169   5.589   4.566 -1.3492 -2.0189 -0.3605
  173DOPC  C21321109   7.010   5.693   4.458 -0.0062  0.3216  0.8314
  173DOPC  H13R21110   6.946   5.605   4.436 -1.7492  1.6731  0.2679
  173DOPC  H13S21111   7.005   5.754   4.365 -0.5438 -2.2356 -0.9033
  173DOPC  C21421112   6.957   5.775   4.573  0.4902 -0.1965  0.3459
  173DOPC  H14R21113   6.877   5.846   4.543 -1.4353 -1.6384  1.8009
  173DOPC  H14S21114   7.041   5.827   4.624  0.8125 -1.8098  1.5674
  173DOPC  C21521115   6.891   5.683   4.688 -0.6004 -0.6570  0.8301
  173DOPC  H15R21116   6.945   5.586   4.685  0.4626 -0.0836 -1.5967
  173DOPC  H15S21117   6.782   5.672   4.666 -0.4705 -0.9556  0.3231
  173DOPC  C21621118   6.915   5.742   4.826  0.6285 -0.3218 -0.0999
  173DOPC  H16R21119   6.847   5.829   4.838  0.6284 -0.1976 -0.9681
  173DOPC  H16S21120   7.018   5.780   4.842  0.8790 -1.3373  0.8323
  173DOPC  C21721121   6.872   5.644   4.943 -0.3148  0.0010 -0.1722
  173DOPC  H17R21122   6.786   5.582   4.910  0.1326 -0.8262  0.1724
  173DOPC  H17S21123   6.847   5.708   5.030  1.0129  0.5192 -0.1511
  173DOPC  C21821124   6.993   5.557   4.991 -0.2994  0.1709 -0.1679
  173DOPC  H18R21125   7.087   5.612   5.016 -0.9720  1.2719  0.0364
  173DOPC  H18S21126   7.016   5.495   4.902 -3.5812  2.7251 -3.0880
  173DOPC  H18T21127   6.975   5.512   5.091  0.5097 -0.7921 -0.4393
  173DOPC   C3321128   7.075   5.512   3.757 -0.5176  0.2472 -0.3580
  173DOPC   H3X21129   6.990   5.452   3.717  1.0178 -0.5629 -2.6250
  173DOPC   H3Y21130   7.062   5.599   3.689  2.4187 -2.0721 -4.2973
  173DOPC   C3421131   7.062   5.552   3.903  0.1698 -0.2071 -0.1822
  173DOPC   H4X21132   7.145   5.624   3.918  0.3347 -0.5265  0.4619
  173DOPC   H4Y21133   7.075   5.463   3.969  0.2677 -1.9119 -2.3812
  173DOPC   C3521134   6.931   5.624   3.940  0.6592  0.0328  0.1654
  173DOPC   H5X21135   6.849   5.566   3.893  1.5059 -1.1925  0.1543
  173DOPC   H5Y21136   6.924   5.714   3.876 -0.2545  0.1118  0.3541
  173DOPC   C3621137   6.921   5.645   4.089 -0.1728  0.7599 -0.0024
  173DOPC   H6X21138   6.907   5.544   4.134  1.3227 -0.3181 -1.8457
  173DOPC   H6Y21139   7.019   5.690   4.117  0.0249  1.9340 -2.3477
  173DOPC   C3721140   6.803   5.745   4.125 -0.6784 -0.0553  0.3013
  173DOPC   H7X21141   6.807   5.766   4.234 -0.3208 -0.6061  0.3981
  173DOPC   H7Y21142   6.824   5.846   4.083 -2.2255 -0.7692 -2.3742
  173DOPC   C3821143   6.657   5.706   4.072 -0.1448  0.0694 -0.7835
  173DOPC   H8X21144   6.626   5.631   4.148 -2.1465  4.5133  3.2949
  173DOPC   H8Y21145   6.670   5.675   3.966  1.2420 -2.1624 -0.0143
  173DOPC   C3921146   6.555   5.815   4.081 -0.3088  0.1422 -0.8823
  173DOPC   H9X21147   6.510   5.819   4.182  1.1824 -1.3056 -0.1131
  173DOPC  C31021148   6.520   5.896   3.981  0.6545  1.0606 -0.2855
  173DOPC  H10X21149   6.455   5.985   3.991 -0.8540  0.2723 -2.2949
  173DOPC  C31121150   6.586   5.892   3.847 -0.6250  0.2509 -0.1533
  173DOPC  H11X21151   6.553   5.793   3.809 -1.0486  0.5006 -0.4355
  173DOPC  H11Y21152   6.695   5.872   3.857 -0.7297 -1.3703 -1.7092
  173DOPC  C31221153   6.543   6.008   3.769  0.4192  0.1531  0.3051
  173DOPC  H12X21154   6.437   6.039   3.780  0.3290  0.0832 -0.3494
  173DOPC  H12Y21155   6.536   5.986   3.661 -1.5575 -0.1967  0.4673
  173DOPC  C31321156   6.630   6.139   3.796  0.1759  0.2702  0.1664
  173DOPC  H13X21157   6.608   6.177   3.898  0.9105  1.6839 -0.1858
  173DOPC  H13Y21158   6.737   6.109   3.789 -0.0253 -0.1434 -1.6522
  173DOPC  C31421159   6.596   6.257   3.708 -0.1326 -0.0569 -0.2334
  173DOPC  H14X21160   6.652   6.349   3.736 -1.2265  0.4043  0.4622
  173DOPC  H14Y21161   6.625   6.240   3.602 -0.2605  2.8490 -0.8318
  173DOPC  C31521162   6.443   6.281   3.703  1.0497 -0.4170  0.6117
  173DOPC  H15X21163   6.401   6.277   3.806  0.5545 -0.1952  0.4232
  173DOPC  H15Y21164   6.391   6.201   3.646 -0.4325  0.2699  0.9436
  173DOPC  C31621165   6.385   6.402   3.631  0.1118 -0.2283 -0.0541
  173DOPC  H16X21166   6.275   6.402   3.620  0.2286 -0.5765 -1.5534
  173DOPC  H16Y21167   6.418   6.497   3.677  0.1948  0.0853 -0.7395
  173DOPC  C31721168   6.436   6.401   3.480  0.2132  0.3456  0.0439
  173DOPC  H17X21169   6.545   6.416   3.467  0.3420 -1.2240 -0.9271
  173DOPC  H17Y21170   6.420   6.296   3.449 -1.7405  0.1071  1.6453
  173DOPC  C31821171   6.355   6.497   3.389  0.2080 -0.2446 -0.0984
  173DOPC  H18X21172   6.397   6.500   3.287  0.3363 -0.1066 -0.0432
  173DOPC  H18Y21173   6.252   6.455   3.387 -0.4020  0.6110  4.0547
  173DOPC  H18Z21174   6.334   6.599   3.429 -4.3063 -1.7779  2.1193
  174DOPC     N21175   3.615   3.986   2.148  0.5983  0.3470  0.3772
  174DOPC   C1221176   3.591   3.941   2.295  0.3097 -0.1556 -0.0153
  174DOPC  H12A21177   3.677   3.881   2.323  1.8987  3.4367  3.8049
  174DOPC  H12B21178   3.503   3.879   2.298 -0.2011  0.5600 -0.1198
  174DOPC   C1321179   3.624   3.867   2.063  0.2387 -0.3000  0.2574
  174DOPC  H13A21180   3.650   3.896   1.963  0.0772  0.4970  0.4360
  174DOPC  H13B21181   3.700   3.796   2.093  0.2266 -0.4227 -0.0046
  174DOPC  H13C21182   3.530   3.814   2.056  0.7885 -1.1899 -0.6326
  174DOPC   C1421183   3.741   4.065   2.136  0.5345  0.2914 -0.5950
  174DOPC  H14A21184   3.820   4.021   2.195  0.7601 -1.7312 -2.2909
  174DOPC  H14B21185   3.764   4.084   2.032  0.5900 -1.2488 -0.8882
  174DOPC  H14C21186   3.720   4.160   2.183 -4.0654 -0.2686 -1.0556
  174DOPC   C1521187   3.493   4.063   2.101  0.2717 -0.2411 -0.2031
  174DOPC  H15A21188   3.470   4.135   2.179 -2.6586 -1.8471  0.5544
  174DOPC  H15B21189   3.407   3.999   2.103  0.8705 -1.0416  0.4242
  174DOPC  H15C21190   3.499   4.105   2.002 -1.4533 -0.1253 -0.2911
  174DOPC   C1121191   3.578   4.059   2.391 -1.0336  0.6413 -0.7006
  174DOPC  H11A21192   3.598   4.033   2.497  1.6979 -0.3735 -1.3748
  174DOPC  H11B21193   3.665   4.126   2.374 -0.6831  0.3212 -0.2059
  174DOPC     P21194   3.330   4.070   2.455 -0.3713 -0.0996 -0.0676
  174DOPC   O1321195   3.277   3.949   2.385 -0.2568 -0.4141 -0.9636
  174DOPC   O1421196   3.231   4.179   2.473  0.7352 -0.0986  0.3089
  174DOPC   O1221197   3.458   4.123   2.385 -0.4601 -0.6896  0.0079
  174DOPC   O1121198   3.386   4.037   2.595  0.2025 -0.6164 -0.7615
  174DOPC    C121199   3.436   4.134   2.681 -0.0121 -0.2053 -0.4631
  174DOPC    HA21200   3.354   4.203   2.712 -0.4980 -0.3873 -1.3048
  174DOPC    HB21201   3.515   4.193   2.628 -1.1082  2.0711  0.3196
  174DOPC    C221202   3.502   4.082   2.816 -0.2692  0.6827  0.0428
  174DOPC    HS21203   3.536   4.171   2.874  1.4529 -0.9422  1.7248
  174DOPC   O2121204   3.612   3.986   2.795 -0.0333  0.0239  0.7053
  174DOPC   C2121205   3.715   4.047   2.742  0.1167  0.6729  0.6202
  174DOPC   O2221206   3.717   4.167   2.722  0.1577  0.7270 -0.0515
  174DOPC   C2221207   3.826   3.945   2.711  0.0332  0.3012  0.0717
  174DOPC   H2R21208   3.856   3.954   2.605 -0.6964  0.6120 -0.1170
  174DOPC   H2S21209   3.790   3.842   2.731 -0.0845 -0.0639 -1.8745
  174DOPC    C321210   3.404   4.014   2.912  0.0537 -0.0803  0.7942
  174DOPC    HX21211   3.403   3.904   2.895  0.8386  0.1700 -1.1055
  174DOPC    HY21212   3.303   4.045   2.877  0.4453 -0.1725 -0.4754
  174DOPC   O3121213   3.426   4.050   3.043 -0.1848  0.2796 -0.3990
  174DOPC   C3121214   3.353   3.972   3.124 -0.3285  0.3289 -0.2260
  174DOPC   O3221215   3.274   3.892   3.078  0.0755 -0.0468  0.0870
  174DOPC   C3221216   3.387   3.994   3.272  0.4438 -0.5354 -0.1622
  174DOPC   H2X21217   3.488   3.961   3.303  0.1790 -0.4512  0.8557
  174DOPC   H2Y21218   3.406   4.103   3.283  1.4517 -0.8915  2.3259
  174DOPC   C2321219   3.956   3.981   2.789  0.3059 -0.0284  0.3907
  174DOPC   H3R21220   3.957   4.092   2.796 -0.9454  0.2506 -2.5577
  174DOPC   H3S21221   4.047   3.957   2.730 -0.1560  0.2159 -0.4389
  174DOPC   C2421222   3.950   3.906   2.929  0.1911  0.2084  0.3038
  174DOPC   H4R21223   3.913   3.804   2.908  0.2623  0.1985  0.2232
  174DOPC   H4S21224   3.869   3.953   2.989  0.9996  2.0868  0.0103
  174DOPC   C2521225   4.085   3.897   3.001  0.5599 -0.1161  0.7800
  174DOPC   H5R21226   4.118   4.003   3.007 -0.9353  0.4101  0.2570
  174DOPC   H5S21227   4.157   3.836   2.941 -1.1195 -0.7992 -0.6240
  174DOPC   C2621228   4.073   3.854   3.152  0.1552 -0.3398 -0.3919
  174DOPC   H6R21229   3.976   3.893   3.191  1.1013  0.5983  1.1191
  174DOPC   H6S21230   4.156   3.900   3.210 -0.6228  0.0225  0.4606
  174DOPC   C2721231   4.076   3.703   3.171 -0.3680 -0.7060 -0.3191
  174DOPC   H7R21232   4.169   3.669   3.122 -0.4686  0.4882 -1.3809
  174DOPC   H7S21233   3.985   3.659   3.124 -1.4359  1.1976 -0.1450
  174DOPC   C2821234   4.077   3.670   3.320 -0.2116 -0.2739  0.5106
  174DOPC   H8R21235   4.160   3.723   3.371  0.9073  1.5699 -2.9178
  174DOPC   H8S21236   4.102   3.561   3.319  1.6101  0.0054 -3.4628
  174DOPC   C2921237   3.939   3.681   3.387  0.2197  0.1025  0.3731
  174DOPC   H9R21238   3.875   3.592   3.375  0.5975  0.0428 -1.4475
  174DOPC  C21021239   3.899   3.763   3.481  0.0677  0.5591  0.2299
  174DOPC  H10R21240   3.800   3.751   3.526 -1.3690  0.9569 -2.5723
  174DOPC  C21121241   3.979   3.892   3.506  0.3078 -0.2285 -0.5571
  174DOPC  H11R21242   4.052   3.904   3.423 -1.3112  0.6178 -1.9237
  174DOPC  H11S21243   4.033   3.880   3.603 -0.0791 -1.8878 -0.5160
  174DOPC  C21221244   3.883   4.011   3.502  0.0225 -0.3045  0.4607
  174DOPC  H12R21245   3.845   4.022   3.398  0.8065 -0.3891  0.1610
  174DOPC  H12S21246   3.937   4.105   3.525 -0.6920  0.3600 -0.4904
  174DOPC  C21321247   3.775   3.991   3.605 -0.0236  0.6651  0.1631
  174DOPC  H13R21248   3.817   3.973   3.707 -0.0744 -2.7372 -0.2942
  174DOPC  H13S21249   3.712   3.901   3.585  1.8074 -0.3945 -1.2323
  174DOPC  C21421250   3.683   4.113   3.625 -0.1473 -0.4828  0.6602
  174DOPC  H14R21251   3.642   4.137   3.525 -1.6463  1.3828  1.6504
  174DOPC  H14S21252   3.745   4.199   3.657  0.4486 -1.2152  1.5029
  174DOPC  C21521253   3.569   4.087   3.729 -0.3942 -0.9110 -0.0425
  174DOPC  H15R21254   3.612   4.082   3.832  1.2770  1.3398 -0.5543
  174DOPC  H15S21255   3.520   3.989   3.712  0.8860 -1.4701 -0.7113
  174DOPC  C21621256   3.471   4.205   3.753  0.7299  0.6306 -0.5320
  174DOPC  H16R21257   3.432   4.247   3.658  0.5579 -1.6622 -1.5492
  174DOPC  H16S21258   3.533   4.287   3.794  2.8282 -0.9174 -0.4245
  174DOPC  C21721259   3.349   4.172   3.845 -0.1086 -0.4046  0.5911
  174DOPC  H17R21260   3.300   4.075   3.820 -1.2715  0.1164  0.7573
  174DOPC  H17S21261   3.269   4.247   3.827 -0.6046 -1.5280 -2.8064
  174DOPC  C21821262   3.382   4.158   3.983  0.4057 -1.1326  0.1496
  174DOPC  H18R21263   3.491   4.175   4.000  0.9336 -2.0553 -1.9593
  174DOPC  H18S21264   3.362   4.052   4.011  1.0384 -1.1544  0.5450
  174DOPC  H18T21265   3.326   4.226   4.050 -1.7383 -0.9758 -1.6908
  174DOPC   C3321266   3.285   3.941   3.367  0.1633 -0.5155  0.2631
  174DOPC   H3X21267   3.329   3.922   3.468  0.5080  1.4306  0.5233
  174DOPC   H3Y21268   3.253   3.840   3.335  0.6098 -0.8748  0.9197
  174DOPC   C3421269   3.171   4.041   3.396 -0.6537 -0.7069  0.2203
  174DOPC   H4X21270   3.092   3.986   3.451 -2.8843  1.3369 -0.7699
  174DOPC   H4Y21271   3.122   4.071   3.301 -0.1458  0.9889  0.4552
  174DOPC   C3521272   3.221   4.168   3.473 -0.1746  0.6785 -0.9952
  174DOPC   H5X21273   3.322   4.194   3.434  1.3542  0.0186  2.1903
  174DOPC   H5Y21274   3.252   4.125   3.571  0.5705 -0.9410 -1.8924
  174DOPC   C3621275   3.120   4.285   3.480  0.1714  0.4395  0.2982
  174DOPC   H6X21276   3.107   4.323   3.376 -1.8209 -0.9338  0.0079
  174DOPC   H6Y21277   3.032   4.246   3.534  0.4142 -1.7423 -0.7895
  174DOPC   C3721278   3.166   4.406   3.557 -0.1781 -0.5298  0.2533
  174DOPC   H7X21279   3.183   4.382   3.664 -1.2402  1.0002  0.8015
  174DOPC   H7Y21280   3.260   4.438   3.508 -0.0367  0.1346  0.9352
  174DOPC   C3821281   3.065   4.525   3.571 -0.1739  0.0096  0.3526
  174DOPC   H8X21282   3.034   4.550   3.467  0.3955  1.8582  0.5868
  174DOPC   H8Y21283   3.128   4.613   3.598  1.1057 -0.5957 -0.5215
  174DOPC   C3921284   2.952   4.506   3.670 -0.5771 -0.6350  0.4917
  174DOPC   H9X21285   2.854   4.500   3.621 -0.0678  1.1443 -0.8372
  174DOPC  C31021286   2.958   4.527   3.802  0.0429  0.6491  0.6756
  174DOPC  H10X21287   2.865   4.540   3.860  0.4951  0.5396  1.4481
  174DOPC  C31121288   3.078   4.547   3.883 -0.5482 -0.1400 -0.2037
  174DOPC  H11X21289   3.122   4.644   3.850 -0.7286 -0.3943 -1.2458
  174DOPC  H11Y21290   3.165   4.486   3.853  1.0974  2.7432 -1.8031
  174DOPC  C31221291   3.064   4.550   4.041  0.0145 -0.0448  0.7932
  174DOPC  H12X21292   3.005   4.460   4.068 -0.6560  0.0234 -0.3764
  174DOPC  H12Y21293   2.999   4.634   4.074 -0.1516 -0.0752  0.5517
  174DOPC  C31321294   3.205   4.558   4.113  0.7348  0.5551  1.0640
  174DOPC  H13X21295   3.266   4.466   4.096  0.2805  0.5402 -0.5915
  174DOPC  H13Y21296   3.257   4.647   4.072 -1.2807  0.4653 -1.9332
  174DOPC  C31421297   3.180   4.555   4.259  0.6799 -0.3385  0.5935
  174DOPC  H14X21298   3.125   4.650   4.278 -1.3902 -1.3083 -0.2535
  174DOPC  H14Y21299   3.119   4.467   4.289 -1.7085  1.0798  0.1541
  174DOPC  C31521300   3.308   4.561   4.334 -0.5377  0.6849  0.1729
  174DOPC  H15X21301   3.373   4.647   4.308 -1.3853  1.1800 -0.3669
  174DOPC  H15Y21302   3.366   4.469   4.316  2.3394  2.3810  0.1728
  174DOPC  C31621303   3.278   4.567   4.477  0.7674 -0.0432 -0.3230
  174DOPC  H16X21304   3.202   4.644   4.500 -0.5128 -0.1043 -3.8242
  174DOPC  H16Y21305   3.222   4.480   4.517  1.7662 -1.4785 -1.9173
  174DOPC  C31721306   3.390   4.605   4.576  0.2808 -0.3079 -0.3073
  174DOPC  H17X21307   3.465   4.523   4.574 -1.1970 -1.8115  1.6364
  174DOPC  H17Y21308   3.437   4.700   4.541  0.0822  0.2627  0.9001
  174DOPC  C31821309   3.346   4.624   4.722 -0.2508 -0.1670 -0.0403
  174DOPC  H18X21310   3.429   4.643   4.794 -1.1106 -0.6474  1.1163
  174DOPC  H18Y21311   3.263   4.697   4.735  0.3011  0.5050 -0.2856
  174DOPC  H18Z21312   3.305   4.530   4.764  0.6787 -0.4527  0.2450
  175DOPC     N21313   3.752   6.381   2.676  0.0071  0.1084  0.5426
  175DOPC   C1221314   3.850   6.346   2.565 -0.1501  0.1554  0.1418
  175DOPC  H12A21315   3.940   6.401   2.587  1.1619 -1.4482 -0.9176
  175DOPC  H12B21316   3.804   6.387   2.476 -1.8397  0.6078  1.1785
  175DOPC   C1321317   3.814   6.345   2.811 -0.3536 -0.5383  0.7584
  175DOPC  H13A21318   3.902   6.403   2.836 -1.4762  1.1215  1.0075
  175DOPC  H13B21319   3.743   6.356   2.891 -1.3563 -1.8586  0.1019
  175DOPC  H13C21320   3.856   6.245   2.801 -0.6087 -0.4931 -1.2217
  175DOPC   C1421321   3.628   6.299   2.660 -0.5809 -0.0987  0.1755
  175DOPC  H14A21322   3.588   6.318   2.562  0.0141  0.8868  0.1057
  175DOPC  H14B21323   3.657   6.195   2.660 -0.1713 -0.0305 -1.8840
  175DOPC  H14C21324   3.553   6.327   2.732  0.0908  0.2451  0.7634
  175DOPC   C1521325   3.719   6.524   2.670  0.4613  0.1592 -0.2235
  175DOPC  H15A21326   3.654   6.546   2.753  0.2761 -1.2576  0.0276
  175DOPC  H15B21327   3.682   6.555   2.574 -0.6201 -0.9641 -0.1923
  175DOPC  H15C21328   3.817   6.569   2.682  1.1864 -1.4890  0.3779
  175DOPC   C1121329   3.893   6.195   2.545 -0.6561  0.5302 -0.3028
  175DOPC  H11A21330   3.801   6.146   2.506 -0.5263 -1.7545  1.9736
  175DOPC  H11B21331   3.979   6.191   2.475  2.7937 -0.9498  3.6181
  175DOPC     P21332   3.872   5.982   2.711  0.5317 -0.1945 -0.1614
  175DOPC   O1321333   3.954   5.867   2.663  0.3968 -0.4702  0.1941
  175DOPC   O1421334   3.732   5.983   2.665  0.4560  0.1603 -0.1960
  175DOPC   O1221335   3.922   6.130   2.670 -0.5661 -0.3477  0.4067
  175DOPC   O1121336   3.873   5.994   2.871  0.5264  0.0887 -0.1769
  175DOPC    C121337   3.991   6.018   2.933 -0.7456 -0.7587  0.1535
  175DOPC    HA21338   4.018   6.125   2.920  2.7504 -1.2341  2.2235
  175DOPC    HB21339   4.072   5.948   2.901 -0.2337 -0.4903  0.8315
  175DOPC    C221340   3.971   5.997   3.084 -0.3759  0.2985 -0.1289
  175DOPC    HS21341   4.069   6.017   3.134 -1.8430  1.9685  2.2830
  175DOPC   O2121342   3.925   5.861   3.122  0.5934 -0.0389  0.3243
  175DOPC   C2121343   4.019   5.766   3.113 -0.9495 -0.6689  0.2222
  175DOPC   O2221344   4.136   5.789   3.076  0.2739  0.1841  0.2471
  175DOPC   C2221345   3.963   5.640   3.159 -0.7035 -0.1227  0.4077
  175DOPC   H2R21346   3.998   5.568   3.081  1.8481 -1.0886  2.2995
  175DOPC   H2S21347   3.852   5.634   3.152 -0.8089 -0.3001  1.9952
  175DOPC    C321348   3.874   6.102   3.142  0.1062  0.1698 -0.6894
  175DOPC    HX21349   3.853   6.091   3.251 -0.1243  1.9574 -0.5294
  175DOPC    HY21350   3.784   6.079   3.082 -0.3586  1.8109 -0.6556
  175DOPC   O3121351   3.898   6.237   3.105 -0.0444  0.4749  0.2037
  175DOPC   C3121352   3.975   6.300   3.188 -0.3490 -0.1526  0.6656
  175DOPC   O3221353   4.041   6.251   3.277  0.2277 -0.6150 -0.2950
  175DOPC   C3221354   3.966   6.446   3.160  0.8192 -0.0254 -0.3204
  175DOPC   H2X21355   4.044   6.470   3.085  1.4347 -1.5149 -0.1879
  175DOPC   H2Y21356   3.861   6.471   3.132  0.5714 -0.4620  0.2045
  175DOPC   C2321357   4.014   5.597   3.288  0.2089 -0.4637 -0.3446
  175DOPC   H3R21358   4.124   5.592   3.303  0.0054  0.1154  1.7500
  175DOPC   H3S21359   3.995   5.489   3.301  2.6379 -1.3364 -3.0003
  175DOPC   C2421360   3.957   5.675   3.405 -0.5102  0.1288 -0.9579
  175DOPC   H4R21361   3.847   5.684   3.394 -0.5382 -1.6517 -2.7020
  175DOPC   H4S21362   3.983   5.782   3.388  0.7035  0.1148  0.5566
  175DOPC   C2521363   4.002   5.623   3.547 -0.1207 -0.0925  0.4836
  175DOPC   H5R21364   3.920   5.642   3.620 -1.9252 -1.4318 -1.1007
  175DOPC   H5S21365   4.081   5.694   3.579  0.1482  0.5825 -1.5352
  175DOPC   C2621366   4.038   5.481   3.567 -0.3922 -0.5382  0.7255
  175DOPC   H6R21367   4.125   5.456   3.503  0.3121 -0.0862  1.4898
  175DOPC   H6S21368   3.956   5.422   3.520 -0.2718 -0.7947  0.8397
  175DOPC   C2721369   4.054   5.436   3.714 -0.9269 -0.8326  0.7612
  175DOPC   H7R21370   4.036   5.327   3.730 -0.7354 -0.6021  2.7940
  175DOPC   H7S21371   3.972   5.479   3.775  0.2076  0.9489  1.1021
  175DOPC   C2821372   4.186   5.487   3.778  0.2802 -0.1203  0.4113
  175DOPC   H8R21373   4.188   5.595   3.753  1.0090 -0.3565 -0.6300
  175DOPC   H8S21374   4.257   5.441   3.705 -1.7583 -0.6017 -1.3728
  175DOPC   C2921375   4.190   5.456   3.928 -0.0659  0.2808  0.2495
  175DOPC   H9R21376   4.132   5.523   3.992  0.3688 -1.6058  2.7998
  175DOPC  C21021377   4.276   5.377   3.984  0.3443  0.1804 -0.1503
  175DOPC  H10R21378   4.279   5.377   4.094 -1.9406 -1.7126  0.0126
  175DOPC  C21121379   4.378   5.275   3.927  0.6818 -0.1095 -0.5609
  175DOPC  H11R21380   4.427   5.332   3.844  1.2574 -1.2788 -1.0440
  175DOPC  H11S21381   4.331   5.192   3.869 -0.0639  0.8896 -1.4496
  175DOPC  C21221382   4.481   5.229   4.033  0.4661 -0.2025  0.1217
  175DOPC  H12R21383   4.450   5.152   4.107  0.4795 -0.0059  0.3353
  175DOPC  H12S21384   4.487   5.325   4.089 -1.4040  0.8271 -1.3176
  175DOPC  C21321385   4.617   5.174   3.991  0.3910  0.4856 -0.2368
  175DOPC  H13R21386   4.651   5.229   3.901  1.1870  1.2117  0.4847
  175DOPC  H13S21387   4.612   5.064   3.974 -2.8689  0.2946  1.1931
  175DOPC  C21421388   4.733   5.196   4.091  0.3947  0.0491  0.6806
  175DOPC  H14R21389   4.686   5.179   4.190  0.4142 -4.9833  0.0669
  175DOPC  H14S21390   4.767   5.301   4.079  1.9535 -0.6288 -1.5350
  175DOPC  C21521391   4.855   5.115   4.062  0.1229  0.6294  0.2399
  175DOPC  H15R21392   4.848   5.093   3.953 -0.4984  0.5765  0.2843
  175DOPC  H15S21393   4.850   5.015   4.110  1.3992  0.2252 -0.4185
  175DOPC  C21621394   4.992   5.177   4.108  0.3774  0.2980 -0.3735
  175DOPC  H16R21395   4.969   5.207   4.213 -1.0429  0.0094 -0.5828
  175DOPC  H16S21396   5.022   5.270   4.054  2.0211  0.2165  0.3319
  175DOPC  C21721397   5.112   5.080   4.115  0.3213 -0.4193  0.1659
  175DOPC  H17R21398   5.130   5.022   4.022 -1.3037 -2.2450  0.9304
  175DOPC  H17S21399   5.089   5.005   4.193 -1.7236 -1.8973 -1.7506
  175DOPC  C21821400   5.240   5.152   4.139  0.0715 -0.5893 -0.0605
  175DOPC  H18R21401   5.287   5.185   4.043 -0.7067  1.9500  0.3606
  175DOPC  H18S21402   5.314   5.085   4.187  1.1769  0.3708 -0.3625
  175DOPC  H18T21403   5.211   5.247   4.189 -0.2572 -2.1938  2.9582
  175DOPC   C3321404   4.010   6.538   3.276 -0.0436 -0.2247  0.8693
  175DOPC   H3X21405   4.119   6.517   3.285 -0.1264 -1.4755 -0.4861
  175DOPC   H3Y21406   3.949   6.508   3.364 -0.5071 -0.4034  0.4925
  175DOPC   C3421407   3.992   6.688   3.259  0.1580  0.1162  1.5217
  175DOPC   H4X21408   3.885   6.715   3.245  0.4706  1.3916  1.4051
  175DOPC   H4Y21409   4.062   6.718   3.178 -1.6741  0.9979  0.2099
  175DOPC   C3521410   4.048   6.774   3.374 -0.6979  0.6881  0.0891
  175DOPC   H5X21411   4.011   6.878   3.360 -1.1900  0.5257  0.1727
  175DOPC   H5Y21412   4.159   6.775   3.375 -0.6533  1.7714 -1.7229
  175DOPC   C3621413   3.988   6.723   3.505  0.3048 -0.4657 -0.1986
  175DOPC   H6X21414   3.880   6.699   3.491  0.2757 -0.4375 -0.0224
  175DOPC   H6Y21415   4.032   6.625   3.532  2.2490  0.8294  1.6702
  175DOPC   C3721416   3.996   6.822   3.625 -0.7345  0.0762  0.8038
  175DOPC   H7X21417   4.098   6.865   3.637 -0.6075 -0.1483  0.5415
  175DOPC   H7Y21418   3.937   6.906   3.583 -2.1468 -1.8518 -1.3532
  175DOPC   C3821419   3.936   6.769   3.753  0.4789 -0.6566  0.5741
  175DOPC   H8X21420   4.005   6.693   3.795  1.3078 -1.5073 -2.0777
  175DOPC   H8Y21421   3.838   6.722   3.729  0.7112 -0.9864  0.2443
  175DOPC   C3921422   3.912   6.875   3.856 -0.4668  0.0918 -0.2458
  175DOPC   H9X21423   3.868   6.965   3.812 -0.0111  0.6380  0.3846
  175DOPC  C31021424   3.962   6.888   3.979  0.0172 -0.0124  0.1975
  175DOPC  H10X21425   3.944   6.978   4.039 -0.5383 -0.3008  0.4667
  175DOPC  C31121426   4.053   6.785   4.047 -0.3517  0.0530  0.6451
  175DOPC  H11X21427   4.144   6.840   4.078  1.5776 -1.2187 -2.3163
  175DOPC  H11Y21428   4.100   6.712   3.978  1.5957  0.7942  1.1213
  175DOPC  C31221429   3.974   6.714   4.156  0.1786 -0.3095 -0.2724
  175DOPC  H12X21430   3.900   6.652   4.101 -1.5889  0.5121  1.0839
  175DOPC  H12Y21431   3.918   6.772   4.233  0.7798 -1.2582  0.9208
  175DOPC  C31321432   4.070   6.614   4.224 -0.7062  0.4624 -0.5036
  175DOPC  H13X21433   4.123   6.551   4.149 -0.9286  0.1702 -0.4196
  175DOPC  H13Y21434   4.145   6.677   4.277 -0.9561 -0.0575  0.5010
  175DOPC  C31421435   4.000   6.526   4.323 -0.1312  0.6871 -0.1710
  175DOPC  H14X21436   3.939   6.447   4.275 -1.6531  1.2313  0.7931
  175DOPC  H14Y21437   4.085   6.466   4.363 -2.2076 -2.5901 -0.2918
  175DOPC  C31521438   3.916   6.597   4.429  0.4013  0.3062 -0.1431
  175DOPC  H15X21439   3.820   6.610   4.375 -0.6625 -0.9009  1.3618
  175DOPC  H15Y21440   3.968   6.689   4.464  1.7959 -1.0620  1.6087
  175DOPC  C31621441   3.892   6.505   4.553 -0.4625  0.1765  0.2919
  175DOPC  H16X21442   3.800   6.547   4.600 -0.3776 -0.7658  1.3574
  175DOPC  H16Y21443   3.857   6.411   4.506 -3.1946  1.7752 -1.1597
  175DOPC  C31721444   4.007   6.478   4.643  0.0679 -0.1697  0.5345
  175DOPC  H17X21445   3.983   6.378   4.684  1.0169 -0.9818 -0.8078
  175DOPC  H17Y21446   4.103   6.463   4.589 -1.4459 -0.9283 -2.1201
  175DOPC  C31821447   4.028   6.559   4.763 -0.8713 -0.0557  0.0281
  175DOPC  H18X21448   3.936   6.581   4.823 -1.6458  0.7239 -1.3875
  175DOPC  H18Y21449   4.100   6.519   4.838 -0.5917  0.9134  0.2956
  175DOPC  H18Z21450   4.075   6.657   4.740 -1.2914 -0.5108 -3.1228
  176DOPC     N21451   1.720   1.081   2.782 -0.5925  0.0630 -0.5039
  176DOPC   C1221452   1.828   1.129   2.877  0.4882 -0.3082  0.0386
  176DOPC  H12A21453   1.926   1.098   2.844  0.7849  1.0502 -0.4613
  176DOPC  H12B21454   1.806   1.085   2.973 -1.5886  0.7427  0.0972
  176DOPC   C1321455   1.750   1.139   2.639 -0.9823  0.4870 -0.2473
  176DOPC  H13A21456   1.677   1.101   2.568  0.1506  0.3369 -1.3666
  176DOPC  H13B21457   1.739   1.246   2.646  0.0243  0.4765  2.6245
  176DOPC  H13C21458   1.843   1.102   2.600 -1.2212  0.4062 -0.7510
  176DOPC   C1421459   1.584   1.114   2.834 -0.1672  0.0904 -0.6247
  176DOPC  H14A21460   1.501   1.077   2.776 -0.5924  0.9118 -0.5534
  176DOPC  H14B21461   1.566   1.083   2.936 -0.4940  1.3221 -0.2809
  176DOPC  H14C21462   1.563   1.220   2.830  1.4535  0.5763  1.5915
  176DOPC   C1521463   1.744   0.931   2.783  0.1578 -0.1057  0.1131
  176DOPC  H15A21464   1.666   0.886   2.723 -1.6315  0.2185  2.0798
  176DOPC  H15B21465   1.722   0.896   2.883  0.1445  0.9200  0.4793
  176DOPC  H15C21466   1.843   0.900   2.752  0.7516  1.0047  0.8266
  176DOPC   C1121467   1.849   1.283   2.908 -0.5706 -0.1302 -0.7878
  176DOPC  H11A21468   1.751   1.326   2.937 -0.1616 -0.1626  0.7597
  176DOPC  H11B21469   1.903   1.283   3.005 -2.3606 -1.2804  0.2509
  176DOPC     P21470   2.055   1.316   2.751 -0.0202  0.2504 -0.0150
  176DOPC   O1321471   2.051   1.241   2.626 -0.3847  0.2470  0.2382
  176DOPC   O1421472   2.121   1.255   2.866 -0.3535 -0.7385  0.1729
  176DOPC   O1221473   1.913   1.346   2.796 -0.3259  0.0817 -0.1302
  176DOPC   O1121474   2.117   1.457   2.719  0.7094 -0.2917 -0.7166
  176DOPC    C121475   2.059   1.579   2.774  0.5973 -0.1371  0.1996
  176DOPC    HA21476   1.949   1.564   2.777  0.7835 -2.7832 -2.0168
  176DOPC    HB21477   2.080   1.656   2.696  0.4711 -2.4290 -2.2131
  176DOPC    C221478   2.114   1.631   2.910  0.3855  0.9440  0.7148
  176DOPC    HS21479   2.224   1.643   2.905  1.2085 -4.3568  0.7150
  176DOPC   O2121480   2.077   1.529   3.008  0.1722 -0.5676  0.1104
  176DOPC   C2121481   2.176   1.485   3.091 -0.2318 -0.2600  0.4673
  176DOPC   O2221482   2.287   1.535   3.095 -0.1074  0.4663 -0.0154
  176DOPC   C2221483   2.118   1.367   3.164  0.6099 -0.4217  0.0428
  176DOPC   H2R21484   2.127   1.282   3.093  0.3496  1.0617 -1.8391
  176DOPC   H2S21485   2.008   1.373   3.180  0.4099 -0.3394 -1.2754
  176DOPC    C321486   2.050   1.765   2.954  0.5436 -0.3731 -0.0749
  176DOPC    HX21487   1.940   1.766   2.937  0.8314  0.7981 -2.2798
  176DOPC    HY21488   2.092   1.845   2.889  0.0614 -1.5966 -1.9632
  176DOPC   O3121489   2.083   1.794   3.091 -0.0202  0.0228 -0.5853
  176DOPC   C3121490   2.194   1.846   3.113 -0.9523  0.1479 -0.0503
  176DOPC   O3221491   2.284   1.871   3.031 -0.2319  0.0283  0.2781
  176DOPC   C3221492   2.220   1.858   3.253  0.2967 -0.5569 -0.2903
  176DOPC   H2X21493   2.178   1.956   3.286 -1.3799 -1.4619  0.3342
  176DOPC   H2Y21494   2.162   1.781   3.306 -0.6467  0.5161  0.2844
  176DOPC   C2321495   2.209   1.337   3.286  0.4001  0.1564 -0.0994
  176DOPC   H3R21496   2.223   1.431   3.344  1.1670 -0.7262  1.2107
  176DOPC   H3S21497   2.308   1.298   3.255  0.0500 -0.7552 -0.0925
  176DOPC   C2421498   2.156   1.224   3.375  0.3643 -0.4206  0.4052
  176DOPC   H4R21499   2.160   1.125   3.324 -0.4917 -0.8270  1.0882
  176DOPC   H4S21500   2.047   1.242   3.390  0.5816 -1.2830  3.5111
  176DOPC   C2521501   2.222   1.209   3.515  0.4927  0.4301  0.5481
  176DOPC   H5R21502   2.220   1.305   3.570  1.2934  0.1433  1.1150
  176DOPC   H5S21503   2.330   1.183   3.507  0.4191 -0.5593  2.1256
  176DOPC   C2621504   2.152   1.112   3.610 -0.2808 -0.0507 -0.5532
  176DOPC   H6R21505   2.128   1.019   3.554  1.4200 -1.6642  1.2176
  176DOPC   H6S21506   2.052   1.145   3.646  0.3591  1.1527  0.1940
  176DOPC   C2721507   2.238   1.085   3.733 -0.3988 -0.2736  0.1096
  176DOPC   H7R21508   2.333   1.036   3.704  0.8483  1.2938  1.4230
  176DOPC   H7S21509   2.187   1.006   3.792  0.6955  0.4401  2.0782
  176DOPC   C2821510   2.253   1.201   3.826  0.5170 -0.1057  0.3362
  176DOPC   H8R21511   2.160   1.209   3.887  0.8247 -0.9297  0.9332
  176DOPC   H8S21512   2.255   1.298   3.771  0.2793  1.8102  3.4496
  176DOPC   C2921513   2.378   1.215   3.911  0.3027 -0.0014 -0.2336
  176DOPC   H9R21514   2.432   1.308   3.889 -1.2716  0.9860 -0.0485
  176DOPC  C21021515   2.433   1.117   3.991  0.5331  0.3440  0.2186
  176DOPC  H10R21516   2.528   1.134   4.044  2.0019 -0.5247 -1.9882
  176DOPC  C21121517   2.378   0.972   3.997 -0.4777  0.4632 -0.1832
  176DOPC  H11R21518   2.427   0.901   3.927 -0.4898 -1.5827  1.7726
  176DOPC  H11S21519   2.268   0.973   3.980 -0.6127  1.2719  0.6832
  176DOPC  C21221520   2.386   0.912   4.135 -0.5320 -0.3458 -0.1778
  176DOPC  H12R21521   2.489   0.910   4.178 -0.2457  0.2326 -0.8124
  176DOPC  H12S21522   2.367   0.802   4.135  1.4548 -0.8128  2.4684
  176DOPC  C21321523   2.301   0.985   4.232 -0.2271  0.1477  0.6180
  176DOPC  H13R21524   2.201   1.004   4.187  0.4554  2.5126 -0.0840
  176DOPC  H13S21525   2.324   1.093   4.249 -1.4192  0.7070 -1.0617
  176DOPC  C21421526   2.291   0.920   4.370  0.3336 -0.5907  0.3903
  176DOPC  H14R21527   2.246   0.985   4.447  1.2995  0.9489 -0.2951
  176DOPC  H14S21528   2.390   0.905   4.416 -0.0684  0.2200  1.5558
  176DOPC  C21521529   2.218   0.780   4.381  0.8009  0.2081  0.0977
  176DOPC  H15R21530   2.202   0.751   4.487 -0.9775  0.1707 -0.1475
  176DOPC  H15S21531   2.281   0.703   4.332  1.2790  0.2016  0.7060
  176DOPC  C21621532   2.082   0.771   4.320  0.3524  0.6589 -1.0603
  176DOPC  H16R21533   2.100   0.754   4.211  0.4698  0.6514 -1.0406
  176DOPC  H16S21534   2.040   0.873   4.327  1.1956  0.9285  0.6094
  176DOPC  C21721535   1.994   0.654   4.367  0.2196 -0.4768  0.2128
  176DOPC  H17R21536   1.901   0.676   4.310  1.4638 -0.2478 -1.8398
  176DOPC  H17S21537   1.971   0.673   4.474  2.3437  0.9132  0.4785
  176DOPC  C21821538   2.044   0.521   4.346  0.0096  1.9098 -0.3567
  176DOPC  H18R21539   1.991   0.434   4.390  2.7927  0.2077 -0.1491
  176DOPC  H18S21540   2.143   0.497   4.392 -2.6659 -1.4605  4.7026
  176DOPC  H18T21541   2.059   0.499   4.239  1.9142  1.7877 -0.0954
  176DOPC   C3321542   2.377   1.854   3.288  0.3970 -0.0323  0.0150
  176DOPC   H3X21543   2.429   1.932   3.227 -0.1624  1.7551  1.7251
  176DOPC   H3Y21544   2.419   1.755   3.260 -1.4547 -1.0766  0.7821
  176DOPC   C3421545   2.392   1.879   3.435 -0.6638 -0.7896  0.5398
  176DOPC   H4X21546   2.365   1.983   3.464  0.1996  0.1276 -1.6515
  176DOPC   H4Y21547   2.501   1.870   3.454  0.2391  0.3692 -3.1515
  176DOPC   C3521548   2.329   1.772   3.519  0.2334 -0.0049  0.2545
  176DOPC   H5X21549   2.346   1.674   3.469  2.8090  1.1823 -1.3933
  176DOPC   H5Y21550   2.219   1.785   3.525  0.3690  0.7902  1.3048
  176DOPC   C3621551   2.381   1.754   3.665 -0.0620  0.1268 -0.5376
  176DOPC   H6X21552   2.492   1.744   3.667  0.0785  1.6163  0.1588
  176DOPC   H6Y21553   2.374   1.855   3.711  3.4653  0.8341 -1.2072
  176DOPC   C3721554   2.305   1.645   3.752  0.0967 -0.0661  0.0586
  176DOPC   H7X21555   2.207   1.692   3.775  0.3274  0.7509 -0.5576
  176DOPC   H7Y21556   2.285   1.560   3.684 -1.1311  1.0172 -1.0000
  176DOPC   C3821557   2.370   1.598   3.880  0.4878 -0.2787  0.0166
  176DOPC   H8X21558   2.468   1.558   3.849 -0.4551 -2.9791  0.2785
  176DOPC   H8Y21559   2.303   1.515   3.911 -1.3771  0.9102 -0.6320
  176DOPC   C3921560   2.383   1.695   3.991  0.5243  0.2560 -0.6211
  176DOPC   H9X21561   2.363   1.801   3.969 -0.2466  0.5712  1.4194
  176DOPC  C31021562   2.423   1.657   4.117 -0.1863  0.9641  0.0916
  176DOPC  H10X21563   2.433   1.738   4.191 -0.3119 -0.3003  1.5478
  176DOPC  C31121564   2.476   1.521   4.156 -0.4745  0.1655  0.7479
  176DOPC  H11X21565   2.574   1.497   4.109 -0.7997  1.5427 -0.7298
  176DOPC  H11Y21566   2.415   1.440   4.112 -0.5111  1.1814 -1.2048
  176DOPC  C31221567   2.490   1.481   4.306 -0.0961 -0.3373 -0.2461
  176DOPC  H12X21568   2.399   1.495   4.368 -0.1599  0.3532 -0.4798
  176DOPC  H12Y21569   2.565   1.550   4.351 -1.1082  0.6680 -0.0509
  176DOPC  C31321570   2.541   1.339   4.315 -0.3038 -0.3330 -0.3672
  176DOPC  H13X21571   2.458   1.272   4.285 -1.0886 -0.1691  1.3167
  176DOPC  H13Y21572   2.610   1.335   4.229  2.0973  1.8357  1.2885
  176DOPC  C31421573   2.606   1.288   4.443 -0.9310 -0.6877 -0.4496
  176DOPC  H14X21574   2.675   1.356   4.498 -1.7793  1.1300 -1.5380
  176DOPC  H14Y21575   2.519   1.278   4.512 -0.8124  0.0311 -0.1906
  176DOPC  C31521576   2.669   1.156   4.413  0.3316  0.2994 -0.6158
  176DOPC  H15X21577   2.753   1.169   4.342  1.7690 -1.4393  0.6665
  176DOPC  H15Y21578   2.592   1.089   4.369  0.0559 -0.9737  1.6441
  176DOPC  C31621579   2.725   1.088   4.539 -0.2982  0.4956 -0.5395
  176DOPC  H16X21580   2.820   1.139   4.570 -0.6030  0.1211  1.1374
  176DOPC  H16Y21581   2.654   1.093   4.624 -0.2504 -0.1381 -0.4577
  176DOPC  C31721582   2.748   0.943   4.507 -0.2277 -0.3763  0.2010
  176DOPC  H17X21583   2.651   0.896   4.478  0.5623 -2.2172  0.3842
  176DOPC  H17Y21584   2.816   0.944   4.420 -2.4199  2.1071 -1.6326
  176DOPC  C31821585   2.800   0.861   4.625  0.0080  0.5971 -0.1975
  176DOPC  H18X21586   2.714   0.845   4.695  1.8220 -1.2692  1.7645
  176DOPC  H18Y21587   2.845   0.770   4.580  0.4865  1.5054 -1.5836
  176DOPC  H18Z21588   2.889   0.905   4.674  1.2763 -1.6503 -0.3510
  177DOPC     N21589   5.422   6.525   2.470  0.6534 -0.0477 -0.1863
  177DOPC   C1221590   5.528   6.589   2.389 -0.5435  0.3366  0.2129
  177DOPC  H12A21591   5.554   6.691   2.411  1.6741  0.8407 -3.7584
  177DOPC  H12B21592   5.503   6.597   2.284  1.0809  0.0710 -0.2217
  177DOPC   C1321593   5.305   6.612   2.484 -0.2753  0.0625 -0.2637
  177DOPC  H13A21594   5.339   6.706   2.525  0.7666 -0.8237  0.9862
  177DOPC  H13B21595   5.257   6.650   2.395  1.2374  0.1778 -1.0676
  177DOPC  H13C21596   5.227   6.560   2.538  0.9727  0.0306  1.5973
  177DOPC   C1421597   5.468   6.492   2.609 -0.3043  0.6321 -0.6893
  177DOPC  H14A21598   5.506   6.579   2.661  2.6121 -0.8834 -0.0929
  177DOPC  H14B21599   5.391   6.452   2.672  1.0777  0.6282  1.0848
  177DOPC  H14C21600   5.553   6.426   2.616 -1.4897 -0.9431 -0.8853
  177DOPC   C1521601   5.373   6.395   2.409  0.2371 -0.0156  0.3981
  177DOPC  H15A21602   5.313   6.429   2.325  1.3446 -1.0171 -0.8536
  177DOPC  H15B21603   5.315   6.335   2.477 -0.8169  0.3963 -0.1044
  177DOPC  H15C21604   5.456   6.330   2.384  1.7935  2.1431 -0.3515
  177DOPC   C1121605   5.676   6.522   2.391  0.0078  0.4107 -0.2659
  177DOPC  H11A21606   5.731   6.592   2.325 -2.9919  0.7604 -2.6076
  177DOPC  H11B21607   5.735   6.516   2.485  0.1863 -0.6500 -0.4352
  177DOPC     P21608   5.775   6.287   2.351 -0.1723 -0.5902  0.4445
  177DOPC   O1321609   5.906   6.358   2.349  0.0315 -0.0021  0.3778
  177DOPC   O1421610   5.753   6.173   2.259 -0.4408 -0.4723  1.0602
  177DOPC   O1221611   5.658   6.396   2.332 -0.3734  0.4571 -0.1058
  177DOPC   O1121612   5.759   6.238   2.491 -0.1475 -0.4941 -0.6174
  177DOPC    C121613   5.652   6.159   2.535  0.6093  0.7045 -0.0339
  177DOPC    HA21614   5.681   6.056   2.506  1.6459  1.9914 -4.3373
  177DOPC    HB21615   5.551   6.186   2.495 -0.3188 -0.3131  1.5205
  177DOPC    C221616   5.634   6.170   2.685  0.7077 -0.7923  0.4230
  177DOPC    HS21617   5.604   6.274   2.711  0.4120 -1.1073  1.3972
  177DOPC   O2121618   5.762   6.141   2.735  0.3637  0.1334  0.2339
  177DOPC   C2121619   5.792   6.200   2.851 -0.0160  0.0471 -0.2039
  177DOPC   O2221620   5.729   6.289   2.904  0.4148  0.0188  0.5911
  177DOPC   C2221621   5.911   6.122   2.917  0.0773 -0.9600  0.8909
  177DOPC   H2R21622   5.993   6.103   2.844 -0.9997 -0.9500 -0.3511
  177DOPC   H2S21623   5.864   6.027   2.951  0.8214 -2.0329 -0.8900
  177DOPC    C321624   5.532   6.067   2.738  0.6889  1.1418 -0.4879
  177DOPC    HX21625   5.585   5.969   2.734  2.2599  2.0140 -2.1921
  177DOPC    HY21626   5.442   6.058   2.674  0.8219  0.5267 -0.6011
  177DOPC   O3121627   5.491   6.095   2.874 -0.1404  0.1702 -0.4979
  177DOPC   C3121628   5.380   6.174   2.883 -0.0561  0.1224 -0.9797
  177DOPC   O3221629   5.320   6.223   2.793 -0.1803 -0.5102  0.0235
  177DOPC   C3221630   5.358   6.189   3.036 -0.0363  0.2755 -0.5544
  177DOPC   H2X21631   5.334   6.084   3.066 -1.9306  0.8703  0.1770
  177DOPC   H2Y21632   5.453   6.216   3.087 -1.7729  3.2042  1.4319
  177DOPC   C2321633   5.964   6.196   3.041 -0.0421 -0.3406  0.6528
  177DOPC   H3R21634   5.878   6.211   3.110 -2.3790  2.8510 -2.6063
  177DOPC   H3S21635   5.994   6.299   3.013  1.2910 -0.8833  0.0308
  177DOPC   C2421636   6.081   6.130   3.111  0.7069 -0.2394 -0.3255
  177DOPC   H4R21637   6.172   6.132   3.047  2.2210 -1.2280  1.6797
  177DOPC   H4S21638   6.061   6.023   3.131 -1.2811  0.1682  0.0758
  177DOPC   C2521639   6.111   6.207   3.236 -0.2772 -0.6934  0.2310
  177DOPC   H5R21640   6.018   6.244   3.284 -0.8802  1.4224 -2.3615
  177DOPC   H5S21641   6.158   6.304   3.209 -1.0260  0.1704  1.8724
  177DOPC   C2621642   6.195   6.143   3.347  0.1423  0.4954 -0.1527
  177DOPC   H6R21643   6.202   6.194   3.446 -0.7692 -1.4231  0.9459
  177DOPC   H6S21644   6.299   6.146   3.309 -0.1789  3.8661 -1.1289
  177DOPC   C2721645   6.157   5.997   3.384  0.5620 -0.2096  0.9825
  177DOPC   H7R21646   6.206   5.931   3.309  1.1594 -0.3314  1.4645
  177DOPC   H7S21647   6.049   5.981   3.368  0.4390  0.9990  0.4816
  177DOPC   C2821648   6.220   5.948   3.519 -0.2296  0.3151  0.2831
  177DOPC   H8R21649   6.185   6.014   3.601 -3.2870 -2.6736  1.6061
  177DOPC   H8S21650   6.331   5.957   3.516 -0.1542  0.2820  2.0258
  177DOPC   C2921651   6.173   5.811   3.555 -0.0669 -0.3125  0.0907
  177DOPC   H9R21652   6.151   5.737   3.476  1.7837 -0.1950 -0.5640
  177DOPC  C21021653   6.149   5.764   3.680  0.1889 -0.4358 -0.2432
  177DOPC  H10R21654   6.105   5.663   3.681 -1.8668  0.3336 -2.4386
  177DOPC  C21121655   6.164   5.818   3.817 -0.1266 -0.0015  0.4431
  177DOPC  H11R21656   6.134   5.925   3.819 -2.0948 -0.5319  1.3570
  177DOPC  H11S21657   6.270   5.817   3.851  0.1627 -2.0204 -0.3925
  177DOPC  C21221658   6.071   5.751   3.911  0.0215 -0.2410  0.6505
  177DOPC  H12R21659   6.106   5.652   3.947 -0.9949 -0.0548  2.2670
  177DOPC  H12S21660   5.973   5.736   3.861  1.1254  1.6147 -2.3386
  177DOPC  C21321661   6.053   5.847   4.035  0.0878 -0.3324 -0.4932
  177DOPC  H13R21662   5.987   5.795   4.108 -0.9949  2.1977  0.4537
  177DOPC  H13S21663   5.991   5.934   4.005  0.0441 -0.8131 -1.8287
  177DOPC  C21421664   6.178   5.884   4.112 -0.3117 -0.7236 -0.6472
  177DOPC  H14R21665   6.262   5.891   4.040  0.7635 -0.4621  0.6114
  177DOPC  H14S21666   6.206   5.796   4.174  1.5985  0.0012 -0.4272
  177DOPC  C21521667   6.156   6.009   4.190  0.1534  0.2080 -0.9889
  177DOPC  H15R21668   6.106   6.095   4.141  0.3052  2.3236  2.2665
  177DOPC  H15S21669   6.254   6.052   4.218  0.3986 -0.9255  0.0085
  177DOPC  C21621670   6.076   5.981   4.318 -0.5270 -0.1612  0.3587
  177DOPC  H16R21671   6.135   5.907   4.376  0.9720  0.0951 -0.7654
  177DOPC  H16S21672   5.975   5.940   4.301 -0.2555 -0.7758  0.1991
  177DOPC  C21721673   6.057   6.108   4.401 -0.3762  0.0799  1.2294
  177DOPC  H17R21674   5.981   6.171   4.351  0.6635  0.0047 -0.5496
  177DOPC  H17S21675   6.155   6.160   4.400 -1.0947  1.4462  0.9915
  177DOPC  C21821676   6.020   6.089   4.548 -0.6050  0.2362  0.5680
  177DOPC  H18R21677   6.046   6.186   4.596  0.9962  1.1072 -1.8483
  177DOPC  H18S21678   6.073   6.008   4.603  1.6071  1.8512  0.9597
  177DOPC  H18T21679   5.910   6.084   4.562 -0.8147  1.3694 -0.4877
  177DOPC   C3321680   5.232   6.273   3.071 -0.1623 -0.2499  0.3481
  177DOPC   H3X21681   5.153   6.246   2.997  0.9316 -0.4901 -0.7823
  177DOPC   H3Y21682   5.244   6.381   3.051 -1.2764 -0.1036  0.4308
  177DOPC   C3421683   5.184   6.243   3.218  0.2551  0.4372  0.1371
  177DOPC   H4X21684   5.144   6.141   3.206  1.4184 -0.2277  1.6229
  177DOPC   H4Y21685   5.106   6.320   3.236  0.1338  0.9097 -2.1106
  177DOPC   C3521686   5.295   6.237   3.320 -0.1626 -0.6008 -0.2608
  177DOPC   H5X21687   5.350   6.334   3.324 -1.3993  0.1330 -0.6204
  177DOPC   H5Y21688   5.353   6.146   3.294 -2.1140 -1.2751 -2.5244
  177DOPC   C3621689   5.237   6.229   3.458 -0.7482  0.3272 -0.8186
  177DOPC   H6X21690   5.155   6.302   3.477 -0.8501  0.0198 -0.0438
  177DOPC   H6Y21691   5.201   6.124   3.466  1.9650 -0.6081  0.3828
  177DOPC   C3721692   5.351   6.264   3.563  0.1376  0.4220 -0.7461
  177DOPC   H7X21693   5.438   6.194   3.565 -0.1354 -0.0255  3.0857
  177DOPC   H7Y21694   5.388   6.367   3.547 -0.5919  1.2879  2.4081
  177DOPC   C3821695   5.323   6.263   3.719 -0.1885 -0.3722  0.0756
  177DOPC   H8X21696   5.416   6.295   3.770 -1.2032  1.1447  1.0652
  177DOPC   H8Y21697   5.293   6.164   3.757 -3.8041  0.3304 -0.5014
  177DOPC   C3921698   5.210   6.361   3.755  0.2592 -0.3928  0.0944
  177DOPC   H9X21699   5.119   6.353   3.694  0.0649  2.2639 -0.0645
  177DOPC  C31021700   5.201   6.451   3.853 -0.0982 -0.0672 -0.9151
  177DOPC  H10X21701   5.098   6.487   3.868 -0.5157 -1.8866  0.9459
  177DOPC  C31121702   5.302   6.472   3.966  0.6637 -0.2829 -0.1176
  177DOPC  H11X21703   5.298   6.573   4.012  5.3755 -1.2791  3.2758
  177DOPC  H11Y21704   5.408   6.465   3.934  0.5025  0.7835 -0.9479
  177DOPC  C31221705   5.265   6.374   4.076 -0.0493 -0.2111  0.2115
  177DOPC  H12X21706   5.271   6.266   4.049 -1.7427 -0.4619  0.7052
  177DOPC  H12Y21707   5.160   6.399   4.101 -0.7017 -1.1247 -1.5000
  177DOPC  C31321708   5.347   6.403   4.199 -0.0998 -0.7634 -0.5873
  177DOPC  H13X21709   5.453   6.393   4.167  0.6169  3.4562 -0.1257
  177DOPC  H13Y21710   5.332   6.512   4.211 -0.3104 -0.4564 -3.2085
  177DOPC  C31421711   5.306   6.328   4.322  0.5165  0.5249  0.4711
  177DOPC  H14X21712   5.197   6.332   4.337  0.4957  0.1079  0.4580
  177DOPC  H14Y21713   5.339   6.222   4.319 -0.2695  0.2855 -1.8447
  177DOPC  C31521714   5.363   6.391   4.449  0.4732 -0.2902 -0.0603
  177DOPC  H15X21715   5.317   6.335   4.534 -0.3600 -0.4765 -0.6276
  177DOPC  H15Y21716   5.334   6.498   4.442 -0.9849 -0.5738  0.9639
  177DOPC  C31621717   5.515   6.379   4.464  0.1303  0.3832 -0.7354
  177DOPC  H16X21718   5.536   6.281   4.415 -0.2991 -0.6090  0.9412
  177DOPC  H16Y21719   5.570   6.455   4.405  1.8403  0.8238  1.2782
  177DOPC  C31721720   5.570   6.396   4.611 -0.4944 -0.2640  0.4840
  177DOPC  H17X21721   5.527   6.320   4.680 -2.3011  2.0799  2.1290
  177DOPC  H17Y21722   5.680   6.382   4.602 -0.6843 -0.7617 -1.4012
  177DOPC  C31821723   5.534   6.540   4.659 -1.1231  0.3615 -0.0304
  177DOPC  H18X21724   5.536   6.613   4.576  1.9533  1.5303  0.9283
  177DOPC  H18Y21725   5.431   6.543   4.702 -1.8316  1.1330 -1.6866
  177DOPC  H18Z21726   5.609   6.570   4.735 -1.4181 -1.0928  0.8797
  178DOPC     N21727   1.517   5.140   2.683 -0.0057 -0.2059 -0.2208
  178DOPC   C1221728   1.500   5.229   2.799 -0.3605 -0.2710 -0.3089
  178DOPC  H12A21729   1.458   5.176   2.883  0.1487 -0.2129 -0.0140
  178DOPC  H12B21730   1.434   5.313   2.781  0.4815  0.2414 -1.1239
  178DOPC   C1321731   1.554   5.223   2.566 -0.6040 -0.0797 -0.4195
  178DOPC  H13A21732   1.642   5.279   2.594 -0.5840  0.4948 -1.5508
  178DOPC  H13B21733   1.577   5.158   2.483 -1.0943  1.0667 -1.4965
  178DOPC  H13C21734   1.479   5.294   2.533 -2.9847 -1.0914  2.3564
  178DOPC   C1421735   1.389   5.067   2.659  0.5389 -0.5414 -0.1128
  178DOPC  H14A21736   1.364   5.027   2.757  1.4339  0.3034  0.4783
  178DOPC  H14B21737   1.306   5.126   2.623 -0.7891 -1.9627  0.4749
  178DOPC  H14C21738   1.403   4.995   2.580  2.5298 -0.5429  0.1825
  178DOPC   C1521739   1.638   5.047   2.700  0.5145 -0.9733 -0.5213
  178DOPC  H15A21740   1.728   5.107   2.702  0.4461 -0.8815 -0.1169
  178DOPC  H15B21741   1.641   4.983   2.613 -1.5375  0.9547 -2.1470
  178DOPC  H15C21742   1.631   4.988   2.790 -1.8588 -0.1292 -0.1021
  178DOPC   C1121743   1.631   5.298   2.850 -0.3111  0.2775  0.2868
  178DOPC  H11A21744   1.618   5.343   2.950 -2.9254 -1.4026  0.7938
  178DOPC  H11B21745   1.713   5.225   2.865  1.6521  2.5466  1.0224
  178DOPC     P21746   1.623   5.537   2.752 -0.1396 -0.3096  0.0353
  178DOPC   O1321747   1.481   5.532   2.784 -0.4601  0.1511  0.1986
  178DOPC   O1421748   1.655   5.604   2.627 -0.2220 -0.0417  0.3047
  178DOPC   O1221749   1.686   5.395   2.759 -0.4641  0.1255  0.7154
  178DOPC   O1121750   1.686   5.624   2.868  0.1861  0.0492  0.0442
  178DOPC    C121751   1.828   5.620   2.892  0.3219  0.3705 -0.4896
  178DOPC    HA21752   1.881   5.686   2.819  1.5482  0.7772  0.7338
  178DOPC    HB21753   1.860   5.514   2.899 -0.0376  0.3477  0.9041
  178DOPC    C221754   1.850   5.667   3.039  0.5951  0.0154 -0.0057
  178DOPC    HS21755   1.840   5.778   3.030  1.0749  0.0042 -0.8349
  178DOPC   O2121756   1.971   5.609   3.099  0.2426  0.7360  0.0597
  178DOPC   C2121757   2.038   5.691   3.184 -0.1159  0.3767  0.0660
  178DOPC   O2221758   1.989   5.797   3.222  0.2517  0.1412 -0.3878
  178DOPC   C2221759   2.172   5.627   3.225 -0.4527 -0.0254  0.6379
  178DOPC   H2R21760   2.225   5.597   3.132  1.4008  1.3176  1.2246
  178DOPC   H2S21761   2.161   5.536   3.286  4.4026 -0.7141  0.8072
  178DOPC    C321762   1.726   5.627   3.128  0.5264 -0.4546 -0.2419
  178DOPC    HX21763   1.692   5.527   3.094  0.5105 -0.0299 -1.5377
  178DOPC    HY21764   1.640   5.691   3.097  0.0528  0.3582  2.5112
  178DOPC   O3121765   1.750   5.637   3.272  0.0496  0.2794  0.2420
  178DOPC   C3121766   1.727   5.754   3.319 -0.3620  0.0642  0.0212
  178DOPC   O3221767   1.689   5.854   3.262 -0.3250 -0.2551  0.7095
  178DOPC   C3221768   1.741   5.743   3.466 -0.7951  0.1353  0.7968
  178DOPC   H2X21769   1.647   5.700   3.506 -2.3759 -0.7928 -3.4035
  178DOPC   H2Y21770   1.833   5.686   3.490 -0.5615  0.0974 -0.1324
  178DOPC   C2321771   2.258   5.728   3.303  0.2138 -0.1662 -0.0727
  178DOPC   H3R21772   2.200   5.764   3.391  2.5947 -0.8501  1.9085
  178DOPC   H3S21773   2.276   5.819   3.243 -0.7290  0.6999  0.8989
  178DOPC   C2421774   2.392   5.667   3.354  0.1722 -0.1116  0.6091
  178DOPC   H4R21775   2.460   5.654   3.268  0.2864 -2.2213  0.9595
  178DOPC   H4S21776   2.371   5.568   3.400  1.0614 -2.1855 -3.0521
  178DOPC   C2521777   2.458   5.771   3.449  0.0381 -0.3447 -0.3499
  178DOPC   H5R21778   2.407   5.775   3.548 -1.4030  1.2054 -1.1074
  178DOPC   H5S21779   2.445   5.872   3.404 -0.5762  0.1258  0.8300
  178DOPC   C2621780   2.604   5.759   3.497 -0.2042 -0.1195  0.1290
  178DOPC   H6R21781   2.664   5.746   3.405 -0.4614  4.0749 -0.8093
  178DOPC   H6S21782   2.632   5.678   3.568  2.5474  0.4312 -0.2237
  178DOPC   C2721783   2.653   5.889   3.566  0.2932 -0.6466 -0.5371
  178DOPC   H7R21784   2.606   5.966   3.502  0.3398 -0.4114 -0.2879
  178DOPC   H7S21785   2.761   5.910   3.551  0.0453  2.2630  1.1085
  178DOPC   C2821786   2.599   5.921   3.708  0.7926 -0.2156 -0.5452
  178DOPC   H8R21787   2.640   5.833   3.763 -1.2809 -0.5539  0.5620
  178DOPC   H8S21788   2.488   5.918   3.711  0.8222 -0.6038  0.5785
  178DOPC   C2921789   2.650   6.054   3.755 -0.1141 -0.4137 -0.1936
  178DOPC   H9R21790   2.593   6.141   3.719 -0.4898  0.2847  1.9256
  178DOPC  C21021791   2.754   6.071   3.838 -0.3449 -0.0283 -0.1573
  178DOPC  H10R21792   2.779   6.168   3.884  3.1194 -0.1428 -1.5572
  178DOPC  C21121793   2.839   5.961   3.885 -1.1751  0.3199 -1.2821
  178DOPC  H11R21794   2.873   5.899   3.798 -3.2462 -2.5864 -0.1769
  178DOPC  H11S21795   2.774   5.890   3.939  0.0526 -1.0612 -1.5307
  178DOPC  C21221796   2.953   5.993   3.990  0.0291 -0.3512 -0.0271
  178DOPC  H12R21797   3.010   6.078   3.948 -1.4429  0.3048 -0.7655
  178DOPC  H12S21798   3.020   5.905   3.999  2.3413  1.3875  0.4878
  178DOPC  C21321799   2.889   6.031   4.123  0.1242  0.3189 -0.2893
  178DOPC  H13R21800   2.837   5.941   4.162  0.1800 -0.3650 -1.7003
  178DOPC  H13S21801   2.823   6.120   4.124 -1.2425 -0.6565 -0.5337
  178DOPC  C21421802   3.005   6.056   4.228 -0.4106  0.1171 -0.6230
  178DOPC  H14R21803   3.072   6.132   4.181  1.2579 -1.1652 -0.4064
  178DOPC  H14S21804   3.050   5.955   4.237 -0.9407 -0.2485 -1.8931
  178DOPC  C21521805   2.969   6.107   4.363 -0.4367 -0.3567  0.0721
  178DOPC  H15R21806   2.886   6.064   4.425  0.5493  1.5697  2.9572
  178DOPC  H15S21807   2.927   6.207   4.340  1.6326  0.2232 -1.3595
  178DOPC  C21621808   3.096   6.111   4.455  0.0140  0.1963  0.1144
  178DOPC  H16R21809   3.181   6.163   4.406 -0.3849 -0.9016 -1.8576
  178DOPC  H16S21810   3.129   6.006   4.474 -0.5304  0.2655  1.5445
  178DOPC  C21721811   3.063   6.174   4.593  0.8858 -0.1399 -0.3867
  178DOPC  H17R21812   3.000   6.104   4.653  2.1285 -0.7234  0.2617
  178DOPC  H17S21813   3.014   6.271   4.567  2.0633  0.6915  0.3894
  178DOPC  C21821814   3.192   6.193   4.673  0.5520  0.3967  0.1831
  178DOPC  H18R21815   3.172   6.242   4.771 -0.6019  0.8232 -0.2438
  178DOPC  H18S21816   3.260   6.251   4.608  1.0673  0.2690  0.6009
  178DOPC  H18T21817   3.244   6.097   4.694 -0.7619 -0.3525  0.1367
  178DOPC   C3321818   1.758   5.878   3.542 -0.0628  0.4195  0.6491
  178DOPC   H3X21819   1.660   5.929   3.544 -1.8293 -2.6278 -0.5062
  178DOPC   H3Y21820   1.830   5.947   3.494  1.2307 -1.0676  0.3697
  178DOPC   C3421821   1.807   5.868   3.680 -0.3749  0.5392 -0.1119
  178DOPC   H4X21822   1.807   5.969   3.727  2.3662 -0.3393  2.0350
  178DOPC   H4Y21823   1.908   5.821   3.678 -1.1070 -1.1935  1.2877
  178DOPC   C3521824   1.725   5.783   3.777 -0.1919  0.0066 -0.9094
  178DOPC   H5X21825   1.722   5.674   3.753  1.5099 -0.5672  1.1820
  178DOPC   H5Y21826   1.625   5.828   3.765  0.2400  0.8979 -1.2965
  178DOPC   C3621827   1.773   5.816   3.922  0.0639 -0.2176 -0.1189
  178DOPC   H6X21828   1.751   5.921   3.949 -1.1484 -0.4651 -0.0781
  178DOPC   H6Y21829   1.708   5.763   3.995 -0.9957  0.3093 -0.6665
  178DOPC   C3721830   1.920   5.794   3.950  0.1746  0.0550 -0.2130
  178DOPC   H7X21831   1.935   5.684   3.946  0.6807  0.0938  0.3736
  178DOPC   H7Y21832   1.992   5.828   3.873  1.1245 -1.8589 -0.2364
  178DOPC   C3821833   1.969   5.838   4.091  0.4249 -0.4491  0.7063
  178DOPC   H8X21834   1.920   5.937   4.102  0.7066 -0.4326  2.0900
  178DOPC   H8Y21835   2.078   5.860   4.082 -0.0679  1.2504 -3.1143
  178DOPC   C3921836   1.923   5.746   4.205  0.1028  0.5285  0.1064
  178DOPC   H9X21837   1.818   5.713   4.205  0.4195 -0.7427  2.6299
  178DOPC  C31021838   1.994   5.721   4.316 -0.1506 -0.9082  0.0141
  178DOPC  H10X21839   1.954   5.645   4.386 -2.3968  1.6566  1.7146
  178DOPC  C31121840   2.131   5.772   4.329  0.5401 -0.2161 -0.2681
  178DOPC  H11X21841   2.152   5.870   4.282 -0.5467 -0.2562 -0.8811
  178DOPC  H11Y21842   2.192   5.696   4.277  0.6074 -1.6947  1.8371
  178DOPC  C31221843   2.164   5.802   4.477 -0.0115 -0.5395 -0.3754
  178DOPC  H12X21844   2.081   5.856   4.527  2.1067  2.9933 -0.3742
  178DOPC  H12Y21845   2.251   5.871   4.474  1.7583 -2.7127 -1.4502
  178DOPC  C31321846   2.190   5.680   4.568 -0.4295 -0.8729  0.1711
  178DOPC  H13X21847   2.096   5.635   4.607 -1.6227  0.4616 -0.9969
  178DOPC  H13Y21848   2.235   5.607   4.498  1.6802  0.0065  0.5546
  178DOPC  C31421849   2.298   5.709   4.680 -0.0464  0.3700 -0.7708
  178DOPC  H14X21850   2.295   5.617   4.742 -0.0120  1.2989  0.6558
  178DOPC  H14Y21851   2.404   5.718   4.649  0.8647  1.1210  2.2678
  178DOPC  C31521852   2.257   5.823   4.777 -0.2815 -0.0792  0.0507
  178DOPC  H15X21853   2.148   5.831   4.797 -0.2132  1.1038  0.0252
  178DOPC  H15Y21854   2.291   5.922   4.742  0.2802 -0.0054  0.7823
  178DOPC  C31621855   2.344   5.809   4.910  0.8168 -0.0606  0.6879
  178DOPC  H16X21856   2.318   5.703   4.930 -0.6844 -0.1318 -1.2924
  178DOPC  H16Y21857   2.453   5.820   4.894  0.7238 -0.1148 -0.0191
  178DOPC  C31721858   2.295   5.901   5.026  0.7050  0.8430  0.2415
  178DOPC  H17X21859   2.190   5.875   5.051  0.4984  3.5448  2.7270
  178DOPC  H17Y21860   2.358   5.887   5.116 -0.2072 -2.0529  0.5295
  178DOPC  C31821861   2.302   6.051   5.010  0.5402  0.9236 -0.3104
  178DOPC  H18X21862   2.300   6.096   5.112  2.9882 -1.3169  0.8349
  178DOPC  H18Y21863   2.398   6.079   4.961  0.2093 -0.6097 -1.9442
  178DOPC  H18Z21864   2.227   6.093   4.939  0.0828  0.3090 -0.1965
  179DOPC     N21865   6.761   5.735   2.455  0.6421 -0.1776  0.0551
  179DOPC   C1221866   6.659   5.738   2.567 -0.2788 -0.1159 -0.0647
  179DOPC  H12A21867   6.560   5.720   2.527  0.9255 -3.4439 -1.9072
  179DOPC  H12B21868   6.660   5.832   2.620 -1.7512 -1.3399  2.3208
  179DOPC   C1321869   6.736   5.839   2.350 -0.5268 -0.5169 -0.7652
  179DOPC  H13A21870   6.781   5.936   2.369  1.0906 -1.2332 -0.8739
  179DOPC  H13B21871   6.784   5.804   2.260 -0.1909 -2.4917  0.1486
  179DOPC  H13C21872   6.631   5.849   2.326 -0.4649 -3.2627 -2.5303
  179DOPC   C1421873   6.761   5.598   2.396  0.2213  0.1066 -0.2309
  179DOPC  H14A21874   6.669   5.574   2.344  0.0512  0.2302  0.0084
  179DOPC  H14B21875   6.834   5.592   2.318  0.4936  0.8121 -0.0347
  179DOPC  H14C21876   6.775   5.527   2.476 -1.9577 -0.2392 -0.0890
  179DOPC   C1521877   6.904   5.762   2.500 -0.7088 -0.1877  0.3101
  179DOPC  H15A21878   6.975   5.751   2.419  1.8012  0.3700  2.3379
  179DOPC  H15B21879   6.937   5.685   2.569  1.4268 -1.3888 -1.8642
  179DOPC  H15C21880   6.915   5.863   2.534  1.4945  0.6754 -2.5504
  179DOPC   C1121881   6.675   5.642   2.684 -0.0462  0.2257 -0.4011
  179DOPC  H11A21882   6.779   5.658   2.720 -0.5513 -0.0837  1.3302
  179DOPC  H11B21883   6.622   5.677   2.775 -1.5027 -0.6635 -0.8813
  179DOPC     P21884   6.524   5.419   2.686 -0.0088  0.2071 -0.2181
  179DOPC   O1321885   6.561   5.281   2.647 -0.0199 -0.0311  0.5921
  179DOPC   O1421886   6.411   5.481   2.623  0.1367  0.3836  0.1894
  179DOPC   O1221887   6.656   5.503   2.662 -0.4104  0.4687  0.3090
  179DOPC   O1121888   6.523   5.421   2.844  0.2088 -0.6892 -0.3458
  179DOPC    C121889   6.644   5.422   2.919  0.2099 -0.6087 -0.7351
  179DOPC    HA21890   6.693   5.521   2.911  0.5638 -0.8241 -1.2860
  179DOPC    HB21891   6.721   5.348   2.890 -0.4988 -2.9248  2.7162
  179DOPC    C221892   6.615   5.400   3.072  0.1620 -0.2542  0.4333
  179DOPC    HS21893   6.583   5.296   3.097  0.1468 -0.2365  0.4875
  179DOPC   O2121894   6.527   5.499   3.120  0.2696 -0.1062 -0.2595
  179DOPC   C2121895   6.403   5.452   3.148  0.0024 -0.7668  0.3736
  179DOPC   O2221896   6.363   5.337   3.136 -0.3726 -0.1514  0.3506
  179DOPC   C2221897   6.312   5.568   3.199 -0.5640  0.3229 -0.1950
  179DOPC   H2R21898   6.349   5.666   3.161 -2.1477  1.2479  0.5472
  179DOPC   H2S21899   6.319   5.568   3.310 -1.1453  1.5658 -0.1455
  179DOPC    C321900   6.748   5.426   3.146  0.4425  0.2885 -0.7294
  179DOPC    HX21901   6.750   5.537   3.157  3.3313  0.5051 -2.5494
  179DOPC    HY21902   6.834   5.398   3.082  0.4719 -3.6693  0.7814
  179DOPC   O3121903   6.754   5.365   3.274 -0.0912 -0.1223  0.2544
  179DOPC   C3121904   6.807   5.251   3.280  0.1905  0.3232  0.1020
  179DOPC   O3221905   6.850   5.188   3.181 -0.0327 -0.7139 -0.4642
  179DOPC   C3221906   6.803   5.206   3.424 -0.1083  0.3284  0.6997
  179DOPC   H2X21907   6.884   5.131   3.437  0.5998  0.6651 -1.4415
  179DOPC   H2Y21908   6.831   5.293   3.487  0.7568 -0.8934  2.0753
  179DOPC   C2321909   6.167   5.556   3.151 -0.0651 -0.0276  0.1534
  179DOPC   H3R21910   6.122   5.461   3.189 -0.1835 -0.2270 -0.4672
  179DOPC   H3S21911   6.169   5.549   3.040  1.6616  1.3730  0.0554
  179DOPC   C2421912   6.082   5.674   3.196 -0.4466  0.5702  0.0687
  179DOPC   H4R21913   6.150   5.761   3.197  1.1091 -0.6083  0.0724
  179DOPC   H4S21914   6.052   5.670   3.302 -0.4562  0.4901  0.0631
  179DOPC   C2521915   5.957   5.693   3.122  0.5567  0.2351  0.1916
  179DOPC   H5R21916   5.916   5.590   3.125 -1.2973  0.9555  2.7883
  179DOPC   H5S21917   5.978   5.716   3.015 -1.2487 -1.8454 -0.6704
  179DOPC   C2621918   5.852   5.784   3.187  0.7971 -0.5545  0.1085
  179DOPC   H6R21919   5.888   5.888   3.169 -0.3794 -0.1611 -0.1174
  179DOPC   H6S21920   5.841   5.765   3.296 -1.1080  0.9485  0.2416
  179DOPC   C2721921   5.707   5.774   3.123 -0.4934  0.4263 -0.3050
  179DOPC   H7R21922   5.690   5.667   3.144  1.7333  0.4661  2.1777
  179DOPC   H7S21923   5.697   5.800   3.015  0.0620  0.6003 -0.3180
  179DOPC   C2821924   5.593   5.852   3.185  0.2809  0.0472  0.1403
  179DOPC   H8R21925   5.584   5.819   3.291  3.6620 -2.0838 -0.0708
  179DOPC   H8S21926   5.498   5.833   3.132 -2.2370  2.2627  3.4287
  179DOPC   C2921927   5.616   6.003   3.179  0.4016  0.9547  0.1122
  179DOPC   H9R21928   5.600   6.046   3.079 -3.8565 -0.5720 -0.0938
  179DOPC  C21021929   5.647   6.094   3.271  0.0169 -0.9174 -0.7640
  179DOPC  H10R21930   5.649   6.201   3.249  0.4730 -0.7299  0.1362
  179DOPC  C21121931   5.675   6.067   3.417 -0.0841 -0.5854  0.0564
  179DOPC  H11R21932   5.710   5.962   3.427  1.5396 -0.1586 -0.7370
  179DOPC  H11S21933   5.580   6.077   3.473 -1.2908 -1.5509 -1.7385
  179DOPC  C21221934   5.792   6.147   3.474  0.0751  0.0221  0.4891
  179DOPC  H12R21935   5.783   6.254   3.444 -1.0845 -0.6492 -1.6853
  179DOPC  H12S21936   5.887   6.103   3.437  0.2083  1.4376 -0.9192
  179DOPC  C21321937   5.793   6.139   3.625  0.2152  0.8023 -0.3654
  179DOPC  H13R21938   5.829   6.039   3.656  1.1828  1.8453  2.1415
  179DOPC  H13S21939   5.695   6.155   3.674  0.5576 -3.2749  2.0980
  179DOPC  C21421940   5.892   6.227   3.701  0.1264 -0.0510 -0.0528
  179DOPC  H14R21941   5.909   6.329   3.660 -0.2733  0.2269  0.4676
  179DOPC  H14S21942   5.989   6.177   3.681 -0.9054 -1.9926 -0.4199
  179DOPC  C21521943   5.861   6.233   3.852  0.6829  0.1205 -0.0243
  179DOPC  H15R21944   5.952   6.260   3.909 -0.7120  3.1037  1.0354
  179DOPC  H15S21945   5.837   6.132   3.892 -2.0857  1.2592  1.4520
  179DOPC  C21621946   5.756   6.338   3.898  0.8857  0.2618 -0.1520
  179DOPC  H16R21947   5.684   6.331   3.814 -1.4562  1.1642  1.6744
  179DOPC  H16S21948   5.804   6.437   3.882  1.3919  0.6344  2.8889
  179DOPC  C21721949   5.695   6.337   4.034 -1.1882 -0.2270 -0.0401
  179DOPC  H17R21950   5.656   6.234   4.052 -0.3986 -0.5878 -0.3747
  179DOPC  H17S21951   5.619   6.418   4.040 -1.5452 -0.5793  0.2494
  179DOPC  C21821952   5.798   6.359   4.153  0.1689  0.3240  0.4916
  179DOPC  H18R21953   5.843   6.458   4.131 -0.9696  0.8263  0.3457
  179DOPC  H18S21954   5.883   6.290   4.139  1.7923  2.8030 -3.2179
  179DOPC  H18T21955   5.742   6.353   4.249 -2.3220  0.0412 -0.8970
  179DOPC   C3321956   6.663   5.153   3.465  0.4593 -0.0983 -0.1003
  179DOPC   H3X21957   6.586   5.224   3.430  0.0471  0.6032  2.0602
  179DOPC   H3Y21958   6.667   5.161   3.576  1.8314 -1.4017 -0.0142
  179DOPC   C3421959   6.631   5.011   3.421  0.1809 -0.0008 -0.5379
  179DOPC   H4X21960   6.727   4.957   3.407  1.2419  1.6367  0.0531
  179DOPC   H4Y21961   6.590   5.014   3.318 -1.2229 -2.3449 -0.1132
  179DOPC   C3521962   6.518   4.932   3.506 -0.1711 -0.0687 -0.3413
  179DOPC   H5X21963   6.431   4.998   3.525 -0.7993 -0.9279 -0.2006
  179DOPC   H5Y21964   6.565   4.910   3.604 -0.8823  2.4221  0.6291
  179DOPC   C3621965   6.452   4.815   3.422 -0.0043  0.0760  0.7949
  179DOPC   H6X21966   6.384   4.850   3.341  2.1522  0.9812 -0.7339
  179DOPC   H6Y21967   6.540   4.758   3.384 -1.2461 -1.9533  0.8375
  179DOPC   C3721968   6.379   4.720   3.516  0.1841 -0.1940 -0.0609
  179DOPC   H7X21969   6.364   4.627   3.458  2.3603  0.1710 -1.3254
  179DOPC   H7Y21970   6.462   4.685   3.581 -0.0398 -3.1258 -1.2023
  179DOPC   C3821971   6.255   4.771   3.601  0.7258 -0.0368  0.0299
  179DOPC   H8X21972   6.159   4.761   3.547  0.0380 -2.7346  1.6016
  179DOPC   H8Y21973   6.264   4.882   3.605 -1.5142  0.2481 -1.3137
  179DOPC   C3921974   6.242   4.689   3.721  0.2883  0.3078  0.2967
  179DOPC   H9X21975   6.212   4.584   3.706 -0.5715  0.6721 -0.5720
  179DOPC  C31021976   6.281   4.724   3.838 -0.4368 -0.7937 -0.0209
  179DOPC  H10X21977   6.285   4.654   3.922 -1.0173  0.3958  1.0240
  179DOPC  C31121978   6.343   4.854   3.882  0.1206 -0.4986 -0.5144
  179DOPC  H11X21979   6.284   4.901   3.964  1.9964 -0.1429  0.6964
  179DOPC  H11Y21980   6.331   4.933   3.805 -0.2612 -0.2725 -0.2265
  179DOPC  C31221981   6.497   4.852   3.907 -0.9922  0.6742  0.1311
  179DOPC  H12X21982   6.537   4.953   3.931  2.0518 -0.6218  0.9696
  179DOPC  H12Y21983   6.550   4.817   3.816  0.3734  2.4005  0.2062
  179DOPC  C31321984   6.532   4.754   4.020 -0.6246  0.1423 -0.0359
  179DOPC  H13X21985   6.481   4.656   4.014 -1.4694  0.2753  3.2819
  179DOPC  H13Y21986   6.643   4.760   4.016 -0.5662  3.2980  2.2247
  179DOPC  C31421987   6.488   4.805   4.160 -0.8741 -0.1669 -0.1808
  179DOPC  H14X21988   6.532   4.907   4.162  1.0471 -0.8903 -2.1765
  179DOPC  H14Y21989   6.381   4.815   4.189 -0.7339  2.4786 -0.3876
  179DOPC  C31521990   6.561   4.726   4.275 -0.2543 -0.0678 -0.2044
  179DOPC  H15X21991   6.665   4.713   4.240  0.4691  1.9940  1.0258
  179DOPC  H15Y21992   6.505   4.630   4.282 -3.2379  1.5507 -0.1108
  179DOPC  C31621993   6.567   4.798   4.412 -0.5589  0.5850 -0.5902
  179DOPC  H16X21994   6.606   4.900   4.393  3.4483 -0.7298 -0.3199
  179DOPC  H16Y21995   6.468   4.812   4.460 -0.0154  2.6328  0.0344
  179DOPC  C31721996   6.654   4.722   4.516  0.2378  0.2592 -0.1529
  179DOPC  H17X21997   6.611   4.620   4.516 -0.8233  0.6368 -2.3848
  179DOPC  H17Y21998   6.755   4.710   4.473  0.3575 -2.3907  0.7375
  179DOPC  C31821999   6.653   4.776   4.662 -0.7649  0.7085  0.3813
  179DOPC  H18X22000   6.557   4.775   4.718  0.1676  3.7213  2.2854
  179DOPC  H18Y22001   6.715   4.718   4.734  2.2981  1.1024 -1.7544
  179DOPC  H18Z22002   6.684   4.882   4.668 -0.2689  0.5570  0.5048
  180DOPC     N22003   6.194   3.496   2.359 -0.9944  0.7176 -0.6343
  180DOPC   C1222004   6.229   3.404   2.475 -0.7350  0.4932 -0.5650
  180DOPC  H12A22005   6.334   3.379   2.479 -0.7059  0.5723 -0.8556
  180DOPC  H12B22006   6.174   3.311   2.473  2.5228 -1.6238  0.2342
  180DOPC   C1322007   6.047   3.544   2.376 -0.2937 -0.0987  0.9485
  180DOPC  H13A22008   5.976   3.464   2.389  0.4758 -1.3405 -1.6810
  180DOPC  H13B22009   6.049   3.612   2.460  0.5342  0.4001  0.5382
  180DOPC  H13C22010   6.026   3.610   2.294  1.6651 -0.3981  0.1402
  180DOPC   C1422011   6.198   3.425   2.233 -0.1255 -0.2845 -0.7477
  180DOPC  H14A22012   6.296   3.391   2.203 -0.8168 -2.9839 -0.1524
  180DOPC  H14B22013   6.121   3.350   2.229  1.4526 -1.9288 -2.9655
  180DOPC  H14C22014   6.173   3.501   2.160 -1.9627 -0.8937 -0.7920
  180DOPC   C1522015   6.290   3.606   2.361 -0.0269 -0.0033  0.0300
  180DOPC  H15A22016   6.265   3.674   2.442 -0.0930 -0.4951  0.4296
  180DOPC  H15B22017   6.288   3.664   2.270  0.3925 -1.6550 -1.0622
  180DOPC  H15C22018   6.390   3.569   2.374 -0.6658 -1.4819  1.0107
  180DOPC   C1122019   6.203   3.452   2.621  0.2037  0.5944 -0.6597
  180DOPC  H11A22020   6.095   3.479   2.626 -0.1018 -0.8448  2.3582
  180DOPC  H11B22021   6.222   3.373   2.697  2.3161 -1.0158 -2.7013
  180DOPC     P22022   6.236   3.694   2.703  0.1467  0.1533 -0.0235
  180DOPC   O1322023   6.131   3.746   2.614  0.6009  0.3324 -0.3474
  180DOPC   O1422024   6.353   3.782   2.714  0.5221  0.3448  0.3006
  180DOPC   O1222025   6.288   3.556   2.646 -0.6153  0.3970 -0.3433
  180DOPC   O1122026   6.178   3.658   2.848 -0.2441 -0.4596 -0.2688
  180DOPC    C122027   6.090   3.738   2.930  0.6762  0.0524  0.8065
  180DOPC    HA22028   6.012   3.672   2.974 -1.5226  0.3267 -2.3270
  180DOPC    HB22029   6.037   3.819   2.876 -0.4945 -1.9832 -1.2551
  180DOPC    C222030   6.166   3.812   3.038 -0.7115  0.6398  0.1828
  180DOPC    HS22031   6.258   3.852   2.992 -0.9653  0.1030 -0.8271
  180DOPC   O2122032   6.178   3.716   3.145  0.2666 -0.4034 -0.1985
  180DOPC   C2122033   6.295   3.718   3.204  0.6883 -0.3210 -0.5028
  180DOPC   O2222034   6.389   3.783   3.177 -0.4937  0.0380 -0.2866
  180DOPC   C2222035   6.293   3.628   3.330 -0.2123 -0.0361  0.6539
  180DOPC   H2R22036   6.393   3.627   3.378  0.4072  1.7335 -0.5018
  180DOPC   H2S22037   6.279   3.526   3.290  0.8639 -0.0514  0.2874
  180DOPC    C322038   6.083   3.933   3.088  0.1057  0.0496 -0.0183
  180DOPC    HX22039   5.976   3.901   3.084  0.0004  0.3125  0.6369
  180DOPC    HY22040   6.089   4.015   3.013 -0.4805  0.5974  0.5170
  180DOPC   O3122041   6.110   3.983   3.215  0.0929  0.0430  0.2376
  180DOPC   C3122042   6.213   4.060   3.231 -0.5379 -0.0385 -0.1147
  180DOPC   O3222043   6.291   4.096   3.144  0.1984  0.7709 -0.0555
  180DOPC   C3222044   6.237   4.082   3.376  0.3735  0.0857  0.0083
  180DOPC   H2X22045   6.233   3.980   3.422 -1.7216 -0.7471 -1.8498
  180DOPC   H2Y22046   6.345   4.108   3.377  0.8222 -1.2737 -3.0022
  180DOPC   C2322047   6.181   3.654   3.429 -0.0740 -0.3139 -0.2150
  180DOPC   H3R22048   6.082   3.655   3.377 -0.9394 -0.1932  1.3690
  180DOPC   H3S22049   6.184   3.752   3.482  0.9656  0.4469 -1.6223
  180DOPC   C2422050   6.164   3.546   3.542 -0.3464 -0.2981  0.0364
  180DOPC   H4R22051   6.261   3.528   3.594  0.3341 -0.7469 -1.3396
  180DOPC   H4S22052   6.143   3.452   3.488 -1.5166  0.3848 -0.7439
  180DOPC   C2522053   6.067   3.581   3.654  0.0080 -0.3680  0.3722
  180DOPC   H5R22054   6.080   3.508   3.737  1.0699 -0.6861 -0.0559
  180DOPC   H5S22055   5.962   3.580   3.618  0.0814 -2.0182  0.1226
  180DOPC   C2622056   6.086   3.710   3.731  0.0008 -0.1691  0.0763
  180DOPC   H6R22057   6.054   3.791   3.661  0.0220 -1.2860 -1.2752
  180DOPC   H6S22058   6.191   3.728   3.763  0.6525 -3.2457 -0.0063
  180DOPC   C2722059   5.994   3.719   3.853  0.1972 -0.6092  0.1635
  180DOPC   H7R22060   5.917   3.644   3.825 -0.1013 -0.3340  0.2356
  180DOPC   H7S22061   5.946   3.819   3.866  0.0709 -0.0251 -3.6317
  180DOPC   C2822062   6.061   3.680   3.991 -0.1615  0.3562 -0.2310
  180DOPC   H8R22063   6.122   3.766   4.024 -1.3145  0.8533  0.6463
  180DOPC   H8S22064   6.126   3.596   3.957 -1.7969 -0.6250 -1.0990
  180DOPC   C2922065   5.955   3.637   4.085  0.7579  0.4783  0.1265
  180DOPC   H9R22066   5.918   3.732   4.128 -1.8928 -0.7469  0.7215
  180DOPC  C21022067   5.918   3.514   4.130  0.7351  0.2921 -0.2372
  180DOPC  H10R22068   5.839   3.514   4.206  0.0679 -1.2808 -0.8928
  180DOPC  C21122069   5.957   3.378   4.075 -0.2102  0.1653 -0.0329
  180DOPC  H11R22070   6.041   3.387   4.003 -1.4634 -1.0617 -1.7293
  180DOPC  H11S22071   5.880   3.346   4.001  1.9185 -0.0844 -2.2597
  180DOPC  C21222072   5.964   3.266   4.180  0.1558 -0.1837 -0.4238
  180DOPC  H12R22073   6.012   3.287   4.278 -1.6032 -1.6166  0.8078
  180DOPC  H12S22074   6.024   3.181   4.140 -1.0206 -1.5587  0.6317
  180DOPC  C21322075   5.829   3.205   4.208 -0.7559  0.3015 -0.7602
  180DOPC  H13R22076   5.781   3.151   4.123  1.2192 -0.9689 -1.1336
  180DOPC  H13S22077   5.761   3.286   4.241 -1.2856  0.3027 -1.8021
  180DOPC  C21422078   5.839   3.089   4.312  0.4582 -0.2837 -0.4772
  180DOPC  H14R22079   5.741   3.076   4.362  0.7267  1.9690  0.7553
  180DOPC  H14S22080   5.900   3.127   4.396 -3.8675  0.5313  2.6323
  180DOPC  C21522081   5.898   2.957   4.263 -0.6784  0.0665  0.0241
  180DOPC  H15R22082   5.995   2.972   4.211 -0.1922 -1.9853  0.2520
  180DOPC  H15S22083   5.833   2.912   4.185  1.2419  3.1724 -3.6995
  180DOPC  C21622084   5.935   2.848   4.366  0.4190  0.5923 -0.7921
  180DOPC  H16R22085   5.969   2.759   4.309 -1.5002 -0.4040 -0.4808
  180DOPC  H16S22086   5.845   2.810   4.420  0.9838 -0.6200 -0.6681
  180DOPC  C21722087   6.054   2.883   4.470  0.1049  0.3487  0.3119
  180DOPC  H17R22088   6.069   2.800   4.541 -3.3832 -0.1624  0.6181
  180DOPC  H17S22089   6.018   2.975   4.521 -2.9138  0.5864 -1.9296
  180DOPC  C21822090   6.183   2.930   4.402  0.3554 -0.5083 -0.3247
  180DOPC  H18R22091   6.232   2.845   4.351 -1.1007 -1.8633  0.4557
  180DOPC  H18S22092   6.253   2.989   4.465 -0.8828  1.8877 -1.0552
  180DOPC  H18T22093   6.156   2.991   4.313 -0.9834  0.2731  0.5810
  180DOPC   C3322094   6.144   4.186   3.447 -0.1592 -0.1176 -0.0669
  180DOPC   H3X22095   6.043   4.140   3.445  0.1096 -0.8308  1.1998
  180DOPC   H3Y22096   6.145   4.284   3.396 -0.2566  0.6241  1.3014
  180DOPC   C3422097   6.188   4.205   3.593 -0.1437  0.3051 -0.3477
  180DOPC   H4X22098   6.207   4.107   3.643  0.4935  0.6237  0.0535
  180DOPC   H4Y22099   6.107   4.254   3.651  1.8915 -0.4607  3.5126
  180DOPC   C3522100   6.313   4.290   3.617  0.3449 -0.1210 -0.3648
  180DOPC   H5X22101   6.286   4.389   3.574  1.1965 -0.7519 -2.4651
  180DOPC   H5Y22102   6.396   4.247   3.558  0.1713 -1.5960  0.3976
  180DOPC   C3622103   6.347   4.309   3.762  0.0627  0.9888 -0.1272
  180DOPC   H6X22104   6.274   4.380   3.807 -0.9658 -0.5979  0.7814
  180DOPC   H6Y22105   6.341   4.213   3.817  3.9958 -0.2817 -1.5812
  180DOPC   C3722106   6.487   4.361   3.783  0.4001 -0.1576 -0.5207
  180DOPC   H7X22107   6.565   4.295   3.740  1.9409  0.8853  0.5695
  180DOPC   H7Y22108   6.498   4.459   3.731  1.7357  0.9559  1.7314
  180DOPC   C3822109   6.512   4.379   3.931 -0.3656 -1.1060 -0.4453
  180DOPC   H8X22110   6.495   4.278   3.974 -1.7295 -0.5247  0.4872
  180DOPC   H8Y22111   6.443   4.450   3.983  0.3880 -0.3424 -0.4701
  180DOPC   C3922112   6.658   4.428   3.962 -0.3342 -0.5110  0.5061
  180DOPC   H9X22113   6.716   4.449   3.872  1.8831  0.7573  2.1411
  180DOPC  C31022114   6.717   4.433   4.084 -0.5326  0.4630  0.4772
  180DOPC  H10X22115   6.825   4.457   4.081 -0.0364 -1.6152 -0.0387
  180DOPC  C31122116   6.659   4.395   4.221  0.2418 -0.0952 -0.5447
  180DOPC  H11X22117   6.550   4.379   4.203 -0.1000 -0.2313  1.3902
  180DOPC  H11Y22118   6.675   4.489   4.278  1.5571 -1.0912  0.8186
  180DOPC  C31222119   6.718   4.276   4.293 -0.1565  0.6114  1.1645
  180DOPC  H12X22120   6.828   4.271   4.278 -0.3559 -1.0654 -0.0238
  180DOPC  H12Y22121   6.690   4.185   4.236 -0.6526  0.6886  1.2814
  180DOPC  C31322122   6.675   4.250   4.434  0.3704  0.2567 -0.4879
  180DOPC  H13X22123   6.711   4.327   4.506  0.8021 -1.2542  0.9992
  180DOPC  H13Y22124   6.565   4.249   4.442  0.4406 -1.2297  0.7771
  180DOPC  C31422125   6.705   4.111   4.497 -0.7840 -0.3816 -0.4488
  180DOPC  H14X22126   6.667   4.118   4.601  3.2473  0.8597  1.1704
  180DOPC  H14Y22127   6.678   4.017   4.446  4.6445 -2.3542 -0.3981
  180DOPC  C31522128   6.861   4.084   4.515  0.5389  0.1856  0.6048
  180DOPC  H15X22129   6.909   4.183   4.522  0.0974  0.5458 -0.9089
  180DOPC  H15Y22130   6.892   4.035   4.420  2.1290 -0.0069  1.2047
  180DOPC  C31622131   6.888   3.984   4.633 -0.3526 -0.0812  0.3823
  180DOPC  H16X22132   6.797   3.920   4.637  0.0893 -0.7795 -0.2680
  180DOPC  H16Y22133   6.977   3.927   4.597 -1.3809 -0.1274 -2.3358
  180DOPC  C31722134   6.915   4.036   4.769  0.3143  0.6438  0.3096
  180DOPC  H17X22135   6.827   4.100   4.792 -0.4155 -0.5263  0.8366
  180DOPC  H17Y22136   6.897   3.946   4.831 -1.6420  0.9347  0.2112
  180DOPC  C31822137   7.045   4.101   4.795 -0.5828 -1.1238  0.5944
  180DOPC  H18X22138   7.047   4.117   4.905 -1.1752 -0.6734  0.5471
  180DOPC  H18Y22139   7.125   4.040   4.749 -0.6981 -1.4830  0.8710
  180DOPC  H18Z22140   7.044   4.201   4.745 -3.1604 -1.0794  0.5762
  181DOPC     N22141   5.850   2.253   2.303 -0.0313 -0.3729  0.2897
  181DOPC   C1222142   5.830   2.232   2.448 -1.0822 -0.3476 -0.7063
  181DOPC  H12A22143   5.911   2.180   2.498 -3.4395 -1.9091  1.7894
  181DOPC  H12B22144   5.741   2.174   2.467  0.2166 -1.6226  2.0152
  181DOPC   C1322145   5.844   2.128   2.215  0.1229 -0.9600 -0.5272
  181DOPC  H13A22146   5.933   2.066   2.224  1.2552  0.6674 -0.1856
  181DOPC  H13B22147   5.750   2.080   2.240 -1.3808  1.4150 -1.3399
  181DOPC  H13C22148   5.843   2.159   2.112  0.5351  1.5751  0.1716
  181DOPC   C1422149   5.978   2.326   2.282 -0.3711 -0.1876 -0.2054
  181DOPC  H14A22150   5.984   2.420   2.336 -0.8989  1.2660 -2.5395
  181DOPC  H14B22151   6.063   2.263   2.304 -1.1836 -0.9584  0.8203
  181DOPC  H14C22152   5.995   2.353   2.179 -0.2875  0.7685  0.0508
  181DOPC   C1522153   5.742   2.344   2.250  0.4685  0.7400  0.2112
  181DOPC  H15A22154   5.756   2.361   2.144 -0.8882 -2.6759 -0.6483
  181DOPC  H15B22155   5.745   2.439   2.302 -1.3244  0.3481  1.1074
  181DOPC  H15C22156   5.646   2.299   2.269  1.4510 -0.9418  1.4159
  181DOPC   C1122157   5.806   2.347   2.548 -0.1368 -0.8594 -0.3933
  181DOPC  H11A22158   5.712   2.396   2.516  1.0423  1.0475 -1.1633
  181DOPC  H11B22159   5.777   2.309   2.648  3.7684  2.4384  2.3171
  181DOPC     P22160   6.042   2.428   2.632  0.3028 -0.1118  0.6410
  181DOPC   O1322161   6.123   2.549   2.593 -0.3350  0.5829 -0.6849
  181DOPC   O1422162   6.098   2.294   2.618 -0.2872 -0.4440 -0.0926
  181DOPC   O1222163   5.911   2.442   2.542  0.5095 -0.2553 -0.1006
  181DOPC   O1122164   5.989   2.443   2.779 -0.5110  0.2368  0.8053
  181DOPC    C122165   5.967   2.560   2.860  0.1793  0.0617 -0.2042
  181DOPC    HA22166   5.893   2.624   2.806  0.2951 -0.9675 -1.6626
  181DOPC    HB22167   6.061   2.619   2.864  0.7621 -0.8985  0.6342
  181DOPC    C222168   5.919   2.509   3.000 -0.2196 -0.0734 -0.1108
  181DOPC    HS22169   5.920   2.591   3.074 -2.1758  0.1923 -0.3307
  181DOPC   O2122170   6.005   2.400   3.046 -0.2433 -0.6056 -0.3121
  181DOPC   C2122171   6.125   2.431   3.085 -0.0996  0.5493  0.4384
  181DOPC   O2222172   6.177   2.541   3.092 -0.0244  0.2680 -0.2574
  181DOPC   C2222173   6.198   2.291   3.106 -0.1004  0.3472  0.6012
  181DOPC   H2R22174   6.288   2.290   3.040 -0.2233  0.7518  0.4269
  181DOPC   H2S22175   6.124   2.219   3.065  0.5439  0.1891 -0.3360
  181DOPC    C322176   5.772   2.462   2.996 -0.6667  0.2152 -0.3156
  181DOPC    HX22177   5.749   2.403   2.905  0.3900 -0.2899 -0.2768
  181DOPC    HY22178   5.702   2.546   2.978 -0.1880  0.5946 -0.4124
  181DOPC   O3122179   5.725   2.406   3.120 -0.2065  0.7600 -0.2884
  181DOPC   C3122180   5.721   2.273   3.114  0.4253  0.2122 -0.1068
  181DOPC   O3222181   5.747   2.204   3.016  0.4243 -0.1371  0.1244
  181DOPC   C3222182   5.682   2.215   3.253 -0.2330 -0.2838 -0.5461
  181DOPC   H2X22183   5.578   2.248   3.276  0.4552  1.5719  0.1122
  181DOPC   H2Y22184   5.677   2.104   3.241 -1.3201 -0.2745 -0.2933
  181DOPC   C2322185   6.228   2.262   3.249  0.2575  1.1103  0.2152
  181DOPC   H3R22186   6.262   2.157   3.265  1.3330  1.4263  0.1023
  181DOPC   H3S22187   6.137   2.269   3.312 -0.1749  0.3208 -0.3129
  181DOPC   C2422188   6.345   2.346   3.309  0.2336 -0.2309 -0.5277
  181DOPC   H4R22189   6.322   2.451   3.281 -3.5998 -0.8877 -0.4004
  181DOPC   H4S22190   6.445   2.313   3.274 -0.6358 -1.2303 -2.2234
  181DOPC   C2522191   6.351   2.335   3.460 -0.0144 -0.1938 -0.4233
  181DOPC   H5R22192   6.405   2.246   3.498 -0.1064 -0.1815 -0.2637
  181DOPC   H5S22193   6.247   2.336   3.498  0.6513 -1.2041  1.5608
  181DOPC   C2622194   6.431   2.455   3.529 -0.4814  0.5338  0.0250
  181DOPC   H6R22195   6.396   2.553   3.489  2.1933  1.1978 -0.9585
  181DOPC   H6S22196   6.542   2.457   3.516 -0.3874  0.0901  0.7490
  181DOPC   C2722197   6.403   2.449   3.677 -0.0549 -0.5019  0.2201
  181DOPC   H7R22198   6.322   2.379   3.706 -1.7818  1.1765 -0.3135
  181DOPC   H7S22199   6.377   2.552   3.711  0.8404 -0.2170  0.0693
  181DOPC   C2822200   6.525   2.402   3.771 -0.3536  0.2801  0.5118
  181DOPC   H8R22201   6.602   2.480   3.751 -0.7645  0.2064 -1.6293
  181DOPC   H8S22202   6.558   2.303   3.734 -0.2210 -0.3779  2.3109
  181DOPC   C2922203   6.481   2.404   3.911  0.2438 -0.4000  0.0266
  181DOPC   H9R22204   6.410   2.325   3.939 -0.7260  0.6196  0.5179
  181DOPC  C21022205   6.509   2.493   4.007 -0.1340 -0.0964  0.2546
  181DOPC  H10R22206   6.471   2.492   4.110 -2.0436 -0.6619 -0.4057
  181DOPC  C21122207   6.608   2.600   3.989 -0.1390  0.3011  0.1754
  181DOPC  H11R22208   6.581   2.660   3.899 -0.9302  1.5801  1.2269
  181DOPC  H11S22209   6.712   2.563   3.980 -0.1119 -0.1342  1.9662
  181DOPC  C21222210   6.624   2.694   4.107  0.2567 -0.3741  0.1667
  181DOPC  H12R22211   6.696   2.778   4.095  1.0124 -0.5309  2.9044
  181DOPC  H12S22212   6.668   2.640   4.194  2.5351  2.6806  1.0782
  181DOPC  C21322213   6.496   2.773   4.141 -0.0802  0.6384  1.1669
  181DOPC  H13R22214   6.503   2.823   4.241  1.7522 -1.2039  2.0320
  181DOPC  H13S22215   6.414   2.698   4.145 -0.2713  0.8294  0.7937
  181DOPC  C21422216   6.464   2.886   4.038  0.8891  0.8864  0.3552
  181DOPC  H14R22217   6.511   2.865   3.940 -1.3509  0.5734 -0.7179
  181DOPC  H14S22218   6.500   2.986   4.070  0.8366  1.4688 -1.3198
  181DOPC  C21522219   6.309   2.879   4.018 -0.1726  0.3044 -0.7606
  181DOPC  H15R22220   6.259   2.909   4.113 -3.6798  2.1437 -2.9431
  181DOPC  H15S22221   6.281   2.781   3.973  1.6779 -0.5942 -0.0355
  181DOPC  C21622222   6.253   2.978   3.912 -0.4234  0.3929 -0.1241
  181DOPC  H16R22223   6.288   2.954   3.809 -3.3551 -0.8509 -0.9163
  181DOPC  H16S22224   6.298   3.077   3.938 -1.1854  0.9316 -0.8043
  181DOPC  C21722225   6.104   2.982   3.893  0.4755  0.2716 -0.1789
  181DOPC  H17R22226   6.047   2.973   3.988 -1.8456 -1.9499 -1.6473
  181DOPC  H17S22227   6.070   2.897   3.830  2.6318 -0.4192 -0.4998
  181DOPC  C21822228   6.066   3.112   3.820 -0.4732 -0.2203  0.1335
  181DOPC  H18R22229   6.107   3.195   3.882  3.4671 -1.3412 -0.6411
  181DOPC  H18S22230   5.957   3.126   3.810 -0.6342 -1.5024 -0.0571
  181DOPC  H18T22231   6.112   3.117   3.719 -1.3895  0.1556 -0.2672
  181DOPC   C3322232   5.774   2.259   3.363 -0.1627  0.5371  0.7419
  181DOPC   H3X22233   5.788   2.369   3.369  0.6093  0.3774  2.2539
  181DOPC   H3Y22234   5.871   2.211   3.339 -0.2899  1.5252 -2.0649
  181DOPC   C3422235   5.722   2.215   3.497  0.0632 -0.3138 -0.4521
  181DOPC   H4X22236   5.718   2.104   3.490 -0.5938 -0.2479 -1.3441
  181DOPC   H4Y22237   5.619   2.253   3.512  0.4652  1.5946 -2.1314
  181DOPC   C3522238   5.806   2.273   3.614 -0.1816  0.0856  0.0565
  181DOPC   H5X22239   5.774   2.379   3.627 -2.0472 -0.6182  1.7411
  181DOPC   H5Y22240   5.914   2.257   3.597 -0.4211 -0.8735 -0.6133
  181DOPC   C3622241   5.774   2.198   3.749 -0.1540 -0.5662 -0.0219
  181DOPC   H6X22242   5.792   2.089   3.755  2.5542 -0.2941 -1.5099
  181DOPC   H6Y22243   5.855   2.239   3.812  1.3894 -0.7880 -1.7651
  181DOPC   C3722244   5.639   2.243   3.810 -0.3065 -0.3882  0.2114
  181DOPC   H7X22245   5.631   2.353   3.809  0.2945 -0.3247  1.1209
  181DOPC   H7Y22246   5.549   2.200   3.761 -1.4496  0.5997  1.3522
  181DOPC   C3822247   5.634   2.209   3.963 -0.3600 -0.3226  0.4628
  181DOPC   H8X22248   5.531   2.240   3.991 -0.5904  1.3031 -1.9422
  181DOPC   H8Y22249   5.710   2.272   4.013 -0.1674 -0.0308 -0.1855
  181DOPC   C3922250   5.655   2.061   4.011  0.2888 -0.8407  0.3254
  181DOPC   H9X22251   5.665   1.988   3.929 -0.8313 -0.8494  0.1835
  181DOPC  C31022252   5.690   2.023   4.136  0.8311  0.7808  0.6303
  181DOPC  H10X22253   5.701   1.916   4.160 -1.0086  0.6942  1.2811
  181DOPC  C31122254   5.706   2.114   4.254  0.1300  0.6068  0.3806
  181DOPC  H11X22255   5.608   2.150   4.291 -0.8304 -1.7662  0.3168
  181DOPC  H11Y22256   5.766   2.206   4.236 -0.3719  0.8219 -0.2522
  181DOPC  C31222257   5.784   2.042   4.364 -0.0622  0.3683 -0.5690
  181DOPC  H12X22258   5.892   2.021   4.351 -0.5871 -2.3016 -1.3685
  181DOPC  H12Y22259   5.736   1.945   4.392  0.0363 -0.0638 -1.8178
  181DOPC  C31322260   5.762   2.124   4.495  0.4158 -0.2283  0.3342
  181DOPC  H13X22261   5.810   2.221   4.473 -1.2790  0.2974 -1.2522
  181DOPC  H13Y22262   5.655   2.142   4.517  0.5150 -1.4309  2.0667
  181DOPC  C31422263   5.825   2.051   4.612 -0.4184 -0.1066 -0.5209
  181DOPC  H14X22264   5.808   2.106   4.708  1.2914 -2.7438  1.4573
  181DOPC  H14Y22265   5.775   1.953   4.626  1.4158 -1.0675 -0.3989
  181DOPC  C31522266   5.975   2.015   4.611  0.0791 -0.9316 -0.1466
  181DOPC  H15X22267   6.012   2.112   4.571 -2.7070  0.4793  0.4050
  181DOPC  H15Y22268   5.997   1.931   4.542 -2.0192 -0.1917 -1.8650
  181DOPC  C31622269   6.030   1.990   4.754 -0.0811  0.6974 -0.2525
  181DOPC  H16X22270   6.141   2.002   4.755  0.0054 -0.0873  0.3065
  181DOPC  H16Y22271   5.992   2.066   4.826  0.2417 -0.0666  0.7418
  181DOPC  C31722272   6.000   1.843   4.791 -0.2828  0.5366  0.2034
  181DOPC  H17X22273   5.891   1.823   4.784 -0.0162 -0.5415 -1.7513
  181DOPC  H17Y22274   6.055   1.773   4.724  1.4600 -1.5221  3.5555
  181DOPC  C31822275   6.039   1.816   4.933  0.8237  0.4171 -0.8690
  181DOPC  H18X22276   6.011   1.717   4.974  2.7241  0.8759  1.7467
  181DOPC  H18Y22277   6.149   1.810   4.943  0.6288 -1.5295  0.6037
  181DOPC  H18Z22278   6.021   1.896   5.008  0.6991 -0.0263 -0.4183
  182DOPC     N22279   2.355   1.181   2.416 -0.2847  0.0967 -0.5660
  182DOPC   C1222280   2.429   1.097   2.314 -0.1615  0.5363  0.3595
  182DOPC  H12A22281   2.533   1.087   2.343 -0.3379  0.7580  1.1010
  182DOPC  H12B22282   2.432   1.141   2.216  0.1059 -1.5842 -0.6279
  182DOPC   C1322283   2.332   1.114   2.546 -0.1724 -0.1043 -0.0240
  182DOPC  H13A22284   2.268   1.175   2.608  2.0896  2.2722  0.1269
  182DOPC  H13B22285   2.282   1.021   2.520  1.2588  0.2129 -4.8958
  182DOPC  H13C22286   2.422   1.082   2.597  0.2729  0.7245 -0.2889
  182DOPC   C1422287   2.212   1.212   2.355  0.0609 -0.1439  0.1593
  182DOPC  H14A22288   2.234   1.275   2.269  0.7205 -0.5950 -0.0079
  182DOPC  H14B22289   2.162   1.124   2.319  0.4703  0.1685 -1.2483
  182DOPC  H14C22290   2.157   1.268   2.430 -1.0393 -1.3108  0.2452
  182DOPC   C1522291   2.420   1.313   2.451  0.0470 -0.4359  0.1497
  182DOPC  H15A22292   2.352   1.383   2.499  1.0988  0.1699  0.7828
  182DOPC  H15B22293   2.456   1.365   2.364  2.4467 -0.9249  0.7958
  182DOPC  H15C22294   2.506   1.300   2.514  0.0595 -0.3203  0.1563
  182DOPC   C1122295   2.385   0.949   2.291 -0.2668  0.2929  0.2795
  182DOPC  H11A22296   2.279   0.957   2.258 -0.5906  0.1683  1.2457
  182DOPC  H11B22297   2.453   0.902   2.217  0.5975  0.1679  1.1348
  182DOPC     P22298   2.526   0.824   2.474 -0.0261  0.3754 -0.0345
  182DOPC   O1322299   2.637   0.897   2.412 -0.1786 -0.3130 -0.4017
  182DOPC   O1422300   2.543   0.674   2.471  0.4066 -0.0305 -0.2479
  182DOPC   O1222301   2.388   0.868   2.412 -0.1033  0.1706  0.3875
  182DOPC   O1122302   2.516   0.872   2.622  0.1356 -0.3242  0.1557
  182DOPC    C122303   2.408   0.820   2.694 -0.2389  0.3122 -0.3752
  182DOPC    HA22304   2.386   0.714   2.670 -0.5018 -0.0836  1.4256
  182DOPC    HB22305   2.311   0.873   2.684 -1.5860 -1.2788  2.8452
  182DOPC    C222306   2.454   0.816   2.843  0.1159  0.6779  0.2522
  182DOPC    HS22307   2.481   0.922   2.865 -0.0674  0.6192  0.7812
  182DOPC   O2122308   2.565   0.728   2.847 -0.4861 -0.5213 -0.1452
  182DOPC   C2122309   2.661   0.770   2.930  0.5349 -0.5559  0.1078
  182DOPC   O2222310   2.676   0.886   2.970 -0.4715  0.1847  0.0003
  182DOPC   C2222311   2.759   0.662   2.947 -0.1973  0.0531  0.6436
  182DOPC   H2R22312   2.858   0.703   2.918  0.4750 -2.1547 -0.4090
  182DOPC   H2S22313   2.741   0.578   2.877  0.6761  0.3714  0.0237
  182DOPC    C322314   2.346   0.758   2.934  0.5927  0.2256  0.8587
  182DOPC    HX22315   2.323   0.658   2.891  0.5337 -0.0951  1.6095
  182DOPC    HY22316   2.253   0.818   2.934  1.0577  1.1112 -2.4054
  182DOPC   O3122317   2.389   0.746   3.069 -0.2545  0.3326  0.1711
  182DOPC   C3122318   2.406   0.862   3.132 -0.4990  0.0085  0.3394
  182DOPC   O3222319   2.358   0.969   3.091 -0.1105 -0.1487  0.6085
  182DOPC   C3222320   2.507   0.848   3.245 -0.0082 -0.0085  0.5664
  182DOPC   H2X22321   2.585   0.772   3.220  0.2362  0.6447 -0.7375
  182DOPC   H2Y22322   2.551   0.948   3.264 -0.2596  0.5528 -1.6190
  182DOPC   C2322323   2.764   0.619   3.091  0.1628 -0.3370 -0.8217
  182DOPC   H3R22324   2.766   0.703   3.163 -0.9984 -0.8488 -0.1452
  182DOPC   H3S22325   2.859   0.562   3.098 -0.4131 -1.2326  0.3258
  182DOPC   C2422326   2.648   0.524   3.129 -0.2706  0.4862  0.1374
  182DOPC   H4R22327   2.636   0.457   3.041 -0.7940  2.0084 -0.9775
  182DOPC   H4S22328   2.555   0.584   3.130 -0.0239  0.8622  0.5606
  182DOPC   C2522329   2.685   0.447   3.250 -0.1236  0.5349 -0.4214
  182DOPC   H5R22330   2.668   0.514   3.338  0.4727  1.1621 -0.7767
  182DOPC   H5S22331   2.787   0.403   3.252 -0.2139  0.2533 -1.5580
  182DOPC   C2622332   2.583   0.330   3.269  0.3215 -0.0635  0.0254
  182DOPC   H6R22333   2.613   0.248   3.200  2.5692 -1.9364  3.0060
  182DOPC   H6S22334   2.483   0.368   3.239  2.2370  3.1370 -3.2199
  182DOPC   C2722335   2.576   0.265   3.414  0.1080 -0.4281  0.4221
  182DOPC   H7R22336   2.678   0.243   3.450  1.1129  0.8754 -1.4385
  182DOPC   H7S22337   2.525   0.167   3.410  2.8223 -2.1652  3.5976
  182DOPC   C2822338   2.512   0.371   3.519  0.0950  0.5803  0.4396
  182DOPC   H8R22339   2.413   0.399   3.477  0.4337  0.0091 -0.7680
  182DOPC   H8S22340   2.577   0.460   3.533  0.3795  0.2483  1.3113
  182DOPC   C2922341   2.485   0.304   3.650  0.7837 -0.2835 -0.3098
  182DOPC   H9R22342   2.380   0.274   3.664  0.1944  1.1955 -1.3530
  182DOPC  C21022343   2.573   0.252   3.738 -0.0500 -0.4965 -0.2042
  182DOPC  H10R22344   2.549   0.194   3.828  1.8494  1.2399  1.5316
  182DOPC  C21122345   2.720   0.265   3.712 -0.3327  0.3812 -0.0829
  182DOPC  H11R22346   2.734   0.368   3.671 -0.2126  0.2846 -0.2832
  182DOPC  H11S22347   2.757   0.191   3.638  1.8179 -0.9100  2.1301
  182DOPC  C21222348   2.812   0.243   3.836 -0.1663 -0.1993 -0.1831
  182DOPC  H12R22349   2.783   0.290   3.933  1.2136  0.7600 -0.1923
  182DOPC  H12S22350   2.912   0.288   3.814 -0.8573  1.7687  0.4189
  182DOPC  C21322351   2.829   0.093   3.867 -0.8131 -0.7485  0.1510
  182DOPC  H13R22352   2.855   0.024   3.785  1.9304 -1.0051  1.1312
  182DOPC  H13S22353   2.736   0.055   3.914 -1.0345 -1.0268 -0.4971
  182DOPC  C21422354   2.935   0.063   3.971 -0.1604  0.1562  0.5632
  182DOPC  H14R22355   2.912   0.115   4.067  3.9585  0.0707  1.7908
  182DOPC  H14S22356   3.025   0.111   3.926  0.1281 -0.3961  0.5410
  182DOPC  C21522357   2.934  -0.087   4.005 -0.0052 -0.4863  0.0659
  182DOPC  H15R22358   2.952  -0.143   3.911  1.4829  1.2154 -0.7270
  182DOPC  H15S22359   2.832  -0.118   4.038 -0.2460 -1.3362 -1.4107
  182DOPC  C21622360   3.034  -0.125   4.112  0.0213  0.1649 -0.2625
  182DOPC  H16R22361   3.122  -0.057   4.110  0.9795 -0.9905  1.0554
  182DOPC  H16S22362   3.063  -0.231   4.098 -1.4145 -0.2689 -0.1907
  182DOPC  C21722363   2.971  -0.111   4.251 -0.6605 -0.2005  0.1641
  182DOPC  H17R22364   2.888  -0.183   4.235 -0.6380  0.1342 -1.6302
  182DOPC  H17S22365   2.947  -0.003   4.256 -0.1822 -0.0727 -0.1688
  182DOPC  C21822366   3.069  -0.140   4.361 -0.7807 -0.1470  0.6540
  182DOPC  H18R22367   3.152  -0.068   4.346 -1.1262 -0.0176 -0.8008
  182DOPC  H18S22368   3.104  -0.244   4.341  0.4869  0.6368 -1.5487
  182DOPC  H18T22369   3.021  -0.135   4.461 -0.0209 -0.9028  1.0715
  182DOPC   C3322370   2.430   0.815   3.372  0.0327 -0.2416  0.2864
  182DOPC   H3X22371   2.389   0.712   3.357  0.1964 -0.3060  0.2871
  182DOPC   H3Y22372   2.344   0.886   3.368  0.7852  0.6380 -0.9717
  182DOPC   C3422373   2.500   0.828   3.507  0.3622 -0.2192  0.3412
  182DOPC   H4X22374   2.446   0.761   3.577  0.1745 -0.8021 -0.3464
  182DOPC   H4Y22375   2.487   0.931   3.547  0.8330  0.4018 -1.0129
  182DOPC   C3522376   2.643   0.773   3.511  0.2752  0.1326  0.3678
  182DOPC   H5X22377   2.703   0.860   3.477  1.1367  0.2448  2.1013
  182DOPC   H5Y22378   2.653   0.691   3.437 -1.2726 -1.1621  1.5407
  182DOPC   C3622379   2.682   0.705   3.639 -1.2587 -0.0474  0.8224
  182DOPC   H6X22380   2.608   0.625   3.662 -1.3843  0.5867  2.7912
  182DOPC   H6Y22381   2.784   0.662   3.638 -1.0544  0.2422  3.3575
  182DOPC   C3722382   2.689   0.807   3.749  0.5695 -0.2081 -0.2193
  182DOPC   H7X22383   2.769   0.882   3.732 -0.2439  0.3754 -1.7229
  182DOPC   H7Y22384   2.593   0.864   3.753  1.0639  0.5821  1.9583
  182DOPC   C3822385   2.710   0.755   3.892  0.0174  0.2974  0.0276
  182DOPC   H8X22386   2.638   0.671   3.904  1.6338 -1.2279 -0.6134
  182DOPC   H8Y22387   2.676   0.836   3.961  0.2301  1.5689 -1.3155
  182DOPC   C3922388   2.849   0.710   3.932  0.1828  0.3966  0.0917
  182DOPC   H9X22389   2.925   0.734   3.857 -0.3036  2.2415  0.1355
  182DOPC  C31022390   2.877   0.672   4.057  0.4758  0.2601 -0.1207
  182DOPC  H10X22391   2.983   0.656   4.080  1.2651  2.8896 -1.5649
  182DOPC  C31122392   2.783   0.652   4.177  0.2174 -0.6887  0.3328
  182DOPC  H11X22393   2.681   0.648   4.134  0.1056  1.0515  0.3756
  182DOPC  H11Y22394   2.771   0.739   4.245 -2.7972 -0.5383 -0.2542
  182DOPC  C31222395   2.805   0.519   4.258  0.1928 -0.2432  0.2335
  182DOPC  H12X22396   2.840   0.448   4.181 -0.9038  0.2383 -0.7428
  182DOPC  H12Y22397   2.705   0.489   4.298  0.0227  1.1997  0.9582
  182DOPC  C31322398   2.898   0.508   4.378  0.5803  0.0692 -0.1486
  182DOPC  H13X22399   2.935   0.605   4.417 -0.1906  0.8855 -1.3885
  182DOPC  H13Y22400   2.853   0.452   4.463  3.0549 -0.7019  0.7501
  182DOPC  C31422401   3.033   0.436   4.345 -0.1226  0.0387 -0.1428
  182DOPC  H14X22402   3.081   0.505   4.272 -1.2563  0.4432 -0.5303
  182DOPC  H14Y22403   3.096   0.450   4.436  0.7347 -0.3516 -0.6663
  182DOPC  C31522404   3.023   0.291   4.292  0.8805  0.1233 -0.4286
  182DOPC  H15X22405   2.962   0.291   4.198 -0.1604 -1.7572  0.1907
  182DOPC  H15Y22406   2.961   0.239   4.368  0.1722  0.0109 -1.0672
  182DOPC  C31622407   3.164   0.229   4.274  0.6476 -0.5442  0.3006
  182DOPC  H16X22408   3.163   0.132   4.220 -0.5155  0.1871 -1.0993
  182DOPC  H16Y22409   3.211   0.300   4.202  1.7363 -1.3961  0.1566
  182DOPC  C31722410   3.241   0.223   4.408  0.4053 -0.5731 -0.7423
  182DOPC  H17X22411   3.240   0.320   4.462 -0.0340 -1.3338  0.6622
  182DOPC  H17Y22412   3.195   0.150   4.479  0.8350  1.1901  1.4445
  182DOPC  C31822413   3.387   0.178   4.393  1.1811  0.4319  0.1031
  182DOPC  H18X22414   3.438   0.159   4.490  0.2787 -0.1206  0.4764
  182DOPC  H18Y22415   3.402   0.083   4.338 -1.5794 -1.3068  2.1259
  182DOPC  H18Z22416   3.441   0.259   4.340  0.9888  1.0155  0.7816
  183DOPC     N22417   0.577   4.246   2.920  0.0079  0.2585  0.3921
  183DOPC   C1222418   0.459   4.265   2.827  0.0083  0.4760 -0.0485
  183DOPC  H12A22419   0.494   4.293   2.729 -2.0250  0.7135 -0.7443
  183DOPC  H12B22420   0.420   4.361   2.857  2.9872  1.6928  0.3481
  183DOPC   C1322421   0.539   4.228   3.064 -0.1518 -0.5569 -0.2549
  183DOPC  H13A22422   0.629   4.208   3.119 -0.2811 -3.8354 -1.0476
  183DOPC  H13B22423   0.484   4.312   3.104  1.2240 -0.5704  1.7624
  183DOPC  H13C22424   0.472   4.145   3.083  0.2049 -0.1146  3.5649
  183DOPC   C1422425   0.666   4.366   2.913  0.8370  0.0558  0.5901
  183DOPC  H14A22426   0.654   4.440   2.990  1.0177 -0.1003  0.7706
  183DOPC  H14B22427   0.762   4.322   2.933  2.3813  1.5594 -2.7555
  183DOPC  H14C22428   0.664   4.415   2.817 -0.6689  1.0293  1.0808
  183DOPC   C1522429   0.659   4.126   2.872  0.0889 -0.3013 -0.1697
  183DOPC  H15A22430   0.683   4.142   2.768  1.6915 -1.6868 -0.0650
  183DOPC  H15B22431   0.607   4.035   2.895  0.2026 -0.4606 -0.5308
  183DOPC  H15C22432   0.750   4.118   2.930 -0.7016  0.1338  1.1719
  183DOPC   C1122433   0.347   4.153   2.826 -0.6180  0.2618  0.2718
  183DOPC  H11A22434   0.285   4.158   2.918 -0.6023 -0.0164  0.2986
  183DOPC  H11B22435   0.279   4.195   2.749 -2.7650  1.1967  2.5567
  183DOPC     P22436   0.400   3.899   2.882  0.0222 -0.2600  0.4543
  183DOPC   O1322437   0.514   3.815   2.830  0.8692 -0.4576 -0.3993
  183DOPC   O1422438   0.266   3.834   2.870 -0.1120 -0.4633  0.5222
  183DOPC   O1222439   0.393   4.024   2.791  0.3211  0.4220  0.1448
  183DOPC   O1122440   0.429   3.947   3.031  0.3494  0.0105  0.5021
  183DOPC    C122441   0.527   3.871   3.097 -0.5124 -0.4663 -0.5291
  183DOPC    HA22442   0.628   3.905   3.065  0.1536 -1.8400  0.0214
  183DOPC    HB22443   0.523   3.760   3.090  3.7343 -0.7579 -0.9491
  183DOPC    C222444   0.521   3.886   3.249 -0.4197  0.1184  0.1323
  183DOPC    HS22445   0.431   3.828   3.279  0.0044 -0.4662  0.2748
  183DOPC   O2122446   0.503   4.023   3.283 -0.3744  0.6222  0.0311
  183DOPC   C2122447   0.448   4.042   3.407  0.0859  0.3229  0.2163
  183DOPC   O2222448   0.369   3.963   3.456  0.6140  0.3926  0.0398
  183DOPC   C2222449   0.480   4.173   3.481 -0.2151 -0.2585  0.2689
  183DOPC   H2R22450   0.415   4.259   3.454  2.0905  1.7591  0.7786
  183DOPC   H2S22451   0.585   4.196   3.453  0.1936  0.0935  1.9839
  183DOPC    C322452   0.644   3.825   3.326  0.1071  0.4548  0.2660
  183DOPC    HX22453   0.727   3.893   3.301  0.9400 -0.3797  0.7088
  183DOPC    HY22454   0.660   3.724   3.282 -1.3957 -0.9285  2.6975
  183DOPC   O3122455   0.627   3.817   3.468 -0.3180  0.1106  0.1810
  183DOPC   C3122456   0.546   3.725   3.508  0.0713 -0.4407  0.5879
  183DOPC   O3222457   0.498   3.631   3.443 -0.3764 -0.4648 -0.3558
  183DOPC   C3222458   0.516   3.748   3.656  0.2613 -0.0319  0.4627
  183DOPC   H2X22459   0.597   3.717   3.725 -0.0233  0.9014  1.2463
  183DOPC   H2Y22460   0.504   3.857   3.673  2.1042  0.3931 -0.6426
  183DOPC   C2322461   0.480   4.173   3.640 -0.1348  0.5729 -0.8482
  183DOPC   H3R22462   0.521   4.078   3.681 -0.6211  0.3859 -0.7954
  183DOPC   H3S22463   0.374   4.163   3.671  0.2345 -1.1173 -0.0295
  183DOPC   C2422464   0.544   4.287   3.712  0.3110 -0.3167 -0.3617
  183DOPC   H4R22465   0.509   4.384   3.670 -0.8423 -0.4519  0.2371
  183DOPC   H4S22466   0.653   4.277   3.692  0.3871  1.4043 -1.0317
  183DOPC   C2522467   0.522   4.294   3.863 -0.1446  0.6300  0.1850
  183DOPC   H5R22468   0.561   4.394   3.892  0.0216  0.3583  0.8982
  183DOPC   H5S22469   0.588   4.226   3.920 -0.3305  0.7183  0.5082
  183DOPC   C2622470   0.373   4.266   3.897 -0.4105 -0.8953 -0.7475
  183DOPC   H6R22471   0.330   4.167   3.871 -1.7765 -0.4359 -0.3112
  183DOPC   H6S22472   0.313   4.349   3.855  0.7039  0.6406  0.5441
  183DOPC   C2722473   0.360   4.258   4.052 -0.4273 -0.2701 -0.5388
  183DOPC   H7R22474   0.421   4.175   4.091  1.5877  0.7711 -1.3453
  183DOPC   H7S22475   0.254   4.239   4.079  0.0534 -2.8060 -0.1852
  183DOPC   C2822476   0.400   4.378   4.131 -0.2064  0.0751 -0.0558
  183DOPC   H8R22477   0.325   4.456   4.107 -1.4553 -1.4372 -1.1959
  183DOPC   H8S22478   0.497   4.406   4.083  0.3559 -3.2839 -1.1368
  183DOPC   C2922479   0.416   4.361   4.284 -0.0406  0.1541 -0.3431
  183DOPC   H9R22480   0.324   4.329   4.335  0.4995  1.1283  1.3531
  183DOPC  C21022481   0.529   4.372   4.362 -0.0138  0.1119  0.2318
  183DOPC  H10R22482   0.513   4.356   4.469 -0.7417  1.6435  0.3872
  183DOPC  C21122483   0.675   4.394   4.320  0.2735 -0.1879 -0.1061
  183DOPC  H11R22484   0.669   4.393   4.210 -1.2448 -3.1452 -0.0887
  183DOPC  H11S22485   0.730   4.302   4.346 -2.4696 -1.6539  0.9068
  183DOPC  C21222486   0.729   4.529   4.372 -0.3166  0.0977 -0.4037
  183DOPC  H12R22487   0.648   4.598   4.343  0.5062  0.5909 -1.6282
  183DOPC  H12S22488   0.819   4.565   4.316  0.1904 -0.8562 -0.2210
  183DOPC  C21322489   0.744   4.535   4.521  0.0310  0.0346 -0.2335
  183DOPC  H13R22490   0.797   4.446   4.560 -0.5868 -1.2192 -2.1169
  183DOPC  H13S22491   0.641   4.523   4.560 -0.7005  2.0387 -1.3839
  183DOPC  C21422492   0.817   4.660   4.569  1.0064  0.2479  0.4631
  183DOPC  H14R22493   0.919   4.660   4.526  1.8577  3.7671  2.1043
  183DOPC  H14S22494   0.835   4.666   4.679 -1.5891 -1.0152  1.0316
  183DOPC  C21522495   0.740   4.787   4.537  0.1200  0.3633  0.1196
  183DOPC  H15R22496   0.735   4.801   4.427  1.6602 -3.9666 -0.7043
  183DOPC  H15S22497   0.800   4.872   4.576 -1.0236  0.5518  1.5323
  183DOPC  C21622498   0.598   4.790   4.596 -0.4388  0.2593  0.7548
  183DOPC  H16R22499   0.606   4.768   4.704  0.0505 -2.2968  0.2644
  183DOPC  H16S22500   0.540   4.704   4.556 -0.8595  0.4635  0.9145
  183DOPC  C21722501   0.517   4.911   4.545 -0.1064 -0.0770 -0.6243
  183DOPC  H17R22502   0.419   4.864   4.523 -1.1128  1.8154 -0.3899
  183DOPC  H17S22503   0.543   4.944   4.443 -2.0243  1.3863 -0.6944
  183DOPC  C21822504   0.506   5.019   4.649  0.1009 -1.0611  0.1811
  183DOPC  H18R22505   0.426   5.090   4.620 -0.9837 -3.0293 -1.9794
  183DOPC  H18S22506   0.601   5.074   4.661 -1.2250  1.1594  1.1765
  183DOPC  H18T22507   0.488   4.978   4.751  0.4626 -0.0659  0.6523
  183DOPC   C3322508   0.379   3.683   3.690  0.0359 -0.2730 -0.5237
  183DOPC   H3X22509   0.389   3.576   3.720 -0.2570 -0.2642 -0.3866
  183DOPC   H3Y22510   0.312   3.695   3.602  1.5748  3.4787 -1.3758
  183DOPC   C3422511   0.300   3.748   3.802 -0.3241  0.4272 -0.2531
  183DOPC   H4X22512   0.195   3.714   3.792 -1.0649  2.9814 -2.2291
  183DOPC   H4Y22513   0.301   3.858   3.789 -0.2028  0.6919  1.7727
  183DOPC   C3522514   0.371   3.712   3.934 -0.1863 -0.0285 -0.0174
  183DOPC   H5X22515   0.455   3.785   3.932 -0.4792  0.3033 -1.5831
  183DOPC   H5Y22516   0.409   3.607   3.926  2.4850  0.9984 -2.8242
  183DOPC   C3622517   0.290   3.741   4.062  0.1928  0.2001 -0.1848
  183DOPC   H6X22518   0.203   3.673   4.067 -0.6114  1.2063 -0.2112
  183DOPC   H6Y22519   0.353   3.695   4.142  1.2561  0.2732 -0.9610
  183DOPC   C3722520   0.258   3.888   4.095  0.3295  0.6181  0.1621
  183DOPC   H7X22521   0.320   3.954   4.030  0.8086 -0.8385 -0.9085
  183DOPC   H7Y22522   0.149   3.900   4.073 -0.5043 -2.4837  2.0191
  183DOPC   C3822523   0.273   3.925   4.243 -0.1080  0.1512  0.0547
  183DOPC   H8X22524   0.293   4.034   4.234  1.2903 -0.0092  1.0370
  183DOPC   H8Y22525   0.372   3.888   4.276  0.6814  2.9372  1.1031
  183DOPC   C3922526   0.163   3.885   4.344 -0.1576 -0.7929 -0.0025
  183DOPC   H9X22527   0.096   3.803   4.315  1.1957 -2.0543  0.3035
  183DOPC  C31022528   0.145   3.935   4.468 -0.3327  0.1947 -0.4510
  183DOPC  H10X22529   0.065   3.904   4.537  0.2222  1.2931  0.7184
  183DOPC  C31122530   0.233   4.044   4.524  0.1866 -0.5359  0.3045
  183DOPC  H11X22531   0.281   4.101   4.442 -0.4421  0.6059  0.7214
  183DOPC  H11Y22532   0.303   3.997   4.597 -1.2355 -1.7152  0.9555
  183DOPC  C31222533   0.159   4.155   4.609 -0.1464  0.4821  0.0677
  183DOPC  H12X22534   0.066   4.205   4.574  0.2506  0.4817 -1.0250
  183DOPC  H12Y22535   0.231   4.239   4.598  0.2697  0.0922 -0.2170
  183DOPC  C31322536   0.143   4.107   4.757  0.8325  0.8083 -0.0465
  183DOPC  H13X22537   0.079   4.016   4.761  0.7740  0.8200 -0.6176
  183DOPC  H13Y22538   0.239   4.072   4.800 -0.6581  0.0669  2.9592
  183DOPC  C31422539   0.100   4.230   4.840  0.0715 -0.2075 -0.4181
  183DOPC  H14X22540   0.171   4.310   4.812 -0.7765  1.5764  2.1345
  183DOPC  H14Y22541   0.004   4.258   4.791  0.6404 -1.0320 -2.1030
  183DOPC  C31522542   0.067   4.219   4.992  0.4748 -0.1898  0.1703
  183DOPC  H15X22543   0.157   4.194   5.051  1.2136 -0.3749 -0.9917
  183DOPC  H15Y22544   0.010   4.128   5.022 -0.2469  1.2728  3.7217
  183DOPC  C31622545  -0.029   4.338   5.043 -0.1167  0.7411  0.5599
  183DOPC  H16X22546   0.028   4.433   5.041  1.9258 -0.4401  0.1650
  183DOPC  H16Y22547  -0.120   4.343   4.979 -1.5276  0.1865  2.4190
  183DOPC  C31722548  -0.086   4.310   5.181  0.3016 -0.8089 -0.6565
  183DOPC  H17X22549  -0.173   4.376   5.200 -0.3803 -1.5324 -1.1992
  183DOPC  H17Y22550  -0.102   4.201   5.193 -1.0277 -0.3749  2.0629
  183DOPC  C31822551   0.023   4.349   5.287  0.3530 -0.2291 -0.0157
  183DOPC  H18X22552  -0.016   4.307   5.383  0.6495  0.6138  0.4818
  183DOPC  H18Y22553   0.118   4.292   5.280  0.8950  0.2718  2.3480
  183DOPC  H18Z22554   0.041   4.458   5.297 -0.9351  0.0575 -0.6122
  184DOPC     N22555   4.645   1.273   2.322 -0.4885  0.9073  0.2555
  184DOPC   C1222556   4.568   1.292   2.452  0.3815  0.7849 -0.0671
  184DOPC  H12A22557   4.517   1.387   2.445 -2.8522 -0.8771 -1.1466
  184DOPC  H12B22558   4.642   1.288   2.530 -0.6876 -2.9616  0.9729
  184DOPC   C1322559   4.560   1.301   2.203  0.1344 -0.1128 -0.7185
  184DOPC  H13A22560   4.474   1.235   2.197 -1.2892  1.7528 -1.9900
  184DOPC  H13B22561   4.533   1.405   2.194 -1.0714 -0.4997 -1.7803
  184DOPC  H13C22562   4.614   1.285   2.110  0.6203  0.4302 -0.5350
  184DOPC   C1422563   4.701   1.135   2.289  0.0262  0.4976 -0.2452
  184DOPC  H14A22564   4.634   1.060   2.329 -0.9328 -0.0787 -2.7586
  184DOPC  H14B22565   4.726   1.118   2.185  0.8084  0.5718 -0.0805
  184DOPC  H14C22566   4.786   1.120   2.354 -0.5822 -0.8304  0.2761
  184DOPC   C1522567   4.765   1.374   2.317 -1.0096 -0.2477  0.9674
  184DOPC  H15A22568   4.738   1.460   2.378  0.6162  0.1211  1.2110
  184DOPC  H15B22569   4.797   1.390   2.215  0.5991  3.0340  1.8324
  184DOPC  H15C22570   4.854   1.340   2.368  0.3744 -0.0908 -1.2423
  184DOPC   C1122571   4.463   1.186   2.497 -0.1538 -0.0194  0.5248
  184DOPC  H11A22572   4.416   1.225   2.590 -2.2402  0.3411 -0.6112
  184DOPC  H11B22573   4.384   1.163   2.422  1.0199  2.0067 -1.4159
  184DOPC     P22574   4.633   1.034   2.637 -0.0856  0.1545  0.3080
  184DOPC   O1322575   4.768   1.063   2.582 -0.2999 -0.4754 -0.5212
  184DOPC   O1422576   4.612   0.889   2.679 -0.1970 -0.4420  0.2896
  184DOPC   O1222577   4.527   1.061   2.525  0.6044 -0.4043  0.4123
  184DOPC   O1122578   4.596   1.136   2.751  0.3158 -0.1230  0.0134
  184DOPC    C122579   4.472   1.117   2.827  0.4827  0.2432 -0.1095
  184DOPC    HA22580   4.417   1.023   2.806  0.4676  0.2548 -0.1210
  184DOPC    HB22581   4.396   1.195   2.806  0.2200 -0.0297 -0.1627
  184DOPC    C222582   4.506   1.114   2.981 -0.1615 -0.2074 -0.0388
  184DOPC    HS22583   4.413   1.127   3.040  2.7354  3.3082  4.4924
  184DOPC   O2122584   4.593   1.228   3.013  0.2047  0.0459  0.0913
  184DOPC   C2122585   4.533   1.345   2.999  0.7515 -0.4227 -0.1716
  184DOPC   O2222586   4.414   1.365   2.976 -0.4070  0.3646 -0.4873
  184DOPC   C2222587   4.630   1.454   3.042 -0.5473  0.3384  0.5032
  184DOPC   H2R22588   4.604   1.546   2.986  0.0583 -0.2887 -0.8368
  184DOPC   H2S22589   4.728   1.418   3.004 -1.1450  0.3053 -1.0757
  184DOPC    C322590   4.576   0.984   3.037 -0.2528 -0.1145 -1.1165
  184DOPC    HX22591   4.675   0.995   2.989 -0.5357  1.7288 -1.3359
  184DOPC    HY22592   4.520   0.895   2.999 -1.3410  0.1652 -0.2322
  184DOPC   O3122593   4.604   0.979   3.183  0.3556  0.0868 -0.3114
  184DOPC   C3122594   4.493   0.958   3.256 -0.0574  0.1705  0.8074
  184DOPC   O3222595   4.383   0.929   3.205 -0.2492 -0.3501 -0.5029
  184DOPC   C3222596   4.523   0.983   3.405 -0.5753  0.1990 -0.0356
  184DOPC   H2X22597   4.515   0.881   3.449 -3.0143  0.1303 -0.4831
  184DOPC   H2Y22598   4.624   1.027   3.417  0.3800 -1.2690 -1.9208
  184DOPC   C2322599   4.638   1.477   3.195 -0.4600 -0.5212 -0.3893
  184DOPC   H3R22600   4.719   1.552   3.212 -1.0498  0.4594 -1.6822
  184DOPC   H3S22601   4.656   1.386   3.256 -0.3836 -1.1144 -1.2673
  184DOPC   C2422602   4.512   1.544   3.256 -0.0607  0.2771  0.2930
  184DOPC   H4R22603   4.419   1.485   3.244 -0.8390  0.9771  2.3664
  184DOPC   H4S22604   4.505   1.644   3.208  2.6096 -0.6694 -2.3658
  184DOPC   C2522605   4.527   1.569   3.407 -0.0270  0.4939 -0.3811
  184DOPC   H5R22606   4.612   1.639   3.424 -1.3070  2.7931 -2.8081
  184DOPC   H5S22607   4.549   1.472   3.457  0.1503  0.7993  0.1451
  184DOPC   C2622608   4.400   1.632   3.468 -0.7664  0.1924  0.6029
  184DOPC   H6R22609   4.381   1.729   3.418  1.7201  0.6332  0.3692
  184DOPC   H6S22610   4.421   1.662   3.573 -1.2080 -1.2983  1.1513
  184DOPC   C2722611   4.279   1.526   3.465 -0.2282 -0.8044 -0.0353
  184DOPC   H7R22612   4.309   1.427   3.507  1.8081  0.5619  1.9815
  184DOPC   H7S22613   4.247   1.498   3.362 -3.5840 -1.4300  1.0346
  184DOPC   C2822614   4.151   1.579   3.528 -0.3263 -0.3256  0.0720
  184DOPC   H8R22615   4.077   1.497   3.530  0.9110 -1.5083 -1.0060
  184DOPC   H8S22616   4.101   1.654   3.462 -0.1629 -0.9875 -0.8152
  184DOPC   C2922617   4.176   1.629   3.668  0.6799 -0.8519  0.2215
  184DOPC   H9R22618   4.250   1.708   3.681 -0.5926  0.2482  1.0377
  184DOPC  C21022619   4.102   1.599   3.772 -0.1578 -0.1338 -1.0087
  184DOPC  H10R22620   4.114   1.652   3.867 -0.4821 -2.9559  0.7485
  184DOPC  C21122621   3.987   1.497   3.783 -0.5539  0.7743 -0.2927
  184DOPC  H11R22622   3.943   1.484   3.682  0.6294 -3.2565 -0.4438
  184DOPC  H11S22623   3.906   1.528   3.854 -0.3205  1.5600 -0.3555
  184DOPC  C21222624   4.045   1.364   3.826 -0.7578 -0.3884 -0.5092
  184DOPC  H12R22625   4.111   1.322   3.747  0.5285 -0.8190  0.7540
  184DOPC  H12S22626   3.959   1.294   3.825  1.0787 -2.7866  0.4049
  184DOPC  C21322627   4.091   1.346   3.967 -0.0767 -0.6992  0.3528
  184DOPC  H13R22628   4.176   1.416   3.980 -1.0834  0.8780 -1.1295
  184DOPC  H13S22629   4.132   1.242   3.972  4.5535  0.9094  0.9815
  184DOPC  C21422630   3.985   1.371   4.069 -0.1986  1.1498 -0.5230
  184DOPC  H14R22631   3.887   1.340   4.027  0.4477  0.1447 -1.3464
  184DOPC  H14S22632   3.968   1.480   4.082 -2.4854  0.6327  1.4814
  184DOPC  C21522633   4.012   1.292   4.198 -0.2950 -0.1351  0.1351
  184DOPC  H15R22634   4.090   1.346   4.257  1.1423 -0.9751 -0.9374
  184DOPC  H15S22635   4.054   1.191   4.178 -0.5359 -0.3530  0.7114
  184DOPC  C21622636   3.887   1.267   4.288 -0.4316  0.3343 -0.1788
  184DOPC  H16R22637   3.926   1.225   4.383  1.7985 -1.8364 -1.9306
  184DOPC  H16S22638   3.815   1.200   4.236 -0.5322  0.3093 -0.0067
  184DOPC  C21722639   3.807   1.403   4.313 -0.7292  0.1668 -0.9230
  184DOPC  H17R22640   3.774   1.444   4.215 -0.4477 -4.0535 -3.0346
  184DOPC  H17S22641   3.887   1.469   4.352  0.6121 -1.3714 -0.9883
  184DOPC  C21822642   3.701   1.398   4.418  0.2411  0.1717 -0.2139
  184DOPC  H18R22643   3.737   1.342   4.507  0.9463  1.0903  0.0977
  184DOPC  H18S22644   3.611   1.344   4.383 -0.8370 -0.3752  3.0711
  184DOPC  H18T22645   3.683   1.501   4.456  1.1654  1.1196 -2.1729
  184DOPC   C3322646   4.416   1.077   3.474 -0.6266  0.3260 -0.1909
  184DOPC   H3X22647   4.313   1.054   3.438 -0.6466 -0.3929  0.3000
  184DOPC   H3Y22648   4.437   1.184   3.458 -1.6789  0.7827  1.2783
  184DOPC   C3422649   4.408   1.058   3.623 -0.0441 -0.2287  0.0852
  184DOPC   H4X22650   4.361   1.144   3.675 -1.4064 -0.4343 -0.7397
  184DOPC   H4Y22651   4.511   1.045   3.662 -0.0815 -2.0676 -0.3271
  184DOPC   C3522652   4.335   0.928   3.669  0.0577 -0.0241  0.1059
  184DOPC   H5X22653   4.391   0.841   3.627 -0.2485  0.6857 -1.8638
  184DOPC   H5Y22654   4.231   0.927   3.631  0.3275 -0.8958 -0.6217
  184DOPC   C3622655   4.339   0.899   3.826 -0.6792 -0.4822 -0.9198
  184DOPC   H6X22656   4.315   0.791   3.831 -0.4276 -0.5053  0.1332
  184DOPC   H6Y22657   4.443   0.913   3.862 -0.7328 -0.4117 -0.7899
  184DOPC   C3722658   4.239   0.985   3.909 -0.4713  0.2318  0.1036
  184DOPC   H7X22659   4.297   1.080   3.917  0.0284  0.0097 -0.7930
  184DOPC   H7Y22660   4.149   1.019   3.853 -1.4397  1.0616  2.0630
  184DOPC   C3822661   4.205   0.939   4.052 -0.0485  0.7111  0.5055
  184DOPC   H8X22662   4.132   0.855   4.046 -0.7466  1.3766 -0.6675
  184DOPC   H8Y22663   4.145   1.013   4.109 -0.0078  0.7508  0.4971
  184DOPC   C3922664   4.324   0.886   4.127  0.3133  0.7399  0.5524
  184DOPC   H9X22665   4.367   0.799   4.075  0.2731  1.0908 -0.0718
  184DOPC  C31022666   4.378   0.936   4.235 -0.8258  0.2808 -0.7180
  184DOPC  H10X22667   4.462   0.872   4.267 -0.0860  0.9177 -1.3484
  184DOPC  C31122668   4.332   1.052   4.312  0.0987  0.0064  0.7810
  184DOPC  H11X22669   4.228   1.084   4.295  0.3112  1.3779  1.9064
  184DOPC  H11Y22670   4.403   1.134   4.289  1.2611 -0.8604  1.1577
  184DOPC  C31222671   4.347   1.037   4.466  0.3492 -0.1106  0.6259
  184DOPC  H12X22672   4.450   1.008   4.497  0.1887 -0.0186  1.2546
  184DOPC  H12Y22673   4.281   0.961   4.513  1.4396 -0.9425  0.8541
  184DOPC  C31322674   4.312   1.173   4.534 -0.4732 -0.0825 -0.5801
  184DOPC  H13X22675   4.352   1.183   4.638 -3.3544  1.3401  0.5168
  184DOPC  H13Y22676   4.369   1.248   4.476  0.2872 -0.4468 -0.3171
  184DOPC  C31422677   4.163   1.209   4.532  0.5315 -0.1031 -0.0727
  184DOPC  H14X22678   4.128   1.198   4.427 -3.0200 -0.5616  1.0113
  184DOPC  H14Y22679   4.101   1.134   4.587 -2.4750  1.2081 -1.4522
  184DOPC  C31522680   4.135   1.350   4.576  0.1490  0.6871 -0.7218
  184DOPC  H15X22681   4.031   1.373   4.548  0.0195  0.1651 -0.6769
  184DOPC  H15Y22682   4.200   1.417   4.514  1.4305 -0.1760 -0.3572
  184DOPC  C31622683   4.150   1.381   4.724 -0.7107 -0.1094 -0.6832
  184DOPC  H16X22684   4.066   1.323   4.768  0.3248 -0.8409  0.3912
  184DOPC  H16Y22685   4.242   1.345   4.775 -1.1973  0.1619  0.4121
  184DOPC  C31722686   4.141   1.527   4.772 -0.6073  0.0524 -0.5804
  184DOPC  H17X22687   4.243   1.570   4.761 -0.6685 -0.0134 -1.4999
  184DOPC  H17Y22688   4.071   1.592   4.716  0.2106  2.2494  0.8136
  184DOPC  C31822689   4.122   1.528   4.925 -0.0126  0.2608  0.0263
  184DOPC  H18X22690   4.020   1.498   4.956 -0.4920  2.9205  1.2909
  184DOPC  H18Y22691   4.202   1.475   4.981 -0.5880  0.6252  1.2236
  184DOPC  H18Z22692   4.118   1.634   4.957 -0.9982  0.0888  0.4949
  185DOPC     N22693   6.379   4.896   2.624 -0.3153  0.3207 -0.3459
  185DOPC   C1222694   6.295   4.772   2.670 -0.0597  0.5287 -0.2441
  185DOPC  H12A22695   6.310   4.683   2.610  0.1322  1.1061 -1.0754
  185DOPC  H12B22696   6.194   4.808   2.657 -0.6444 -0.1033  2.1466
  185DOPC   C1322697   6.519   4.875   2.657  0.4387  0.2522  1.1798
  185DOPC  H13A22698   6.560   4.796   2.596  0.6371  1.4822 -0.3635
  185DOPC  H13B22699   6.572   4.969   2.647 -0.2188  0.6051  0.9486
  185DOPC  H13C22700   6.534   4.844   2.759  1.2136  1.6205  1.5141
  185DOPC   C1422701   6.315   5.015   2.701  0.1877  0.7048 -0.4795
  185DOPC  H14A22702   6.293   4.991   2.804 -1.9576  1.0422 -0.8168
  185DOPC  H14B22703   6.371   5.107   2.698  0.4558  0.5912  0.5878
  185DOPC  H14C22704   6.217   5.037   2.663 -0.2191  0.4260  0.3815
  185DOPC   C1522705   6.357   4.931   2.482  0.2369  0.3920  0.1705
  185DOPC  H15A22706   6.277   5.003   2.470  0.3982  0.3386 -1.4913
  185DOPC  H15B22707   6.330   4.848   2.419 -0.5645  0.6150  0.2113
  185DOPC  H15C22708   6.439   4.975   2.426 -1.0183  0.8103 -1.4008
  185DOPC   C1122709   6.309   4.718   2.816  0.8425 -0.0208  0.2158
  185DOPC  H11A22710   6.301   4.803   2.888 -0.6540  1.9872 -2.1512
  185DOPC  H11B22711   6.228   4.644   2.832  0.6467 -0.1967 -1.4058
  185DOPC     P22712   6.475   4.524   2.776 -0.2293  0.0891  0.0293
  185DOPC   O1322713   6.616   4.511   2.744 -0.3197 -0.5188  0.3292
  185DOPC   O1422714   6.392   4.491   2.657  0.0363 -0.4259 -0.3204
  185DOPC   O1222715   6.437   4.664   2.828 -0.0963  0.2891  0.6700
  185DOPC   O1122716   6.442   4.412   2.884  0.1798  0.3959 -0.4796
  185DOPC    C122717   6.519   4.427   3.009 -0.0805  0.0516 -0.2505
  185DOPC    HA22718   6.625   4.462   3.003  0.0269  0.9783  3.8066
  185DOPC    HB22719   6.536   4.327   3.053 -1.4270  0.2709  0.8493
  185DOPC    C222720   6.439   4.490   3.130 -0.2194 -0.8188  0.2489
  185DOPC    HS22721   6.459   4.599   3.129 -0.8029 -0.7077 -0.7490
  185DOPC   O2122722   6.482   4.424   3.251  0.5494  0.5062  0.4717
  185DOPC   C2122723   6.587   4.482   3.303 -0.1502  0.7679  0.4720
  185DOPC   O2222724   6.644   4.578   3.251 -0.8411 -0.1323  0.2990
  185DOPC   C2222725   6.642   4.418   3.436  0.1647 -0.5369  0.3155
  185DOPC   H2R22726   6.628   4.307   3.438  1.7203 -0.7664 -0.0493
  185DOPC   H2S22727   6.602   4.478   3.520  2.5799  0.4221  0.8855
  185DOPC    C322728   6.287   4.486   3.106  0.2665  1.0918  0.7399
  185DOPC    HX22729   6.258   4.380   3.090 -0.7770  1.3777  0.6645
  185DOPC    HY22730   6.252   4.526   3.009 -1.7793 -0.7173  0.6273
  185DOPC   O3122731   6.217   4.538   3.223 -0.0692  0.5800  0.3573
  185DOPC   C3122732   6.089   4.521   3.213 -0.5825  0.3291 -0.4841
  185DOPC   O3222733   6.031   4.475   3.115 -0.6573  0.1328  0.0557
  185DOPC   C3222734   6.026   4.556   3.351 -0.7740  0.2037  0.4444
  185DOPC   H2X22735   6.111   4.537   3.420  1.0560  0.0460 -1.7120
  185DOPC   H2Y22736   5.998   4.661   3.330 -0.8949 -0.1157 -1.1772
  185DOPC   C2322737   6.797   4.429   3.440  0.1474  0.5830  0.0697
  185DOPC   H3R22738   6.827   4.478   3.345 -1.0353 -0.2153 -0.7475
  185DOPC   H3S22739   6.832   4.325   3.457 -0.3982  0.2705 -0.6223
  185DOPC   C2422740   6.867   4.516   3.547  0.2551  0.2361  0.1812
  185DOPC   H4R22741   6.975   4.492   3.542  0.5779  1.4546  0.9508
  185DOPC   H4S22742   6.829   4.494   3.650 -2.2762  1.6566 -0.3418
  185DOPC   C2522743   6.843   4.668   3.533  0.4618  0.1583  0.2751
  185DOPC   H5R22744   6.737   4.690   3.559 -0.3458 -1.5836 -1.2984
  185DOPC   H5S22745   6.867   4.713   3.434 -0.9072 -1.6260 -0.9425
  185DOPC   C2622746   6.924   4.729   3.642  0.0006 -0.9311  0.2583
  185DOPC   H6R22747   7.028   4.690   3.642 -0.5136 -2.3518  1.4188
  185DOPC   H6S22748   6.889   4.706   3.745 -0.5674  2.4312  0.9205
  185DOPC   C2722749   6.914   4.887   3.641 -0.2305 -0.6419 -0.3757
  185DOPC   H7R22750   6.812   4.928   3.653  0.0035 -0.3205  0.5554
  185DOPC   H7S22751   6.953   4.933   3.547 -0.1858 -1.5669 -0.8262
  185DOPC   C2822752   6.980   4.964   3.763 -0.6254 -0.7520 -0.9694
  185DOPC   H8R22753   7.088   4.940   3.760  0.2922  2.5103  1.1602
  185DOPC   H8S22754   6.939   4.919   3.856 -1.4638 -0.9046 -1.3974
  185DOPC   C2922755   6.960   5.116   3.757  0.2751  0.0020 -0.4619
  185DOPC   H9R22756   7.012   5.176   3.681  2.0267  0.8277  1.2854
  185DOPC  C21022757   6.877   5.183   3.848  0.1050  0.7590  0.1997
  185DOPC  H10R22758   6.868   5.293   3.841  1.1620  0.8072 -0.6054
  185DOPC  C21122759   6.800   5.122   3.959  0.4977 -0.1688  0.0326
  185DOPC  H11R22760   6.770   5.017   3.939  2.0354 -0.2373 -2.3384
  185DOPC  H11S22761   6.696   5.160   3.958  0.6395  0.2327 -1.0801
  185DOPC  C21222762   6.840   5.129   4.112 -0.1175  0.6728 -0.5027
  185DOPC  H12R22763   6.949   5.147   4.114  0.8117 -3.8279  1.1118
  185DOPC  H12S22764   6.819   5.033   4.163  0.9905  0.0166 -1.2376
  185DOPC  C21322765   6.774   5.248   4.174 -0.3654 -0.4955 -0.1367
  185DOPC  H13R22766   6.664   5.231   4.167 -0.7326  1.3957  0.3820
  185DOPC  H13S22767   6.787   5.342   4.116  0.4575  0.3681  1.3643
  185DOPC  C21422768   6.821   5.271   4.321 -0.9901  0.4833  0.4425
  185DOPC  H14R22769   6.775   5.365   4.356 -0.4011  0.8369  0.2708
  185DOPC  H14S22770   6.929   5.295   4.328 -0.8307 -0.4220  1.3764
  185DOPC  C21522771   6.779   5.158   4.418 -0.0672  0.0377 -0.7352
  185DOPC  H15R22772   6.828   5.060   4.400 -1.8086 -0.7213 -1.5247
  185DOPC  H15S22773   6.672   5.141   4.397  0.4160 -1.9353 -1.7974
  185DOPC  C21622774   6.802   5.207   4.564 -0.0343 -0.3878 -0.4681
  185DOPC  H16R22775   6.881   5.285   4.568  1.2887 -1.6800 -0.9484
  185DOPC  H16S22776   6.840   5.125   4.628 -0.5789 -0.4471 -0.2119
  185DOPC  C21722777   6.673   5.266   4.619  1.0655  0.2179 -0.7495
  185DOPC  H17R22778   6.596   5.188   4.602 -1.0734  2.2900 -1.1596
  185DOPC  H17S22779   6.647   5.358   4.561 -2.0592 -0.4950 -0.6588
  185DOPC  C21822780   6.683   5.301   4.768 -0.4222  0.3393  0.0259
  185DOPC  H18R22781   6.624   5.230   4.830  0.1485 -0.6209 -0.5318
  185DOPC  H18S22782   6.634   5.398   4.794 -1.7306 -0.4938  0.7942
  185DOPC  H18T22783   6.788   5.292   4.803 -0.7288 -1.1454  0.6343
  185DOPC   C3322784   5.900   4.471   3.387 -0.3914 -0.9171 -0.5686
  185DOPC   H3X22785   5.904   4.372   3.336  0.6486 -0.2586 -1.8248
  185DOPC   H3Y22786   5.808   4.522   3.353 -2.7448 -1.6196  3.9328
  185DOPC   C3422787   5.883   4.460   3.539  1.1387 -0.1779  0.1468
  185DOPC   H4X22788   5.959   4.385   3.569  1.4965  0.0452 -0.1790
  185DOPC   H4Y22789   5.784   4.414   3.560  0.3887  1.1597 -0.2973
  185DOPC   C3522790   5.894   4.584   3.625 -0.3133 -0.1996  0.4429
  185DOPC   H5X22791   5.822   4.660   3.588  0.4340  0.8093  0.9969
  185DOPC   H5Y22792   5.997   4.623   3.615 -0.4868 -0.1586 -1.5181
  185DOPC   C3622793   5.861   4.545   3.771 -0.4969 -0.4597 -0.2590
  185DOPC   H6X22794   5.762   4.495   3.775 -0.0888 -1.2126  1.3514
  185DOPC   H6Y22795   5.950   4.490   3.807  0.9105  1.5872 -0.4451
  185DOPC   C3722796   5.841   4.675   3.852 -0.2998  0.4992  0.1482
  185DOPC   H7X22797   5.943   4.718   3.867  1.2660 -2.0913 -2.0054
  185DOPC   H7Y22798   5.781   4.744   3.790 -0.6737 -2.0598 -2.5581
  185DOPC   C3822799   5.784   4.656   3.986  0.8084 -0.0636  0.9726
  185DOPC   H8X22800   5.682   4.614   3.974  0.6163  0.6898 -0.2114
  185DOPC   H8Y22801   5.761   4.756   4.029 -0.4820  0.6931 -1.3264
  185DOPC   C3922802   5.878   4.572   4.067  0.7434 -0.0868  0.0946
  185DOPC   H9X22803   5.883   4.466   4.039  0.2139 -0.6472  1.9515
  185DOPC  C31022804   5.956   4.610   4.166  0.1483 -0.3402 -0.0674
  185DOPC  H10X22805   6.012   4.535   4.223  1.0400 -0.9041 -1.6264
  185DOPC  C31122806   5.961   4.748   4.222  0.1310 -0.6997 -0.5126
  185DOPC  H11X22807   6.000   4.751   4.326 -2.1210 -0.2835  0.3572
  185DOPC  H11Y22808   5.858   4.787   4.232  0.5688  0.4450 -0.3738
  185DOPC  C31222809   6.055   4.830   4.134 -0.1526 -0.3574 -0.0539
  185DOPC  H12X22810   6.027   4.845   4.027  0.9643  1.1267 -0.1590
  185DOPC  H12Y22811   6.158   4.791   4.140 -0.2639 -0.4959  1.1229
  185DOPC  C31322812   6.074   4.979   4.186 -0.5301  0.0520  0.0096
  185DOPC  H13X22813   6.144   5.040   4.125  1.7420  0.4304  2.8175
  185DOPC  H13Y22814   5.974   5.026   4.172 -0.9289 -1.0533 -1.0688
  185DOPC  C31422815   6.124   4.981   4.336 -0.7709 -0.4458  0.5050
  185DOPC  H14X22816   6.043   4.951   4.406 -1.8849  0.8235 -0.1826
  185DOPC  H14Y22817   6.208   4.908   4.337 -2.2798 -2.2560  0.1900
  185DOPC  C31522818   6.188   5.112   4.390 -0.7382 -0.2363 -0.4682
  185DOPC  H15X22819   6.117   5.198   4.388 -1.4713 -0.8340 -1.0327
  185DOPC  H15Y22820   6.277   5.137   4.329 -0.4702  1.1252  0.4489
  185DOPC  C31622821   6.230   5.088   4.533  0.7047 -0.1114  0.0127
  185DOPC  H16X22822   6.133   5.090   4.587 -0.2971  2.1135 -1.7410
  185DOPC  H16Y22823   6.271   4.986   4.550 -1.9878 -0.8469  3.2609
  185DOPC  C31722824   6.311   5.198   4.605  0.0111  0.1781  0.5371
  185DOPC  H17X22825   6.406   5.218   4.551 -0.1520  0.3009  0.2938
  185DOPC  H17Y22826   6.251   5.290   4.593 -0.9825 -0.7496 -2.4150
  185DOPC  C31822827   6.337   5.167   4.758 -0.3314  1.0483  0.8170
  185DOPC  H18X22828   6.415   5.238   4.794 -1.1872  2.6282 -0.3130
  185DOPC  H18Y22829   6.243   5.162   4.818  0.1639 -1.9852  1.5201
  185DOPC  H18Z22830   6.376   5.063   4.761 -1.3225  0.6233 -0.2774
  186DOPC     N22831   4.982   3.768   2.240  0.5009  0.4200 -0.4641
  186DOPC   C1222832   5.132   3.732   2.237 -0.4205  0.2019  0.3288
  186DOPC  H12A22833   5.188   3.790   2.309 -0.1225 -1.5006  1.5195
  186DOPC  H12B22834   5.170   3.771   2.143 -0.9956  2.7211  1.0811
  186DOPC   C1322835   4.919   3.698   2.127 -0.3233 -0.4127  0.2036
  186DOPC  H13A22836   4.813   3.719   2.112 -0.4478 -0.1874  1.3563
  186DOPC  H13B22837   4.977   3.719   2.038  2.4472 -1.8049  1.5661
  186DOPC  H13C22838   4.925   3.590   2.130  0.5480 -0.3476  0.8949
  186DOPC   C1422839   4.973   3.910   2.237 -0.2492  0.0140  0.4670
  186DOPC  H14A22840   5.022   3.953   2.323  1.6611 -0.4985 -0.3174
  186DOPC  H14B22841   5.023   3.948   2.149  1.3240 -0.9762  0.8830
  186DOPC  H14C22842   4.870   3.937   2.223  0.1399  1.4095  0.1617
  186DOPC   C1522843   4.908   3.722   2.366 -0.4086 -0.3858 -0.3968
  186DOPC  H15A22844   4.806   3.757   2.366 -0.8260 -1.3992  1.7804
  186DOPC  H15B22845   4.955   3.767   2.452  0.9527 -1.9571 -0.2738
  186DOPC  H15C22846   4.923   3.616   2.383  2.6553  0.0979  0.4833
  186DOPC   C1122847   5.170   3.581   2.248  0.0115  0.4986 -0.5338
  186DOPC  H11A22848   5.137   3.527   2.157  1.1036  0.6756 -1.0463
  186DOPC  H11B22849   5.281   3.578   2.244  0.0143  0.1017 -0.1888
  186DOPC     P22850   5.118   3.369   2.393 -0.0735 -0.0046 -0.3702
  186DOPC   O1322851   5.230   3.310   2.318 -0.1235 -0.1394 -0.3809
  186DOPC   O1422852   4.981   3.314   2.375  0.0559 -0.1653  0.2028
  186DOPC   O1222853   5.115   3.523   2.366 -0.4059 -0.3390 -0.4491
  186DOPC   O1122854   5.160   3.372   2.547  0.1013 -0.5993  0.5357
  186DOPC    C122855   5.074   3.385   2.654  0.1149  0.3537 -0.4965
  186DOPC    HA22856   5.069   3.280   2.690 -0.6477  0.2462 -0.8840
  186DOPC    HB22857   4.974   3.416   2.615 -0.9041 -2.4890 -0.3599
  186DOPC    C222858   5.137   3.485   2.751  0.2367 -0.2492  0.0065
  186DOPC    HS22859   5.238   3.443   2.768  0.5542  0.6411  0.3833
  186DOPC   O2122860   5.066   3.492   2.874  0.1008 -0.0775 -0.0585
  186DOPC   C2122861   5.071   3.382   2.947 -0.2511 -0.1120  0.0459
  186DOPC   O2222862   5.133   3.277   2.924 -0.1387  0.4559 -0.3718
  186DOPC   C2222863   4.964   3.404   3.056 -0.0131  0.0017  0.1048
  186DOPC   H2R22864   4.864   3.413   3.009 -0.0404 -0.3830  0.0911
  186DOPC   H2S22865   4.977   3.496   3.118  2.3496 -0.5551  0.5101
  186DOPC    C322866   5.133   3.631   2.686  0.3459 -0.7594  0.3615
  186DOPC    HX22867   5.034   3.679   2.703  1.3142  0.8350  1.8652
  186DOPC    HY22868   5.155   3.622   2.578 -0.0534  2.9502 -0.1697
  186DOPC   O3122869   5.229   3.726   2.747 -0.2641 -0.4306  0.3427
  186DOPC   C3122870   5.351   3.715   2.699  0.4612 -0.0520  0.4728
  186DOPC   O3222871   5.394   3.653   2.602  0.3942 -0.1757 -0.4544
  186DOPC   C3222872   5.441   3.804   2.783 -0.0085  0.0403 -0.6089
  186DOPC   H2X22873   5.468   3.892   2.721  0.7864 -0.3551 -0.8360
  186DOPC   H2Y22874   5.391   3.852   2.870  0.4378  2.6303 -1.6795
  186DOPC   C2322875   4.961   3.287   3.166 -0.3974  0.3941 -0.6400
  186DOPC   H3R22876   4.946   3.187   3.119 -0.5277 -1.0359  2.2332
  186DOPC   H3S22877   4.868   3.300   3.225  1.0496  1.8937  1.4859
  186DOPC   C2422878   5.090   3.266   3.251  0.7302 -0.2440  0.8199
  186DOPC   H4R22879   5.182   3.261   3.189 -0.3630  2.7762 -1.2865
  186DOPC   H4S22880   5.095   3.179   3.320 -0.0143  0.7438  2.1691
  186DOPC   C2522881   5.131   3.390   3.342 -0.1629 -0.6735 -0.0246
  186DOPC   H5R22882   5.048   3.426   3.407 -2.2866 -2.2705 -1.6849
  186DOPC   H5S22883   5.144   3.477   3.274 -0.0305 -0.0727  0.7542
  186DOPC   C2622884   5.272   3.383   3.417  0.2770  0.0072 -0.2680
  186DOPC   H6R22885   5.284   3.481   3.467 -0.5410  0.3937 -0.8045
  186DOPC   H6S22886   5.355   3.367   3.344  0.2366  1.0026 -0.5399
  186DOPC   C2722887   5.275   3.271   3.528 -0.0996 -0.5348 -0.1696
  186DOPC   H7R22888   5.382   3.250   3.548 -0.5171 -1.8672  0.7520
  186DOPC   H7S22889   5.227   3.178   3.493 -0.8456 -0.0870 -0.3569
  186DOPC   C2822890   5.201   3.323   3.656 -0.1308 -0.8081 -0.2923
  186DOPC   H8R22891   5.109   3.370   3.615  0.5456  0.0441 -0.8612
  186DOPC   H8S22892   5.260   3.408   3.696  0.1285 -0.9209 -0.4381
  186DOPC   C2922893   5.196   3.231   3.768 -0.2362 -0.9508  0.1748
  186DOPC   H9R22894   5.279   3.159   3.778  0.9651  0.4030  0.1684
  186DOPC  C21022895   5.106   3.231   3.869 -0.5637 -0.4180  0.4814
  186DOPC  H10R22896   5.119   3.159   3.951  0.3134 -1.5746 -0.6377
  186DOPC  C21122897   5.002   3.340   3.893  0.4805 -0.2067  0.6436
  186DOPC  H11R22898   4.908   3.284   3.913  0.5148 -1.1751 -1.6399
  186DOPC  H11S22899   4.983   3.416   3.814  0.9034  1.9298  2.4872
  186DOPC  C21222900   5.040   3.424   4.021  0.3220  0.3513  0.4621
  186DOPC  H12R22901   4.972   3.512   4.033  0.2264  0.1618  1.3914
  186DOPC  H12S22902   5.144   3.460   4.010 -0.0524  0.9443 -1.7582
  186DOPC  C21322903   5.013   3.337   4.152  0.2543 -0.5824  0.4006
  186DOPC  H13R22904   5.084   3.251   4.154 -0.5814 -1.2869  1.0755
  186DOPC  H13S22905   4.908   3.301   4.151 -0.0911 -0.0035  3.6405
  186DOPC  C21422906   5.041   3.419   4.275 -0.7894  0.6167  0.8845
  186DOPC  H14R22907   4.952   3.484   4.284  0.5980  2.6821  0.4356
  186DOPC  H14S22908   5.130   3.484   4.259  0.4314 -0.8906  1.2038
  186DOPC  C21522909   5.068   3.330   4.395  0.1167 -0.1626  0.2223
  186DOPC  H15R22910   5.172   3.291   4.389  0.4729  0.9945 -1.9458
  186DOPC  H15S22911   4.995   3.247   4.385 -1.2631  1.2597 -2.6229
  186DOPC  C21622912   5.048   3.408   4.522  0.9716  0.4088 -0.8290
  186DOPC  H16R22913   4.949   3.458   4.531  1.7504  1.9917 -0.6689
  186DOPC  H16S22914   5.122   3.490   4.514 -0.6437  1.7469 -4.1886
  186DOPC  C21722915   5.071   3.328   4.654 -0.3856 -0.6040  0.5341
  186DOPC  H17R22916   5.179   3.300   4.659  0.3549  1.9628  0.1333
  186DOPC  H17S22917   5.018   3.231   4.645 -2.7132  0.5056  1.4278
  186DOPC  C21822918   5.034   3.398   4.781  0.8797 -0.4911 -0.0442
  186DOPC  H18R22919   5.103   3.483   4.800  0.7785 -0.6445  1.0740
  186DOPC  H18S22920   5.018   3.330   4.867 -0.7535  0.0809  0.1307
  186DOPC  H18T22921   4.935   3.438   4.753  0.7870  1.0469  2.2712
  186DOPC   C3322922   5.559   3.722   2.840  0.2232 -0.7842  0.3991
  186DOPC   H3X22923   5.634   3.790   2.885 -0.7363  0.6529 -0.1073
  186DOPC   H3Y22924   5.613   3.683   2.750  1.8778 -0.8101  1.3556
  186DOPC   C3422925   5.514   3.615   2.942 -0.0799 -0.4757 -0.9730
  186DOPC   H4X22926   5.439   3.545   2.898 -2.0480  0.2774  0.9879
  186DOPC   H4Y22927   5.454   3.671   3.016 -3.0440  1.0833 -4.2236
  186DOPC   C3522928   5.638   3.547   3.003 -0.6229 -0.5774 -0.1077
  186DOPC   H5X22929   5.704   3.622   3.052 -1.5013 -1.6499  2.9592
  186DOPC   H5Y22930   5.704   3.479   2.946  0.0731 -0.1591  0.1901
  186DOPC   C3622931   5.586   3.467   3.122 -0.0575  0.8288  0.1011
  186DOPC   H6X22932   5.521   3.522   3.193 -0.8868  1.3175 -1.0001
  186DOPC   H6Y22933   5.511   3.392   3.088 -0.5815  0.5506  1.7751
  186DOPC   C3722934   5.712   3.407   3.191  0.6283  0.8625  0.1809
  186DOPC   H7X22935   5.765   3.342   3.118 -1.8795  0.5537 -1.5019
  186DOPC   H7Y22936   5.771   3.489   3.238  1.0146  0.1663  0.9347
  186DOPC   C3822937   5.670   3.322   3.312  0.5880 -0.3177  0.4880
  186DOPC   H8X22938   5.599   3.251   3.266  1.1813  0.6131 -2.0761
  186DOPC   H8Y22939   5.611   3.389   3.378 -0.5845  1.7497 -2.4329
  186DOPC   C3922940   5.791   3.257   3.374  0.0713 -1.5126 -0.0472
  186DOPC   H9X22941   5.863   3.210   3.306 -0.8710  0.7868 -2.7913
  186DOPC  C31022942   5.841   3.298   3.500  0.4164 -0.1462 -0.5913
  186DOPC  H10X22943   5.930   3.251   3.545  0.5502  1.1798  0.5700
  186DOPC  C31122944   5.755   3.364   3.605 -0.4573 -0.2750  0.1213
  186DOPC  H11X22945   5.680   3.434   3.562  0.0570  1.2971  1.6468
  186DOPC  H11Y22946   5.835   3.414   3.664 -1.6406 -0.2438  1.7841
  186DOPC  C31222947   5.692   3.256   3.687 -0.2578  0.4456  0.0494
  186DOPC  H12X22948   5.767   3.178   3.711 -0.8159  0.1745  0.9687
  186DOPC  H12Y22949   5.616   3.200   3.628 -3.0343  2.2123  1.7101
  186DOPC  C31322950   5.620   3.324   3.805 -0.1171  0.2893  0.1402
  186DOPC  H13X22951   5.690   3.381   3.870 -1.6026  1.3600  0.8491
  186DOPC  H13Y22952   5.553   3.399   3.759  2.0105  0.6539 -2.6247
  186DOPC  C31422953   5.553   3.222   3.900  0.1434  0.6285 -0.1164
  186DOPC  H14X22954   5.467   3.179   3.844 -0.3517 -0.6313  1.5173
  186DOPC  H14Y22955   5.624   3.137   3.911 -0.5559 -0.3079 -2.3904
  186DOPC  C31522956   5.519   3.270   4.038  0.1880 -0.7739  0.4781
  186DOPC  H15X22957   5.430   3.335   4.045  0.8144  0.0917  0.6659
  186DOPC  H15Y22958   5.600   3.335   4.078  0.5765 -0.6699 -0.4467
  186DOPC  C31622959   5.465   3.164   4.126  0.3819 -0.2499 -0.2509
  186DOPC  H16X22960   5.383   3.097   4.091  2.5266 -1.3813 -3.6001
  186DOPC  H16Y22961   5.545   3.088   4.142 -1.2960 -1.9138  0.7329
  186DOPC  C31722962   5.437   3.226   4.266  0.3579 -0.1004  0.4369
  186DOPC  H17X22963   5.502   3.316   4.274 -0.6480  0.5104  2.6418
  186DOPC  H17Y22964   5.331   3.254   4.284  0.3456 -1.1022  2.1422
  186DOPC  C31822965   5.460   3.135   4.385  0.3000 -0.0646  0.0874
  186DOPC  H18X22966   5.397   3.044   4.377 -0.5305  0.4534  0.6208
  186DOPC  H18Y22967   5.566   3.101   4.393 -0.0549 -1.1379  0.4579
  186DOPC  H18Z22968   5.433   3.173   4.486  2.1919 -2.3763  1.5893
  187DOPC     N22969   5.428   3.019   2.482 -0.1523 -0.2065  0.2145
  187DOPC   C1222970   5.358   2.983   2.349 -0.7259 -0.1417  0.1177
  187DOPC  H12A22971   5.429   2.930   2.286  1.0622  2.3897 -0.1422
  187DOPC  H12B22972   5.344   3.072   2.290  1.9890 -1.3088 -2.5983
  187DOPC   C1322973   5.561   3.079   2.450  0.2433  0.3070 -0.5058
  187DOPC  H13A22974   5.569   3.166   2.387  2.3598  1.3196  1.0189
  187DOPC  H13B22975   5.604   3.105   2.546 -1.3523 -0.9607  0.6222
  187DOPC  H13C22976   5.626   3.006   2.403  0.6437  0.9622 -0.9817
  187DOPC   C1422977   5.444   2.900   2.562  0.0280  0.1994 -0.1306
  187DOPC  H14A22978   5.345   2.859   2.565 -0.2418  0.3890 -3.3131
  187DOPC  H14B22979   5.505   2.826   2.513  1.4958  1.6225 -0.5635
  187DOPC  H14C22980   5.480   2.913   2.663 -0.1588  0.2903 -0.0748
  187DOPC   C1522981   5.343   3.116   2.556 -0.1466  0.1163  0.2252
  187DOPC  H15A22982   5.341   3.218   2.520 -2.3843  0.5904  1.4298
  187DOPC  H15B22983   5.368   3.120   2.661  2.1011 -1.3311 -0.1908
  187DOPC  H15C22984   5.241   3.083   2.543  0.5534 -2.3166  0.5680
  187DOPC   C1122985   5.212   2.919   2.350  0.7324 -0.0703 -0.6391
  187DOPC  H11A22986   5.145   2.996   2.394  1.3035 -0.3740  0.8261
  187DOPC  H11B22987   5.178   2.895   2.247  0.1385 -0.2700 -0.4050
  187DOPC     P22988   5.066   2.727   2.458 -0.0133  0.1066  0.2882
  187DOPC   O1322989   5.092   2.627   2.567  0.4822  0.2397  0.6278
  187DOPC   O1422990   4.999   2.678   2.333  0.1858 -0.2710 -0.2261
  187DOPC   O1222991   5.200   2.799   2.425  0.3100 -0.6471  0.6084
  187DOPC   O1122992   4.975   2.845   2.516 -0.0389  0.5412 -0.8561
  187DOPC    C122993   5.008   2.924   2.631 -0.8948  0.6899  0.2794
  187DOPC    HA22994   4.943   3.014   2.628 -3.7946 -1.2739 -0.3479
  187DOPC    HB22995   5.115   2.955   2.625 -0.3972 -0.7995  0.9485
  187DOPC    C222996   4.977   2.855   2.757 -0.0061 -0.5252 -0.3497
  187DOPC    HS22997   5.019   2.753   2.768 -1.2434 -0.8770  1.5437
  187DOPC   O2122998   4.835   2.835   2.780 -0.1557  0.2128  0.2130
  187DOPC   C2122999   4.797   2.731   2.857  0.0319  0.2692  1.0700
  187DOPC   O2223000   4.868   2.649   2.911  0.0548 -0.6824  0.1591
  187DOPC   C2223001   4.648   2.734   2.858  0.7057 -0.4875 -0.1182
  187DOPC   H2R23002   4.620   2.709   2.753 -1.2426 -3.9587  1.0823
  187DOPC   H2S23003   4.613   2.836   2.883 -0.6945 -0.7970 -0.6949
  187DOPC    C323004   5.033   2.955   2.868  0.5373  0.3723  0.2270
  187DOPC    HX23005   4.982   3.051   2.846 -0.4361 -0.7365 -2.8091
  187DOPC    HY23006   5.140   2.984   2.855  0.1120  1.3387 -1.3582
  187DOPC   O3123007   5.012   2.907   2.999 -0.5337 -0.1367 -0.1947
  187DOPC   C3123008   5.086   2.801   3.034  0.6638  0.5573 -0.1404
  187DOPC   O3223009   5.159   2.736   2.962 -0.3054 -0.9957  0.6302
  187DOPC   C3223010   5.039   2.755   3.179 -0.3742  0.5241  0.3324
  187DOPC   H2X23011   4.957   2.684   3.158  0.7543 -1.0956  1.2026
  187DOPC   H2Y23012   5.115   2.685   3.219 -0.6819  1.3576  2.4886
  187DOPC   C2323013   4.584   2.628   2.954 -0.0301  0.2375 -0.0850
  187DOPC   H3R23014   4.630   2.530   2.931  0.1333  0.3535 -0.2567
  187DOPC   H3S23015   4.474   2.632   2.935 -0.0980 -0.9396 -0.0255
  187DOPC   C2423016   4.596   2.670   3.104 -0.1894  0.4355 -0.0989
  187DOPC   H4R23017   4.539   2.763   3.121 -0.8960  0.1231 -0.6995
  187DOPC   H4S23018   4.702   2.702   3.114  0.0482 -0.3017 -0.2244
  187DOPC   C2523019   4.552   2.563   3.207 -0.5903 -0.0240  0.3091
  187DOPC   H5R23020   4.612   2.471   3.194 -1.5874 -0.6747  0.1842
  187DOPC   H5S23021   4.445   2.538   3.188 -0.1393 -0.6354 -1.7682
  187DOPC   C2623022   4.564   2.613   3.351 -0.2055 -0.9917  0.0921
  187DOPC   H6R23023   4.498   2.700   3.369  1.5550  0.0149  2.0861
  187DOPC   H6S23024   4.666   2.653   3.365 -1.1570  1.8076 -0.3461
  187DOPC   C2723025   4.525   2.498   3.448  0.1168  0.0250  0.6024
  187DOPC   H7R23026   4.575   2.403   3.418 -0.1966  0.1037 -0.1901
  187DOPC   H7S23027   4.416   2.496   3.426  0.1509  0.5875  0.3783
  187DOPC   C2823028   4.552   2.522   3.597 -0.2804 -0.6366 -0.6293
  187DOPC   H8R23029   4.509   2.434   3.649 -3.2454  0.4009 -1.1357
  187DOPC   H8S23030   4.498   2.613   3.632  1.1379  0.2838 -0.7393
  187DOPC   C2923031   4.702   2.538   3.624  0.2590  0.0605  0.2013
  187DOPC   H9R23032   4.744   2.638   3.608  1.0261 -0.3212 -0.2318
  187DOPC  C21023033   4.789   2.460   3.686  0.0437  0.4047 -0.2318
  187DOPC  H10R23034   4.887   2.498   3.717 -0.2318 -1.1022  2.8243
  187DOPC  C21123035   4.755   2.312   3.725 -0.1188  0.2605  0.3056
  187DOPC  H11R23036   4.836   2.240   3.702 -1.1099 -0.5878 -0.6281
  187DOPC  H11S23037   4.669   2.268   3.669  0.3969  0.3661 -0.5862
  187DOPC  C21223038   4.732   2.302   3.880  0.6293 -0.0098  0.0985
  187DOPC  H12R23039   4.637   2.353   3.907  0.8196  0.9806 -1.0257
  187DOPC  H12S23040   4.823   2.347   3.924  0.1745  0.3844  0.6538
  187DOPC  C21323041   4.724   2.161   3.937  0.1453  1.0741 -0.5346
  187DOPC  H13R23042   4.806   2.110   3.881 -0.9134 -0.2750 -0.8916
  187DOPC  H13S23043   4.624   2.126   3.904  0.1244  0.7498 -0.1296
  187DOPC  C21423044   4.738   2.159   4.090  0.0523  0.1373  0.8562
  187DOPC  H14R23045   4.650   2.209   4.137  0.9431  1.6555  0.9909
  187DOPC  H14S23046   4.828   2.215   4.124 -1.1197  2.7413 -0.0865
  187DOPC  C21523047   4.737   2.012   4.136  0.1519 -0.4341 -0.5225
  187DOPC  H15R23048   4.831   1.970   4.094  1.2497  2.0640 -0.7465
  187DOPC  H15S23049   4.648   1.964   4.092 -0.4793  1.1314 -1.0286
  187DOPC  C21623050   4.728   1.994   4.295 -0.6652 -0.0971 -0.0192
  187DOPC  H16R23051   4.729   1.886   4.324 -1.0402  0.0170  0.4275
  187DOPC  H16S23052   4.636   2.039   4.339 -2.1177 -3.3167  0.6162
  187DOPC  C21723053   4.846   2.051   4.377 -0.3338 -0.1196  0.2259
  187DOPC  H17R23054   4.843   2.162   4.371  2.2455 -0.0649 -2.4833
  187DOPC  H17S23055   4.946   2.018   4.340 -0.0257  2.7369 -1.7201
  187DOPC  C21823056   4.849   2.012   4.526  0.6275  0.1375 -0.5094
  187DOPC  H18R23057   4.836   1.904   4.547 -0.9480  0.5322  0.7946
  187DOPC  H18S23058   4.774   2.072   4.582  0.0704 -0.5663 -0.4757
  187DOPC  H18T23059   4.951   2.037   4.562  0.4718 -0.2686  0.2213
  187DOPC   C3323060   4.998   2.861   3.276 -0.6241  0.2800 -0.5781
  187DOPC   H3X23061   4.899   2.908   3.255 -1.3243 -1.2454 -0.7854
  187DOPC   H3Y23062   5.074   2.942   3.276 -0.2746  0.0160  1.5600
  187DOPC   C3423063   5.010   2.807   3.425 -0.1447 -0.2004 -0.0245
  187DOPC   H4X23064   5.117   2.790   3.449 -0.3997 -2.0061 -0.0270
  187DOPC   H4Y23065   4.948   2.715   3.423 -1.5233  0.6725 -2.8689
  187DOPC   C3523066   4.967   2.900   3.536  0.2327  0.0871 -0.0726
  187DOPC   H5X23067   4.867   2.947   3.523  1.2786  2.6271  0.4220
  187DOPC   H5Y23068   5.028   2.993   3.529  0.8628 -0.3526 -0.5947
  187DOPC   C3623069   5.010   2.850   3.674  0.9083  0.5422  0.0890
  187DOPC   H6X23070   4.980   2.743   3.676  1.3213  0.4302  1.0007
  187DOPC   H6Y23071   5.119   2.858   3.693  1.4075  0.3745 -2.4045
  187DOPC   C3723072   4.931   2.928   3.781  0.0049  0.2435 -0.8953
  187DOPC   H7X23073   4.973   3.031   3.785 -0.3535  0.3462  1.5626
  187DOPC   H7Y23074   4.831   2.932   3.734  0.0783 -0.0949 -1.0788
  187DOPC   C3823075   4.956   2.854   3.917 -0.2308 -0.6639  0.7159
  187DOPC   H8X23076   5.066   2.857   3.934  0.0850  1.6980 -1.2245
  187DOPC   H8Y23077   4.927   2.747   3.916 -3.0870  0.0511  0.2839
  187DOPC   C3923078   4.878   2.914   4.035  0.1449 -0.0322  0.1474
  187DOPC   H9X23079   4.768   2.915   4.028  0.1714 -0.0300 -0.3253
  187DOPC  C31023080   4.929   2.973   4.145  0.3056 -0.0782 -0.4803
  187DOPC  H10X23081   4.851   3.018   4.208  0.0764 -1.2728  0.1156
  187DOPC  C31123082   5.074   2.982   4.188  0.8818  0.5129  0.2966
  187DOPC  H11X23083   5.084   3.069   4.257 -2.6358  2.3861 -1.2686
  187DOPC  H11Y23084   5.138   2.987   4.097 -2.2748  2.0415 -2.0587
  187DOPC  C31223085   5.115   2.863   4.271  0.1826 -0.0724  0.5186
  187DOPC  H12X23086   5.225   2.871   4.286  0.8258 -0.5730 -3.0679
  187DOPC  H12Y23087   5.093   2.770   4.214 -1.4062  1.7217 -2.0188
  187DOPC  C31323088   5.040   2.863   4.410  0.0669 -0.4112 -0.7403
  187DOPC  H13X23089   5.070   2.957   4.461 -2.1090  0.1958 -0.4502
  187DOPC  H13Y23090   4.929   2.867   4.398 -0.2908 -2.0913  1.3890
  187DOPC  C31423091   5.076   2.744   4.491  0.3775  0.0430  0.1122
  187DOPC  H14X23092   5.050   2.651   4.436  0.4760 -0.6809  1.2479
  187DOPC  H14Y23093   5.186   2.730   4.494  0.3145 -0.4412  0.2890
  187DOPC  C31523094   5.029   2.753   4.635 -0.3956  0.1213  0.2744
  187DOPC  H15X23095   4.931   2.806   4.635  0.4988  1.9003 -0.9286
  187DOPC  H15Y23096   5.103   2.814   4.692 -1.0207  1.9986 -0.8227
  187DOPC  C31623097   4.992   2.615   4.699 -0.0699  0.1177 -0.7434
  187DOPC  H16X23098   5.085   2.554   4.700  0.0567  0.2952  1.1092
  187DOPC  H16Y23099   4.972   2.628   4.807 -0.0803 -0.6603 -0.6503
  187DOPC  C31723100   4.885   2.542   4.634  0.7203  1.3669  0.0033
  187DOPC  H17X23101   4.783   2.585   4.649  0.4879  0.4552  1.2255
  187DOPC  H17Y23102   4.912   2.518   4.529  0.0300 -1.0889  0.3319
  187DOPC  C31823103   4.885   2.405   4.701 -0.0016  0.1757 -0.2499
  187DOPC  H18X23104   4.867   2.416   4.810 -0.6841  1.6011 -0.4825
  187DOPC  H18Y23105   4.811   2.337   4.653 -1.3811  1.3655  0.1102
  187DOPC  H18Z23106   4.986   2.359   4.693 -0.4593 -1.5571  2.6626
  188DOPC     N23107   1.753   0.654   2.487  0.5160  0.3781 -0.5440
  188DOPC   C1223108   1.595   0.656   2.491 -0.2052  0.0416  0.1438
  188DOPC  H12A23109   1.561   0.554   2.503 -1.0925  0.2779 -0.2802
  188DOPC  H12B23110   1.563   0.686   2.393 -1.9125 -0.3986  0.5416
  188DOPC   C1323111   1.805   0.789   2.460  0.2083  0.4732  0.4957
  188DOPC  H13A23112   1.912   0.800   2.471  0.3563  2.0242 -1.8693
  188DOPC  H13B23113   1.781   0.815   2.358 -0.3332 -0.0475  0.4856
  188DOPC  H13C23114   1.756   0.865   2.520 -2.4558 -0.4364 -0.3731
  188DOPC   C1423115   1.799   0.571   2.365  0.3638 -0.1388 -0.3587
  188DOPC  H14A23116   1.905   0.574   2.346  0.4142 -0.5954 -0.1650
  188DOPC  H14B23117   1.773   0.466   2.370 -4.2748  0.6856 -1.8625
  188DOPC  H14C23118   1.743   0.609   2.281 -0.0079  1.9091  0.7515
  188DOPC   C1523119   1.811   0.605   2.619  0.4253 -0.3497  0.2301
  188DOPC  H15A23120   1.769   0.508   2.638 -2.2026  0.5981 -0.3014
  188DOPC  H15B23121   1.785   0.669   2.702  1.2473 -0.8846  0.9222
  188DOPC  H15C23122   1.918   0.609   2.606  0.5871  0.7251  1.6109
  188DOPC   C1123123   1.531   0.749   2.598 -0.1896  0.6839  0.7263
  188DOPC  H11A23124   1.425   0.716   2.612 -0.4985  0.8998 -0.8660
  188DOPC  H11B23125   1.574   0.721   2.696 -0.0004 -0.0756  0.4342
  188DOPC     P23126   1.445   0.969   2.495  0.1586 -0.0251 -0.1591
  188DOPC   O1323127   1.369   0.882   2.396  0.2217 -0.0930 -0.3326
  188DOPC   O1423128   1.512   1.086   2.433  0.2688 -0.1430  0.3777
  188DOPC   O1223129   1.555   0.884   2.561 -0.3684 -0.4480 -0.2746
  188DOPC   O1123130   1.353   1.009   2.621  0.1561  0.2496  0.1618
  188DOPC    C123131   1.242   0.932   2.674 -0.1383 -0.1223 -0.0359
  188DOPC    HA23132   1.242   0.823   2.652 -3.6189 -0.4015  0.6751
  188DOPC    HB23133   1.143   0.975   2.649 -0.5509 -0.3982  1.0402
  188DOPC    C223134   1.239   0.929   2.827 -0.1024  0.2782  0.7774
  188DOPC    HS23135   1.145   0.884   2.864 -0.0660 -0.5332 -0.0694
  188DOPC   O2123136   1.272   1.057   2.881 -0.2537  0.7648 -0.7527
  188DOPC   C2123137   1.194   1.107   2.981 -0.3468 -0.1297 -0.1176
  188DOPC   O2223138   1.096   1.052   3.022  0.1310  0.0614  0.1849
  188DOPC   C2223139   1.262   1.233   3.040  0.3804 -0.8402  0.5445
  188DOPC   H2R23140   1.261   1.316   2.966  0.5866  0.4125  1.8973
  188DOPC   H2S23141   1.369   1.218   3.068  0.4629 -0.6434  0.3367
  188DOPC    C323142   1.340   0.823   2.883 -0.2459 -0.1350  0.2462
  188DOPC    HX23143   1.439   0.846   2.837  1.0370 -1.1270  2.3514
  188DOPC    HY23144   1.313   0.721   2.848  1.8713 -1.0780  1.1840
  188DOPC   O3123145   1.346   0.834   3.029  0.2212  0.3683  0.8289
  188DOPC   C3123146   1.264   0.756   3.108  0.1564 -0.2714  0.4247
  188DOPC   O3223147   1.188   0.670   3.063 -0.4512  0.3623  0.1534
  188DOPC   C3223148   1.298   0.787   3.253  0.5426 -0.1653  0.0336
  188DOPC   H2X23149   1.381   0.719   3.283  0.7472 -1.1172 -2.4422
  188DOPC   H2Y23150   1.335   0.890   3.269 -0.3777  0.1596  0.1543
  188DOPC   C2323151   1.177   1.299   3.146 -0.0259 -0.2938  0.1341
  188DOPC   H3R23152   1.069   1.292   3.120  0.0185 -1.4050  0.2156
  188DOPC   H3S23153   1.193   1.409   3.148  1.5177 -0.4597 -0.9419
  188DOPC   C2423154   1.183   1.235   3.283 -0.0957  0.1161 -0.2449
  188DOPC   H4R23155   1.285   1.239   3.327  0.5059  0.6261 -1.6276
  188DOPC   H4S23156   1.159   1.126   3.275 -1.1825  0.3099  0.2238
  188DOPC   C2523157   1.096   1.314   3.381  0.1313 -0.0636  0.1885
  188DOPC   H5R23158   0.988   1.298   3.359  0.8039 -1.6503 -2.4552
  188DOPC   H5S23159   1.114   1.423   3.380  0.2622 -0.0245  2.6189
  188DOPC   C2623160   1.108   1.272   3.526  0.6644 -0.1086  0.1570
  188DOPC   H6R23161   1.213   1.277   3.562  1.6003  0.0837 -2.3697
  188DOPC   H6S23162   1.081   1.165   3.540 -0.2669  0.1178  0.1834
  188DOPC   C2723163   1.014   1.366   3.606 -0.0530  0.4310  0.1396
  188DOPC   H7R23164   0.908   1.333   3.601  0.4172 -1.8218  2.4995
  188DOPC   H7S23165   1.032   1.468   3.564  1.1126 -1.1719 -3.7024
  188DOPC   C2823166   1.059   1.392   3.757 -0.6677  0.3938  0.7424
  188DOPC   H8R23167   0.973   1.450   3.796 -0.5255  1.1244  0.0192
  188DOPC   H8S23168   1.150   1.456   3.762  1.1348 -2.1036  1.7823
  188DOPC   C2923169   1.079   1.262   3.831  0.7885  0.2779  0.2338
  188DOPC   H9R23170   1.006   1.183   3.810 -0.8647  1.3045  1.8155
  188DOPC  C21023171   1.154   1.251   3.939 -0.0309  1.0686 -0.4777
  188DOPC  H10R23172   1.152   1.150   3.981 -0.4735  0.8904 -0.9195
  188DOPC  C21123173   1.241   1.350   4.006  0.6276  0.0939 -0.0096
  188DOPC  H11R23174   1.195   1.451   3.995  2.1124  0.6128 -2.0653
  188DOPC  H11S23175   1.340   1.361   3.957  0.6281 -1.8540 -0.5165
  188DOPC  C21223176   1.246   1.327   4.155  0.5652 -0.1104  0.2942
  188DOPC  H12R23177   1.290   1.227   4.175  0.1369 -1.0073 -2.7126
  188DOPC  H12S23178   1.140   1.325   4.190  0.0607  0.5980 -1.1232
  188DOPC  C21323179   1.325   1.422   4.245  0.0717  0.5140 -0.3182
  188DOPC  H13R23180   1.259   1.509   4.263 -0.4826 -0.1698  1.0912
  188DOPC  H13S23181   1.411   1.464   4.189  1.3534  0.2234  1.3719
  188DOPC  C21423182   1.379   1.367   4.379  0.4352  0.7147  0.7890
  188DOPC  H14R23183   1.437   1.273   4.364 -2.8415 -1.4180  0.3961
  188DOPC  H14S23184   1.295   1.345   4.448  0.9944 -1.0629  0.9651
  188DOPC  C21523185   1.459   1.471   4.446 -0.3809 -0.0915  0.2090
  188DOPC  H15R23186   1.397   1.563   4.452 -1.2322 -0.5937 -0.5866
  188DOPC  H15S23187   1.537   1.505   4.375 -1.2504 -1.1709 -1.3129
  188DOPC  C21623188   1.511   1.432   4.588 -0.3935 -0.3207 -0.6140
  188DOPC  H16R23189   1.429   1.384   4.646 -0.3634  0.2240 -0.1234
  188DOPC  H16S23190   1.531   1.529   4.636  2.5064 -0.5284 -1.2234
  188DOPC  C21723191   1.641   1.359   4.596  0.0325 -0.4869  0.2762
  188DOPC  H17R23192   1.719   1.432   4.563  0.4918 -0.1828  1.9339
  188DOPC  H17S23193   1.647   1.277   4.521  0.5401  0.0327 -0.2772
  188DOPC  C21823194   1.678   1.301   4.729 -0.2667 -0.8066 -1.0629
  188DOPC  H18R23195   1.622   1.207   4.746 -2.1552  0.7365  2.1524
  188DOPC  H18S23196   1.648   1.368   4.812  0.0602 -1.8587 -0.0696
  188DOPC  H18T23197   1.788   1.283   4.730 -0.4547 -2.1589  0.8467
  188DOPC   C3323198   1.170   0.774   3.338 -0.0913 -0.4886  0.0598
  188DOPC   H3X23199   1.153   0.664   3.341  0.0838 -0.6063 -2.0437
  188DOPC   H3Y23200   1.083   0.818   3.285  1.6949  0.2892 -2.4196
  188DOPC   C3423201   1.189   0.825   3.478  0.1112  0.2434  0.6337
  188DOPC   H4X23202   1.089   0.824   3.525 -0.1748 -1.3640  0.0675
  188DOPC   H4Y23203   1.213   0.931   3.457  0.5437 -0.2432 -1.5931
  188DOPC   C3523204   1.282   0.745   3.567 -0.2855  0.6107 -0.4344
  188DOPC   H5X23205   1.385   0.755   3.526  0.2487  0.5416  0.8561
  188DOPC   H5Y23206   1.257   0.638   3.549 -0.7115  0.8360 -1.2071
  188DOPC   C3623207   1.276   0.781   3.711  0.6759 -0.1176 -0.9342
  188DOPC   H6X23208   1.307   0.887   3.716 -0.9599  0.3820 -0.8580
  188DOPC   H6Y23209   1.173   0.782   3.753 -0.1352  1.8533 -2.7825
  188DOPC   C3723210   1.379   0.702   3.798 -0.0902  0.1580  0.2113
  188DOPC   H7X23211   1.349   0.596   3.786  0.7501  0.1022 -1.8233
  188DOPC   H7Y23212   1.480   0.703   3.753 -0.2144 -2.4424 -0.2444
  188DOPC   C3823213   1.396   0.738   3.947 -0.1679  0.5370 -0.5440
  188DOPC   H8X23214   1.396   0.849   3.953  0.8753  0.5498 -0.6996
  188DOPC   H8Y23215   1.494   0.694   3.974 -1.6967 -3.4901 -0.7743
  188DOPC   C3923216   1.279   0.675   4.016 -0.3493 -0.2039  0.5234
  188DOPC   H9X23217   1.265   0.566   4.004 -0.7886 -0.2595  1.3984
  188DOPC  C31023218   1.184   0.747   4.075  0.6081 -0.7193  0.5028
  188DOPC  H10X23219   1.104   0.683   4.115 -0.3640 -0.7624 -1.4182
  188DOPC  C31123220   1.175   0.897   4.094 -0.4646  0.2587  0.3954
  188DOPC  H11X23221   1.104   0.932   4.015  0.8188  1.5588 -0.2147
  188DOPC  H11Y23222   1.264   0.956   4.065 -0.4939  0.1781  0.1312
  188DOPC  C31223223   1.116   0.946   4.224 -0.1508  0.8337 -0.1306
  188DOPC  H12X23224   1.011   0.909   4.231 -0.6567  1.9981 -1.2964
  188DOPC  H12Y23225   1.107   1.056   4.214 -1.3049  0.7239 -0.3975
  188DOPC  C31323226   1.203   0.914   4.346  0.4931  0.5954  0.2433
  188DOPC  H13X23227   1.141   0.921   4.438 -0.3680 -1.2665 -0.1443
  188DOPC  H13Y23228   1.216   0.804   4.339 -0.6489  0.2345  2.5690
  188DOPC  C31423229   1.323   1.002   4.357 -0.7915  0.3005 -0.3561
  188DOPC  H14X23230   1.361   1.023   4.255 -0.2737  0.3933 -0.1447
  188DOPC  H14Y23231   1.291   1.099   4.402  4.3666  2.6477 -1.0880
  188DOPC  C31523232   1.441   0.954   4.447  0.5756 -0.0845  0.1769
  188DOPC  H15X23233   1.403   0.914   4.543  1.1214  3.8370  2.2351
  188DOPC  H15Y23234   1.511   1.035   4.479  0.5036  0.2104 -0.4014
  188DOPC  C31623235   1.520   0.842   4.380  0.3282  0.3613  0.2727
  188DOPC  H16X23236   1.501   0.837   4.271  1.1633 -2.4672  0.1730
  188DOPC  H16Y23237   1.630   0.851   4.385  0.4145 -0.7965  1.1326
  188DOPC  C31723238   1.500   0.700   4.434 -0.2645  0.2430 -0.3338
  188DOPC  H17X23239   1.504   0.696   4.545 -0.8820 -1.1164 -0.3296
  188DOPC  H17Y23240   1.396   0.667   4.415 -0.6043  0.7343  0.5873
  188DOPC  C31823241   1.598   0.600   4.383  1.2455  0.3366 -0.3924
  188DOPC  H18X23242   1.699   0.599   4.430  0.8456 -2.8679  0.6592
  188DOPC  H18Y23243   1.557   0.498   4.393 -0.9929  1.1390 -0.8796
  188DOPC  H18Z23244   1.610   0.614   4.274 -0.0083 -0.8453 -0.7112
  189DOPC     N23245   3.800   6.908   2.190  0.0692  0.3833  0.0794
  189DOPC   C1223246   3.868   7.032   2.257  0.0899  0.2133  0.5190
  189DOPC  H12A23247   3.801   7.116   2.247 -1.4259 -0.8490  1.1811
  189DOPC  H12B23248   3.960   7.040   2.202  0.7041 -2.3827  1.0299
  189DOPC   C1323249   3.674   6.876   2.278  0.5410  0.1712  0.6351
  189DOPC  H13A23250   3.697   6.853   2.381 -0.0380 -1.8885  0.3399
  189DOPC  H13B23251   3.604   6.957   2.281 -1.7955 -1.7551  1.1913
  189DOPC  H13C23252   3.617   6.792   2.240 -0.6274  0.7398  1.0848
  189DOPC   C1423253   3.896   6.796   2.183 -0.5819 -0.0817 -0.7582
  189DOPC  H14A23254   3.947   6.779   2.277 -1.6420 -0.9449 -0.3102
  189DOPC  H14B23255   3.844   6.706   2.153 -0.5223 -0.2900 -0.2451
  189DOPC  H14C23256   3.972   6.820   2.111 -1.1306  1.0623 -0.9705
  189DOPC   C1523257   3.748   6.928   2.057  0.2079  0.2023  0.2353
  189DOPC  H15A23258   3.662   6.994   2.061 -0.8793 -1.0661 -0.8018
  189DOPC  H15B23259   3.723   6.839   2.001 -1.0790  0.3956  0.4716
  189DOPC  H15C23260   3.825   6.976   1.998 -1.0157  2.5097  0.4179
  189DOPC   C1123261   3.909   7.020   2.406  0.6949  0.4506 -0.4108
  189DOPC  H11A23262   3.952   7.118   2.436  0.5278  0.4718 -0.2377
  189DOPC  H11B23263   3.813   7.022   2.463  1.5111  0.3411  1.0022
  189DOPC     P23264   4.140   6.926   2.464 -0.0925 -0.0766 -0.0163
  189DOPC   O1323265   4.210   7.016   2.362 -0.8855 -0.1720  0.0253
  189DOPC   O1423266   4.199   6.789   2.482  0.0573 -0.2796  0.0038
  189DOPC   O1223267   3.984   6.912   2.434  0.3038  0.3419 -0.1006
  189DOPC   O1123268   4.145   7.002   2.603  0.1956 -0.2284 -0.0281
  189DOPC    C123269   4.076   6.952   2.713 -0.1246 -0.3382  0.1342
  189DOPC    HA23270   4.037   6.848   2.701  5.0700 -2.7842  1.6038
  189DOPC    HB23271   3.982   7.009   2.731  0.1866  0.2098  0.0239
  189DOPC    C223272   4.164   6.946   2.839  0.1130 -0.2759 -0.3957
  189DOPC    HS23273   4.111   6.882   2.914  0.5041  1.1145  1.1230
  189DOPC   O2123274   4.186   7.076   2.897  0.5216 -0.6770 -0.1685
  189DOPC   C2123275   4.092   7.135   2.968 -0.2035 -0.2783  0.1009
  189DOPC   O2223276   3.983   7.085   2.996 -0.0799  0.9335 -0.1760
  189DOPC   C2223277   4.142   7.276   3.009 -0.6345  0.8721  0.0796
  189DOPC   H2R23278   4.069   7.317   3.082 -0.5226 -1.1843  1.4363
  189DOPC   H2S23279   4.149   7.337   2.917 -0.9494 -1.4151 -1.5354
  189DOPC    C323280   4.307   6.880   2.802  0.6166 -0.5849 -0.0287
  189DOPC    HX23281   4.353   6.948   2.726  2.1840  0.7837  2.0263
  189DOPC    HY23282   4.277   6.785   2.753 -2.4022  0.9277 -1.4161
  189DOPC   O3123283   4.392   6.871   2.921  0.3492 -0.3922 -0.4073
  189DOPC   C3123284   4.366   6.771   3.002  0.1410 -0.4705 -0.4243
  189DOPC   O3223285   4.277   6.690   2.987  0.1534 -0.3333 -0.0943
  189DOPC   C3223286   4.458   6.772   3.128 -0.1394 -0.3296  0.5095
  189DOPC   H2X23287   4.562   6.750   3.097 -0.3122 -2.3538  1.2330
  189DOPC   H2Y23288   4.448   6.873   3.173  0.7556  0.7808 -1.6363
  189DOPC   C2323289   4.292   7.269   3.056  0.7215 -0.0946 -0.2078
  189DOPC   H3R23290   4.344   7.361   3.024 -2.7676  1.8393 -0.8488
  189DOPC   H3S23291   4.344   7.178   3.018  0.7365  0.3269 -1.2087
  189DOPC   C2423292   4.296   7.242   3.211 -0.1248 -0.9570  0.1819
  189DOPC   H4R23293   4.265   7.341   3.250 -0.2737 -0.2355 -1.6743
  189DOPC   H4S23294   4.401   7.237   3.247  0.8958  0.3671 -2.3915
  189DOPC   C2523295   4.212   7.126   3.273 -0.1940  0.0259 -0.2808
  189DOPC   H5R23296   4.229   7.031   3.217  0.3227 -0.1802  0.2035
  189DOPC   H5S23297   4.104   7.151   3.272 -1.0472 -3.0709  1.2529
  189DOPC   C2623298   4.242   7.097   3.425  0.6753 -0.1881  0.3638
  189DOPC   H6R23299   4.162   7.034   3.470  0.0762 -0.5930 -1.1946
  189DOPC   H6S23300   4.245   7.188   3.489  1.7243 -0.9940  1.5246
  189DOPC   C2723301   4.368   7.012   3.448 -0.2417  0.4770 -0.0230
  189DOPC   H7R23302   4.438   7.045   3.369 -0.3790  0.2942 -0.2193
  189DOPC   H7S23303   4.338   6.910   3.417  0.2307  0.7461 -1.4041
  189DOPC   C2823304   4.439   7.020   3.587  0.1406  0.0236 -0.0998
  189DOPC   H8R23305   4.449   7.128   3.612  0.4562 -0.1021  0.3345
  189DOPC   H8S23306   4.543   6.981   3.585 -0.5713 -2.0644  0.9861
  189DOPC   C2923307   4.370   6.949   3.699  0.1674  0.0609 -0.3591
  189DOPC   H9R23308   4.323   6.854   3.672 -0.6771  1.2523 -3.4348
  189DOPC  C21023309   4.363   6.998   3.827 -0.0107  0.9398 -0.6532
  189DOPC  H10R23310   4.323   6.927   3.900 -0.3547 -0.0525 -1.7683
  189DOPC  C21123311   4.437   7.112   3.886  1.0191  0.3960 -0.2385
  189DOPC  H11R23312   4.368   7.197   3.904 -1.1114 -1.4183  0.5939
  189DOPC  H11S23313   4.524   7.147   3.826  1.7078 -3.0901 -1.4972
  189DOPC  C21223314   4.488   7.067   4.026 -0.9340 -0.3319 -0.4193
  189DOPC  H12R23315   4.551   6.976   4.019 -0.1273  0.1485  0.4579
  189DOPC  H12S23316   4.404   7.027   4.086  0.5676  0.1040  2.1001
  189DOPC  C21323317   4.564   7.183   4.092 -0.5166 -0.0946 -0.1056
  189DOPC  H13R23318   4.494   7.267   4.114  0.6837  0.1259  3.7692
  189DOPC  H13S23319   4.635   7.215   4.012 -1.9137  0.7678 -1.0553
  189DOPC  C21423320   4.641   7.148   4.218 -0.6194 -0.2975 -0.5869
  189DOPC  H14R23321   4.714   7.232   4.227 -2.3025  1.1454  0.3377
  189DOPC  H14S23322   4.702   7.059   4.192 -1.5837 -0.2874 -3.1386
  189DOPC  C21523323   4.553   7.149   4.345 -0.5762  0.2533 -0.7452
  189DOPC  H15R23324   4.506   7.049   4.357  0.4175 -0.0762  0.5854
  189DOPC  H15S23325   4.479   7.232   4.336 -0.9527 -0.0556 -0.5508
  189DOPC  C21623326   4.634   7.175   4.475  0.4639 -0.0850 -0.0069
  189DOPC  H16R23327   4.563   7.176   4.561  2.1321 -0.8415  1.4312
  189DOPC  H16S23328   4.677   7.277   4.468  0.5488 -0.1878 -1.0481
  189DOPC  C21723329   4.745   7.070   4.492  0.5532 -0.5837  0.0963
  189DOPC  H17R23330   4.807   7.092   4.403 -0.2184  0.4263 -0.2044
  189DOPC  H17S23331   4.712   6.964   4.490  0.4789 -0.6186  1.6661
  189DOPC  C21823332   4.817   7.081   4.623 -0.5461 -0.2132 -0.4177
  189DOPC  H18R23333   4.893   7.000   4.627  1.2581  1.4365  0.3192
  189DOPC  H18S23334   4.748   7.074   4.709 -1.0018 -0.2161 -0.7749
  189DOPC  H18T23335   4.872   7.177   4.635 -0.7924 -0.1625  0.3293
  189DOPC   C3323336   4.411   6.674   3.235 -0.2567 -0.0800 -0.1814
  189DOPC   H3X23337   4.419   6.571   3.195 -2.7029 -0.2064 -0.5377
  189DOPC   H3Y23338   4.304   6.694   3.260  0.1240  1.2290  0.5053
  189DOPC   C3423339   4.488   6.670   3.362  0.4592  0.2064  0.0419
  189DOPC   H4X23340   4.492   6.770   3.411 -0.4397  1.1824 -1.7221
  189DOPC   H4Y23341   4.595   6.642   3.359  0.8146  1.4030  0.8670
  189DOPC   C3523342   4.415   6.565   3.450 -0.0400  0.0233 -1.2323
  189DOPC   H5X23343   4.439   6.462   3.418  2.4011  0.3018 -0.4756
  189DOPC   H5Y23344   4.305   6.584   3.447  0.2182  2.3251  0.4184
  189DOPC   C3623345   4.462   6.568   3.602 -0.2672  0.4427  0.5497
  189DOPC   H6X23346   4.571   6.547   3.609 -0.5537 -2.2249 -1.3353
  189DOPC   H6Y23347   4.429   6.664   3.645 -1.4111 -0.0720  0.8545
  189DOPC   C3723348   4.395   6.452   3.674 -0.2081  0.0943  0.2310
  189DOPC   H7X23349   4.286   6.441   3.654 -0.4386  0.3224  1.3185
  189DOPC   H7Y23350   4.451   6.365   3.633 -0.4849  0.8883 -1.9538
  189DOPC   C3823351   4.424   6.451   3.831  0.2809  0.6004 -0.0016
  189DOPC   H8X23352   4.535   6.456   3.839  0.5560  0.6610 -2.8094
  189DOPC   H8Y23353   4.381   6.357   3.871 -3.3470  1.0649 -2.4258
  189DOPC   C3923354   4.358   6.565   3.893 -0.0979 -0.6899 -1.0076
  189DOPC   H9X23355   4.254   6.589   3.866 -0.0885  0.1700 -0.3157
  189DOPC  C31023356   4.415   6.652   3.985  0.2636  0.0441  0.5244
  189DOPC  H10X23357   4.349   6.729   4.028  0.2887  1.0986 -1.2493
  189DOPC  C31123358   4.544   6.632   4.048  0.1962 -0.1148  0.7262
  189DOPC  H11X23359   4.617   6.687   3.984 -1.6368  0.4573 -0.9792
  189DOPC  H11Y23360   4.575   6.526   4.041  1.7484  0.1221  2.8748
  189DOPC  C31223361   4.549   6.693   4.191 -0.4678  0.1873 -0.4307
  189DOPC  H12X23362   4.518   6.800   4.185 -0.1045  0.2340 -2.2134
  189DOPC  H12Y23363   4.659   6.697   4.211 -0.2949 -1.0762 -1.0493
  189DOPC  C31323364   4.487   6.612   4.304  0.1481  0.0446 -0.3553
  189DOPC  H13X23365   4.377   6.627   4.311  0.2859  0.2089  2.6401
  189DOPC  H13Y23366   4.500   6.508   4.267  1.3356  0.2734 -0.6172
  189DOPC  C31423367   4.539   6.626   4.445  0.1106  0.3524 -0.8440
  189DOPC  H14X23368   4.650   6.625   4.441  0.1702 -3.1427 -1.9221
  189DOPC  H14Y23369   4.503   6.724   4.482 -1.6257 -0.6004  0.1689
  189DOPC  C31523370   4.477   6.516   4.544  0.3622  0.0287  0.2868
  189DOPC  H15X23371   4.519   6.416   4.523  0.2662 -0.1486  0.9185
  189DOPC  H15Y23372   4.366   6.511   4.548  0.4294 -1.1406  1.9368
  189DOPC  C31623373   4.528   6.555   4.681 -0.1227  0.2763 -0.8623
  189DOPC  H16X23374   4.639   6.568   4.685  0.3062 -2.8499 -0.1672
  189DOPC  H16Y23375   4.488   6.655   4.708 -0.4043  0.3568 -1.5583
  189DOPC  C31723376   4.488   6.455   4.790 -0.2726 -0.0107 -0.7481
  189DOPC  H17X23377   4.547   6.485   4.879 -0.5603  0.2948 -0.6605
  189DOPC  H17Y23378   4.379   6.455   4.813  0.0440  0.9102  0.9468
  189DOPC  C31823379   4.546   6.309   4.764 -0.0105 -0.1424  0.2335
  189DOPC  H18X23380   4.506   6.256   4.675 -1.5114  0.8140  0.3115
  189DOPC  H18Y23381   4.653   6.319   4.735 -0.2795  4.3226  0.1555
  189DOPC  H18Z23382   4.527   6.246   4.853 -0.9723 -1.0286 -0.5708
  190DOPC     N23383   4.721   0.004   2.205 -0.1441  0.4230 -0.2196
  190DOPC   C1223384   4.680   0.039   2.342 -0.3033 -0.1493 -0.2912
  190DOPC  H12A23385   4.581   0.001   2.361 -0.0175 -0.7001  0.1222
  190DOPC  H12B23386   4.677   0.147   2.349 -1.0017  0.0506 -2.6070
  190DOPC   C1323387   4.624   0.056   2.111 -0.2061  0.5221 -0.1427
  190DOPC  H13A23388   4.595   0.159   2.124 -2.3295  0.0887 -1.0228
  190DOPC  H13B23389   4.679   0.059   2.019  1.4697 -0.3083  0.7762
  190DOPC  H13C23390   4.532  -0.001   2.115 -0.3232  0.7745  2.0238
  190DOPC   C1423391   4.738  -0.148   2.188  0.0121 -0.6497 -0.0749
  190DOPC  H14A23392   4.750  -0.164   2.082  0.0533  0.9942 -0.3480
  190DOPC  H14B23393   4.822  -0.189   2.241  1.4533  2.4282  0.2316
  190DOPC  H14C23394   4.649  -0.192   2.232  0.1660 -0.7545  0.1309
  190DOPC   C1523395   4.851   0.072   2.178  0.9363  0.4257  0.3480
  190DOPC  H15A23396   4.936   0.031   2.230  2.3496  0.0310 -2.1363
  190DOPC  H15B23397   4.845   0.176   2.207 -0.4289 -0.0102  1.7920
  190DOPC  H15C23398   4.881   0.059   2.075 -1.1625 -0.7988 -0.1772
  190DOPC   C1123399   4.777  -0.015   2.453 -0.0263  0.0511 -0.3832
  190DOPC  H11A23400   4.735   0.020   2.549  1.6906 -0.7124  0.6839
  190DOPC  H11B23401   4.768  -0.125   2.463 -0.8383  0.2045  0.6556
  190DOPC     P23402   4.976   0.155   2.526 -0.3948  0.2834 -0.3239
  190DOPC   O1323403   4.870   0.254   2.545 -0.2329  0.1081  0.1745
  190DOPC   O1423404   5.101   0.201   2.457  0.1297 -0.1651 -0.7635
  190DOPC   O1223405   4.920   0.024   2.451 -0.2900 -0.1799  0.0753
  190DOPC   O1123406   5.024   0.099   2.666  0.4688  0.2965 -0.7099
  190DOPC    C123407   4.924   0.047   2.760 -0.3464  0.7380  0.1230
  190DOPC    HA23408   4.889  -0.048   2.715  1.2031  0.1592  0.0717
  190DOPC    HB23409   4.848   0.125   2.783  1.4723  2.3277  1.0891
  190DOPC    C223410   4.997   0.017   2.897 -0.7844 -0.1492  0.7281
  190DOPC    HS23411   5.067  -0.069   2.888  0.8016  0.8036  3.0026
  190DOPC   O2123412   4.888  -0.015   2.984  0.4745 -0.2971 -0.0708
  190DOPC   C2123413   4.839  -0.137   2.987  0.4892 -0.0481 -0.0944
  190DOPC   O2223414   4.886  -0.234   2.933 -0.0906  0.0997  0.0944
  190DOPC   C2223415   4.712  -0.134   3.067 -0.0385  0.3047  0.3524
  190DOPC   H2R23416   4.625  -0.136   2.998 -0.4525  0.5354  0.8580
  190DOPC   H2S23417   4.720  -0.035   3.118  0.9902  1.2498 -1.5557
  190DOPC    C323418   5.079   0.136   2.941  0.6526 -0.1545 -0.3146
  190DOPC    HX23419   5.144   0.155   2.854  2.8224 -1.4288  0.9366
  190DOPC    HY23420   5.133   0.104   3.033  1.5629 -1.2315 -1.1985
  190DOPC   O3123421   4.991   0.251   2.966 -0.2049  0.1380 -0.1738
  190DOPC   C3123422   4.994   0.306   3.092 -0.4417  0.5536  0.2081
  190DOPC   O3223423   5.070   0.267   3.183 -0.5792 -0.0419  0.0070
  190DOPC   C3223424   4.885   0.417   3.099  0.4927  0.1249 -0.3061
  190DOPC   H2X23425   4.850   0.437   2.995  2.6758 -1.0092 -1.3491
  190DOPC   H2Y23426   4.801   0.374   3.157  1.7740 -1.5397  0.4145
  190DOPC   C2323427   4.706  -0.247   3.176  0.0328  0.2707 -0.0731
  190DOPC   H3R23428   4.740  -0.342   3.129  1.2531  0.2457  0.8038
  190DOPC   H3S23429   4.598  -0.257   3.203 -0.4167  0.1165 -1.8179
  190DOPC   C2423430   4.787  -0.235   3.305 -0.6437 -0.3286 -0.5569
  190DOPC   H4R23431   4.884  -0.287   3.286  0.6854  2.2091 -1.1563
  190DOPC   H4S23432   4.733  -0.295   3.382  0.9592 -1.2455 -0.1032
  190DOPC   C2523433   4.804  -0.094   3.367 -0.1768 -0.1021  0.1888
  190DOPC   H5R23434   4.707  -0.040   3.368 -0.2081 -0.1492 -0.0997
  190DOPC   H5S23435   4.870  -0.040   3.295 -0.8076 -0.4645 -0.6775
  190DOPC   C2623436   4.873  -0.105   3.507  0.4384 -0.3880 -0.2114
  190DOPC   H6R23437   4.978  -0.138   3.491 -0.4789 -2.9819 -1.4225
  190DOPC   H6S23438   4.824  -0.188   3.563 -3.1113  1.5856 -0.1383
  190DOPC   C2723439   4.859   0.021   3.589  0.3994  0.6295  0.0737
  190DOPC   H7R23440   4.754   0.050   3.609  0.7749  2.9923 -1.0708
  190DOPC   H7S23441   4.906   0.103   3.531  0.3886  1.2919  0.9928
  190DOPC   C2823442   4.942   0.018   3.723 -0.0987  0.4104  0.1548
  190DOPC   H8R23443   5.051   0.012   3.700  0.3520  0.7243  2.0976
  190DOPC   H8S23444   4.910  -0.067   3.787 -0.2386 -0.2165 -0.7140
  190DOPC   C2923445   4.933   0.150   3.788 -0.2523 -0.0169  0.2843
  190DOPC   H9R23446   4.953   0.234   3.720 -1.2466 -0.3614 -0.4605
  190DOPC  C21023447   4.903   0.174   3.915  1.0738 -0.5594  0.8673
  190DOPC  H10R23448   4.882   0.279   3.942 -3.4120 -0.9932 -0.1457
  190DOPC  C21123449   4.891   0.075   4.027  0.0483 -0.5865  0.8421
  190DOPC  H11R23450   4.846  -0.017   3.982 -1.9084  0.2779  0.9467
  190DOPC  H11S23451   4.823   0.107   4.108 -1.3755  0.5628 -0.7368
  190DOPC  C21223452   5.024   0.042   4.085  0.8611 -0.3216  0.1014
  190DOPC  H12R23453   5.063   0.137   4.129  1.5095 -0.9599  0.9498
  190DOPC  H12S23454   5.107   0.015   4.016  0.2980 -0.9644 -0.3332
  190DOPC  C21323455   5.033  -0.055   4.203 -0.1043 -0.1665 -0.4698
  190DOPC  H13R23456   4.997  -0.154   4.167  0.8281 -0.1141 -1.6207
  190DOPC  H13S23457   4.960  -0.036   4.284 -0.3580 -1.1540 -0.4499
  190DOPC  C21423458   5.171  -0.071   4.269 -0.0043  0.3340 -0.2382
  190DOPC  H14R23459   5.247  -0.085   4.189  0.6989  1.7574  0.1493
  190DOPC  H14S23460   5.162  -0.160   4.335 -0.6758  1.9237  1.8989
  190DOPC  C21523461   5.222   0.052   4.343 -0.2651 -0.1931 -0.9942
  190DOPC  H15R23462   5.231   0.136   4.270 -1.5597 -1.4640 -2.6894
  190DOPC  H15S23463   5.326   0.026   4.373 -1.0796 -3.5764 -0.7170
  190DOPC  C21623464   5.156   0.104   4.476 -0.0368  0.5072 -0.0504
  190DOPC  H16R23465   5.169   0.018   4.545  4.0328  1.4774  0.6703
  190DOPC  H16S23466   5.049   0.131   4.467 -0.7076 -1.9906 -0.2740
  190DOPC  C21723467   5.234   0.227   4.533  0.6371 -0.6992 -0.0165
  190DOPC  H17R23468   5.213   0.323   4.482 -1.6464 -1.6579 -1.0155
  190DOPC  H17S23469   5.345   0.215   4.533  0.7771  0.3639 -1.4052
  190DOPC  C21823470   5.202   0.246   4.685 -0.5351 -0.4497  0.4533
  190DOPC  H18R23471   5.272   0.174   4.734 -0.1663 -0.1037  0.4370
  190DOPC  H18S23472   5.100   0.227   4.727  0.1256  0.7597  2.7930
  190DOPC  H18T23473   5.228   0.347   4.722 -1.6896 -0.0958  0.3201
  190DOPC   C3323474   4.927   0.558   3.159 -0.0723 -0.0939  0.1113
  190DOPC   H3X23475   4.842   0.626   3.138 -2.0249 -1.6673  2.4314
  190DOPC   H3Y23476   5.024   0.590   3.115  0.7191 -1.1835  0.9757
  190DOPC   C3423477   4.953   0.554   3.312 -0.2951 -0.1959  0.8439
  190DOPC   H4X23478   4.984   0.654   3.349  1.4306 -0.6410  0.6816
  190DOPC   H4Y23479   5.029   0.480   3.344  1.1741  0.0659 -1.7671
  190DOPC   C3523480   4.828   0.502   3.389  0.1061  0.8522 -0.3942
  190DOPC   H5X23481   4.801   0.400   3.353 -0.7810  1.8761 -2.8724
  190DOPC   H5Y23482   4.738   0.566   3.372 -0.9365 -0.2153  0.8384
  190DOPC   C3623483   4.855   0.511   3.543  0.3063  0.4707 -0.3070
  190DOPC   H6X23484   4.758   0.484   3.590  0.4761  2.0364  1.0007
  190DOPC   H6Y23485   4.933   0.434   3.561 -0.7593 -0.6316 -0.2288
  190DOPC   C3723486   4.903   0.652   3.592  0.2052  0.1263 -0.3916
  190DOPC   H7X23487   4.937   0.653   3.698  2.9861  2.0714 -1.1982
  190DOPC   H7Y23488   4.991   0.692   3.540  0.8059 -0.6453  0.0002
  190DOPC   C3823489   4.789   0.756   3.567 -0.6239 -0.4372 -0.9148
  190DOPC   H8X23490   4.693   0.698   3.565 -0.4049 -0.7767 -2.6758
  190DOPC   H8Y23491   4.809   0.787   3.463  2.8491 -0.4016 -0.3399
  190DOPC   C3923492   4.769   0.875   3.659 -0.5331  0.1605  0.3757
  190DOPC   H9X23493   4.818   0.965   3.620  0.3216 -0.4634 -0.0252
  190DOPC  C31023494   4.730   0.867   3.785  0.0245  0.3137 -0.2716
  190DOPC  H10X23495   4.705   0.955   3.846 -0.6024 -1.2486  1.8473
  190DOPC  C31123496   4.692   0.735   3.857 -1.2980 -0.0580 -0.1757
  190DOPC  H11X23497   4.697   0.640   3.798 -0.1411  0.1062 -0.3717
  190DOPC  H11Y23498   4.591   0.735   3.903 -1.7577  0.2316 -1.1615
  190DOPC  C31223499   4.781   0.710   3.991  0.2924 -0.3537 -0.2235
  190DOPC  H12X23500   4.887   0.698   3.960  0.0541 -1.3481 -0.7075
  190DOPC  H12Y23501   4.735   0.621   4.039 -0.6900 -0.5414 -1.4523
  190DOPC  C31323502   4.772   0.831   4.093 -0.6718  0.2493 -0.4859
  190DOPC  H13X23503   4.864   0.892   4.079 -0.7224  0.9681  1.8927
  190DOPC  H13Y23504   4.688   0.899   4.068  1.2785  2.4827 -1.3958
  190DOPC  C31423505   4.763   0.788   4.239 -0.1500 -0.0437  0.3274
  190DOPC  H14X23506   4.658   0.774   4.273  0.1833  0.0518  1.4238
  190DOPC  H14Y23507   4.824   0.701   4.269 -0.7034  0.5519  3.5293
  190DOPC  C31523508   4.817   0.897   4.330 -0.7546 -0.0016  0.4143
  190DOPC  H15X23509   4.774   0.996   4.305 -2.7273 -0.3684  2.0658
  190DOPC  H15Y23510   4.927   0.900   4.310 -1.1200  1.1427 -1.6169
  190DOPC  C31623511   4.781   0.867   4.473  0.3058  0.7156 -0.9035
  190DOPC  H16X23512   4.682   0.816   4.467  0.3136  0.7579 -1.4859
  190DOPC  H16Y23513   4.855   0.795   4.514  0.5767  0.8559 -1.1428
  190DOPC  C31723514   4.767   0.987   4.563  0.9380 -0.8963  0.2989
  190DOPC  H17X23515   4.678   1.047   4.535  1.6603  0.6373  1.1382
  190DOPC  H17Y23516   4.733   0.950   4.661  0.4230  1.0650  0.9117
  190DOPC  C31823517   4.887   1.080   4.582 -0.3698  0.5009 -0.7322
  190DOPC  H18X23518   4.921   1.127   4.487 -0.3299 -1.1475 -1.5772
  190DOPC  H18Y23519   4.860   1.163   4.651  1.1877 -0.0118  0.5523
  190DOPC  H18Z23520   4.974   1.019   4.615 -1.0948 -0.4462 -0.5430
  191DOPC     N23521   4.202   0.341   2.643 -0.1882  0.1236 -0.0226
  191DOPC   C1223522   4.177   0.487   2.636 -0.5160 -0.5036  0.0139
  191DOPC  H12A23523   4.254   0.539   2.692 -1.9547 -0.3157  1.9242
  191DOPC  H12B23524   4.086   0.508   2.690  0.0309  0.2456  0.6733
  191DOPC   C1323525   4.078   0.267   2.613  0.1890  0.7478 -0.1807
  191DOPC  H13A23526   4.054   0.307   2.515 -2.1172  3.6290  1.4031
  191DOPC  H13B23527   4.091   0.160   2.606 -0.9022  0.6600 -1.1798
  191DOPC  H13C23528   3.986   0.294   2.661  0.2586  3.0750 -1.2245
  191DOPC   C1423529   4.245   0.305   2.787  0.4036 -0.2939  0.0070
  191DOPC  H14A23530   4.164   0.319   2.856  1.0591 -0.0301  0.7357
  191DOPC  H14B23531   4.256   0.198   2.803 -0.3975 -0.3250  0.3813
  191DOPC  H14C23532   4.335   0.355   2.818 -0.2780 -1.0419  3.6449
  191DOPC   C1523533   4.311   0.287   2.554 -0.5009  0.1340  0.6872
  191DOPC  H15A23534   4.363   0.205   2.600  2.4051  0.5484 -1.5676
  191DOPC  H15B23535   4.387   0.363   2.544 -0.7007  0.3331  0.6642
  191DOPC  H15C23536   4.283   0.277   2.450  2.9617  0.6029 -0.4229
  191DOPC   C1123537   4.153   0.542   2.491  0.0262  0.1182 -0.1435
  191DOPC  H11A23538   4.137   0.652   2.489 -0.7529  0.0066 -0.9619
  191DOPC  H11B23539   4.249   0.528   2.437  0.0969  2.3659 -0.6932
  191DOPC     P23540   3.904   0.520   2.429  0.2367  0.1868  0.2820
  191DOPC   O1323541   3.819   0.426   2.353 -0.0753 -0.1009 -0.1636
  191DOPC   O1423542   3.883   0.664   2.399 -0.3157 -0.4347  0.2189
  191DOPC   O1223543   4.055   0.470   2.417  0.0998 -0.4899 -0.1241
  191DOPC   O1123544   3.890   0.500   2.581  0.2147  0.1445 -0.0121
  191DOPC    C123545   3.779   0.562   2.656 -0.7716 -0.0711 -1.0605
  191DOPC    HA23546   3.675   0.535   2.629 -1.7715  1.2031  1.2398
  191DOPC    HB23547   3.784   0.670   2.628  1.5450  0.7743  1.9969
  191DOPC    C223548   3.808   0.539   2.805  0.5444 -0.2933  0.9488
  191DOPC    HS23549   3.738   0.599   2.867  1.1756  0.1038  1.2931
  191DOPC   O2123550   3.945   0.582   2.825 -0.5762 -0.1014 -0.0325
  191DOPC   C2123551   3.961   0.712   2.842  0.0825  0.4880 -0.0207
  191DOPC   O2223552   3.875   0.796   2.821  0.4602 -0.2301  0.5717
  191DOPC   C2223553   4.090   0.746   2.907  0.7681 -0.3750  0.3020
  191DOPC   H2R23554   4.128   0.838   2.856  1.1122 -0.4169  0.4823
  191DOPC   H2S23555   4.159   0.660   2.894  0.4264 -0.5546 -0.3711
  191DOPC    C323556   3.794   0.386   2.839 -0.0066  0.0129 -0.0234
  191DOPC    HX23557   3.883   0.337   2.795 -0.0573  0.7250 -0.9422
  191DOPC    HY23558   3.694   0.347   2.809 -0.1948  0.1520  0.4119
  191DOPC   O3123559   3.779   0.355   2.976  0.5759 -0.4025  0.0091
  191DOPC   C3123560   3.883   0.325   3.042 -0.1650  0.5793  0.1738
  191DOPC   O3223561   3.990   0.295   2.991  0.2095  0.4251 -0.2301
  191DOPC   C3223562   3.850   0.325   3.193 -0.3880 -0.0204 -0.0875
  191DOPC   H2X23563   3.873   0.427   3.229  1.4267 -0.3538 -0.1805
  191DOPC   H2Y23564   3.741   0.310   3.211 -0.3590  0.7206  0.8162
  191DOPC   C2323565   4.071   0.776   3.055  0.1070  0.4292  0.0447
  191DOPC   H3R23566   3.993   0.850   3.079 -3.4634 -2.7805 -0.7037
  191DOPC   H3S23567   4.168   0.811   3.098  0.1918 -0.0230  0.2333
  191DOPC   C2423568   4.021   0.660   3.141  0.2448 -0.7450  0.0796
  191DOPC   H4R23569   4.084   0.569   3.136  0.7147 -0.5193  1.4798
  191DOPC   H4S23570   3.921   0.624   3.109 -0.3140  0.3180  0.5720
  191DOPC   C2523571   4.021   0.709   3.288 -0.0005 -0.3464  0.0091
  191DOPC   H5R23572   3.963   0.804   3.284 -0.9900 -0.9279  0.0730
  191DOPC   H5S23573   4.122   0.726   3.329 -0.3180  2.3645 -0.1537
  191DOPC   C2623574   3.949   0.622   3.385  0.0368  0.0002 -0.6131
  191DOPC   H6R23575   3.982   0.516   3.388 -1.5794 -0.4987  0.8198
  191DOPC   H6S23576   3.842   0.627   3.358  0.2188 -0.0043 -1.3531
  191DOPC   C2723577   3.974   0.673   3.536 -0.8043 -0.4269 -0.0306
  191DOPC   H7R23578   3.923   0.771   3.550  1.2512  0.6932  0.0406
  191DOPC   H7S23579   4.082   0.694   3.547 -0.9128 -0.1894  0.6425
  191DOPC   C2823580   3.936   0.563   3.644  0.3794 -0.1064 -0.6530
  191DOPC   H8R23581   4.007   0.478   3.641 -1.4294 -1.8725  2.2113
  191DOPC   H8S23582   3.842   0.512   3.616  0.0171  0.4078 -0.3988
  191DOPC   C2923583   3.924   0.613   3.791 -0.7500  0.3288  0.4467
  191DOPC   H9R23584   3.967   0.710   3.821 -0.1851  0.2933 -0.2436
  191DOPC  C21023585   3.840   0.572   3.888 -0.1134 -0.4909  0.1853
  191DOPC  H10R23586   3.850   0.607   3.992  0.0987 -1.3892  0.4819
  191DOPC  C21123587   3.748   0.453   3.878  0.0430 -0.6099 -0.7735
  191DOPC  H11R23588   3.779   0.395   3.789 -0.7574 -4.0544  1.0191
  191DOPC  H11S23589   3.640   0.478   3.876  0.2900  1.5591  2.9323
  191DOPC  C21223590   3.759   0.365   4.005 -0.1760 -0.0550 -0.1641
  191DOPC  H12R23591   3.712   0.418   4.090  0.8733 -0.4988  0.7166
  191DOPC  H12S23592   3.864   0.342   4.033 -0.5953 -0.1654  1.4194
  191DOPC  C21323593   3.695   0.226   3.963  0.5793  0.2582  0.4525
  191DOPC  H13R23594   3.741   0.190   3.869 -1.5795  1.2379 -1.0750
  191DOPC  H13S23595   3.588   0.248   3.943  0.8188  0.8947 -0.1260
  191DOPC  C21423596   3.699   0.123   4.075 -0.5303 -0.5869  0.4700
  191DOPC  H14R23597   3.659   0.171   4.166  0.0585  2.2555 -0.6633
  191DOPC  H14S23598   3.804   0.094   4.097  0.5150  1.3904 -1.4682
  191DOPC  C21523599   3.614   0.003   4.051 -0.0795  0.1378 -0.1256
  191DOPC  H15R23600   3.644  -0.045   3.955  2.8399 -0.5283  0.9986
  191DOPC  H15S23601   3.506   0.027   4.052 -0.0182  0.4137  0.2124
  191DOPC  C21623602   3.645  -0.110   4.149  0.6776  0.4902 -0.6947
  191DOPC  H16R23603   3.626  -0.082   4.255  2.1085 -0.9184 -0.0276
  191DOPC  H16S23604   3.749  -0.147   4.134  0.5432  0.3609 -1.3518
  191DOPC  C21723605   3.564  -0.236   4.130 -0.6199  0.4426  0.0808
  191DOPC  H17R23606   3.588  -0.304   4.215 -1.4481  2.4008  2.0073
  191DOPC  H17S23607   3.594  -0.276   4.032 -2.7526  0.6496 -0.7081
  191DOPC  C21823608   3.410  -0.222   4.142  0.1304 -0.4360  0.1137
  191DOPC  H18R23609   3.358  -0.319   4.127  0.4065 -0.7094  0.9164
  191DOPC  H18S23610   3.373  -0.159   4.057 -2.1389 -0.4470  1.0155
  191DOPC  H18T23611   3.385  -0.161   4.231 -0.8655  1.1397 -1.1645
  191DOPC   C3323612   3.934   0.216   3.269 -0.5812  0.6497  0.0768
  191DOPC   H3X23613   4.041   0.244   3.274 -0.8185  2.0737 -1.5688
  191DOPC   H3Y23614   3.920   0.115   3.224  1.4304  0.1722  0.4225
  191DOPC   C3423615   3.888   0.187   3.414 -0.0185 -0.7792  0.4744
  191DOPC   H4X23616   3.779   0.179   3.431 -0.2420  1.7010  0.6403
  191DOPC   H4Y23617   3.900   0.278   3.476 -0.8554  0.0604 -0.5428
  191DOPC   C3523618   3.963   0.072   3.480  0.5095  0.1235  0.2319
  191DOPC   H5X23619   4.073   0.089   3.483  0.7105 -1.0067  0.0653
  191DOPC   H5Y23620   3.937  -0.025   3.431  1.9843 -0.7317  1.0782
  191DOPC   C3623621   3.929   0.058   3.630 -0.3391  0.4318  0.0198
  191DOPC   H6X23622   3.948   0.153   3.684  0.4762 -0.8929  2.2439
  191DOPC   H6Y23623   3.824   0.022   3.635  0.0093 -0.7969 -0.8756
  191DOPC   C3723624   4.032  -0.043   3.684  0.1415  0.2772 -0.6432
  191DOPC   H7X23625   4.006  -0.143   3.643  1.0103  0.2934 -1.2582
  191DOPC   H7Y23626   4.137  -0.019   3.655 -0.5502  2.5409 -1.5620
  191DOPC   C3823627   4.026  -0.062   3.836 -0.3907 -0.8179  0.1011
  191DOPC   H8X23628   4.081  -0.151   3.874  2.7268  0.4235 -1.1779
  191DOPC   H8Y23629   3.919  -0.083   3.860 -1.2170  1.6096 -1.1011
  191DOPC   C3923630   4.074   0.053   3.921 -0.1433 -0.5641 -0.0486
  191DOPC   H9X23631   4.044   0.151   3.880  1.3114  0.2962  0.8241
  191DOPC  C31023632   4.129   0.039   4.047  0.7449  0.0419 -0.2518
  191DOPC  H10X23633   4.162   0.128   4.102 -0.6458  0.3261  0.1432
  191DOPC  C31123634   4.153  -0.091   4.121  0.5655  0.1108  0.4583
  191DOPC  H11X23635   4.250  -0.092   4.176  1.4271  1.4658 -0.9529
  191DOPC  H11Y23636   4.180  -0.184   4.066  0.9672 -0.5023  1.6345
  191DOPC  C31223637   4.043  -0.122   4.223 -0.1360  0.1679 -0.3047
  191DOPC  H12X23638   3.948  -0.148   4.172 -1.7574  0.8211  2.1509
  191DOPC  H12Y23639   4.015  -0.035   4.288 -1.4310 -1.3705  1.3053
  191DOPC  C31323640   4.064  -0.237   4.321 -0.1843 -0.8922  0.7917
  191DOPC  H13X23641   3.968  -0.280   4.356 -2.0710  1.8406 -0.6709
  191DOPC  H13Y23642   4.114  -0.314   4.259  1.9928  1.1833 -0.1772
  191DOPC  C31423643   4.140  -0.194   4.441  0.1772  0.1498  0.7807
  191DOPC  H14X23644   4.226  -0.130   4.411  1.7671 -2.5414 -0.7780
  191DOPC  H14Y23645   4.071  -0.140   4.510 -2.1591 -0.5910 -0.8325
  191DOPC  C31523646   4.196  -0.309   4.519  0.3622  0.4290 -0.2547
  191DOPC  H15X23647   4.280  -0.356   4.463 -0.4851  0.3262 -1.4865
  191DOPC  H15Y23648   4.128  -0.397   4.530  1.7650 -0.5612  1.0188
  191DOPC  C31623649   4.254  -0.267   4.651 -0.2603  0.2360 -0.0207
  191DOPC  H16X23650   4.340  -0.202   4.625 -0.5754  1.2584  1.4029
  191DOPC  H16Y23651   4.186  -0.199   4.705 -0.7070  0.2807 -0.6216
  191DOPC  C31723652   4.318  -0.386   4.732 -0.2798  0.3318  0.4691
  191DOPC  H17X23653   4.228  -0.440   4.768 -2.5108  1.0475 -3.4101
  191DOPC  H17Y23654   4.380  -0.447   4.663  1.7373  2.0971  0.6124
  191DOPC  C31823655   4.398  -0.353   4.860  0.3331 -0.2436  0.0304
  191DOPC  H18X23656   4.501  -0.318   4.834 -0.0436  0.8354 -0.0585
  191DOPC  H18Y23657   4.346  -0.282   4.927  3.6579  0.8885  1.6295
  191DOPC  H18Z23658   4.409  -0.449   4.915 -0.6945  0.4042  1.4093
  192DOPC     N23659   0.756   5.194   3.026 -0.4681  0.2922  0.0293
  192DOPC   C1223660   0.681   5.101   3.123  0.4368  0.8962 -0.3770
  192DOPC  H12A23661   0.637   5.024   3.063 -0.9453  0.6773  0.8508
  192DOPC  H12B23662   0.589   5.150   3.153 -0.2876 -0.3197 -0.5770
  192DOPC   C1323663   0.672   5.208   2.900  0.0400 -0.3200  0.7515
  192DOPC  H13A23664   0.678   5.118   2.841  1.1949  1.3420 -1.8643
  192DOPC  H13B23665   0.571   5.241   2.914  0.6821  3.0721 -1.4116
  192DOPC  H13C23666   0.719   5.290   2.846  1.4948 -0.8036  1.2176
  192DOPC   C1423667   0.889   5.136   2.999  0.0257 -0.0531  0.5422
  192DOPC  H14A23668   0.939   5.123   3.094 -0.7078 -0.4697  0.8826
  192DOPC  H14B23669   0.873   5.038   2.957 -1.5436 -0.3286  1.6735
  192DOPC  H14C23670   0.956   5.199   2.943 -1.1129  0.7543  0.0477
  192DOPC   C1523671   0.776   5.330   3.092  0.5466 -0.4454 -0.3583
  192DOPC  H15A23672   0.857   5.327   3.164  0.2182 -0.9398  0.0002
  192DOPC  H15B23673   0.685   5.364   3.138  1.0715  2.6367 -1.4064
  192DOPC  H15C23674   0.804   5.400   3.015 -1.3672 -0.6502 -1.2867
  192DOPC   C1123675   0.745   5.043   3.253  0.0017  0.0610  0.3739
  192DOPC  H11A23676   0.770   5.135   3.312  1.3308 -0.3140  0.4166
  192DOPC  H11B23677   0.673   4.983   3.313 -0.1084 -0.7673 -0.5782
  192DOPC     P23678   0.868   4.818   3.164  0.4215  0.5101 -0.3994
  192DOPC   O1323679   0.913   4.818   3.023 -0.0019 -0.7356  0.3957
  192DOPC   O1423680   0.737   4.749   3.184 -0.2860  0.2484  0.1574
  192DOPC   O1223681   0.858   4.970   3.220 -0.2683  0.0741  0.8015
  192DOPC   O1123682   0.980   4.765   3.258 -0.1116 -0.0359 -0.3286
  192DOPC    C123683   1.008   4.822   3.389 -0.9885  0.6377  0.4315
  192DOPC    HA23684   1.032   4.748   3.469 -1.4374  2.0794  1.9645
  192DOPC    HB23685   0.922   4.879   3.430 -0.4043  0.7104  1.6052
  192DOPC    C223686   1.132   4.913   3.388  0.5229  0.1867 -0.1593
  192DOPC    HS23687   1.118   4.975   3.297 -2.6446 -0.7346 -0.4316
  192DOPC   O2123688   1.243   4.822   3.388  0.0950  0.6980 -0.1102
  192DOPC   C2123689   1.364   4.865   3.361 -0.7307  0.5806  0.0978
  192DOPC   O2223690   1.396   4.971   3.324 -0.0839 -0.1427  0.5707
  192DOPC   C2223691   1.450   4.743   3.401 -0.4954  0.2782 -0.8233
  192DOPC   H2R23692   1.410   4.656   3.343 -1.3897  0.3890 -0.3824
  192DOPC   H2S23693   1.428   4.718   3.507  0.1053  0.7757 -0.5729
  192DOPC    C323694   1.137   5.019   3.504  0.1044 -0.1727 -0.0575
  192DOPC    HX23695   1.045   5.082   3.501 -0.0931 -0.1318  3.2124
  192DOPC    HY23696   1.229   5.081   3.502 -0.3076  0.4995  0.8777
  192DOPC   O3123697   1.121   4.957   3.630  0.5675  0.7645 -0.6027
  192DOPC   C3123698   1.229   4.919   3.687  0.5728 -0.1179 -0.0369
  192DOPC   O3223699   1.346   4.941   3.657 -0.1859 -0.3507 -0.5151
  192DOPC   C3223700   1.188   4.828   3.810 -0.1048 -0.3433  0.2924
  192DOPC   H2X23701   1.114   4.756   3.769  0.6763 -1.1077  0.1820
  192DOPC   H2Y23702   1.281   4.780   3.846 -0.4858 -1.7496 -0.5182
  192DOPC   C2323703   1.591   4.775   3.367  0.0738  0.0812  0.3595
  192DOPC   H3R23704   1.594   4.808   3.261  1.6289 -1.5418 -0.1470
  192DOPC   H3S23705   1.632   4.672   3.360 -1.7324 -0.7811  1.5448
  192DOPC   C2423706   1.658   4.868   3.469  0.4829  0.0004  0.0969
  192DOPC   H4R23707   1.597   4.959   3.484 -0.3138 -0.5492  0.3134
  192DOPC   H4S23708   1.758   4.881   3.423  0.5555 -0.0203  0.2512
  192DOPC   C2523709   1.691   4.805   3.605  0.6697  0.9324  0.6609
  192DOPC   H5R23710   1.736   4.705   3.589 -2.4487 -0.5557  0.5103
  192DOPC   H5S23711   1.591   4.778   3.643  1.1133 -1.4761  0.3030
  192DOPC   C2623712   1.770   4.888   3.701  0.7323 -0.5852  0.3004
  192DOPC   H6R23713   1.724   4.989   3.690  0.4364 -0.8981 -1.6880
  192DOPC   H6S23714   1.876   4.900   3.671  0.6467  1.6735  0.7105
  192DOPC   C2723715   1.760   4.846   3.844  0.3440 -0.3947 -0.4413
  192DOPC   H7R23716   1.823   4.754   3.851  1.0300 -0.1089 -2.3533
  192DOPC   H7S23717   1.656   4.818   3.870 -0.2605  2.0014 -0.0911
  192DOPC   C2823718   1.814   4.948   3.945 -0.9268 -0.3064  0.2747
  192DOPC   H8R23719   1.764   5.047   3.941 -2.0818 -0.8348  1.3813
  192DOPC   H8S23720   1.918   4.961   3.907 -0.7854 -0.8167  0.4851
  192DOPC   C2923721   1.799   4.902   4.094 -0.0177 -0.5123  0.1130
  192DOPC   H9R23722   1.897   4.879   4.138  0.6570 -0.1984 -1.1938
  192DOPC  C21023723   1.693   4.890   4.170 -0.3703 -0.1356  0.0280
  192DOPC  H10R23724   1.713   4.875   4.277 -0.0160 -0.6453 -0.1070
  192DOPC  C21123725   1.550   4.919   4.133  0.0399  0.1847 -0.4670
  192DOPC  H11R23726   1.539   4.956   4.029 -3.5424 -1.2001 -0.7049
  192DOPC  H11S23727   1.514   4.992   4.209  0.7418 -0.1338  0.1874
  192DOPC  C21223728   1.456   4.796   4.138 -0.0523  0.1236 -0.4965
  192DOPC  H12R23729   1.508   4.714   4.084 -1.2064  0.1155 -1.6632
  192DOPC  H12S23730   1.365   4.823   4.079  0.3803  0.0283 -1.2248
  192DOPC  C21323731   1.431   4.757   4.283 -0.0868 -0.3628  0.3106
  192DOPC  H13R23732   1.393   4.851   4.329 -2.0409 -0.4395 -1.0429
  192DOPC  H13S23733   1.522   4.720   4.335  0.7883 -0.5426 -1.2802
  192DOPC  C21423734   1.318   4.651   4.291  0.0769  0.4645  0.1791
  192DOPC  H14R23735   1.333   4.590   4.200 -0.3251 -1.1668  1.1658
  192DOPC  H14S23736   1.222   4.705   4.277 -0.7240 -1.4927 -2.6981
  192DOPC  C21523737   1.310   4.566   4.410 -0.1448  0.2997 -0.0318
  192DOPC  H15R23738   1.278   4.624   4.499  4.4357 -0.5188  2.5142
  192DOPC  H15S23739   1.409   4.524   4.437  0.1407 -0.3156 -1.8913
  192DOPC  C21623740   1.215   4.441   4.394 -0.6016  0.2643 -0.0243
  192DOPC  H16R23741   1.283   4.362   4.354 -1.5338 -0.4206 -0.2940
  192DOPC  H16S23742   1.138   4.456   4.315  0.0749 -0.2936 -0.8204
  192DOPC  C21723743   1.148   4.398   4.517  0.5246 -0.1057  0.5797
  192DOPC  H17R23744   1.072   4.471   4.551  1.5025 -0.3350  3.5494
  192DOPC  H17S23745   1.215   4.393   4.606  0.7905  0.3635  0.4130
  192DOPC  C21823746   1.080   4.261   4.499 -0.4374 -0.1154 -0.3442
  192DOPC  H18R23747   1.024   4.231   4.591  1.4926 -1.5177  0.4480
  192DOPC  H18S23748   1.158   4.182   4.491 -0.2075  0.0692  0.0394
  192DOPC  H18T23749   1.013   4.265   4.411 -2.5254  0.7215  1.2114
  192DOPC   C3323750   1.119   4.921   3.915 -0.1866  0.0751  0.0056
  192DOPC   H3X23751   1.030   4.976   3.877  0.7941  1.0772 -0.9268
  192DOPC   H3Y23752   1.187   5.001   3.952  0.3075 -0.1808 -0.3411
  192DOPC   C3423753   1.077   4.838   4.040 -0.2692 -0.3617  0.1066
  192DOPC   H4X23754   1.149   4.754   4.056 -0.4891 -0.4139  0.8853
  192DOPC   H4Y23755   0.974   4.797   4.035 -1.3252  2.2171 -1.3895
  192DOPC   C3523756   1.075   4.918   4.170 -0.5766  1.1421  0.7519
  192DOPC   H5X23757   1.175   4.917   4.219 -0.6666 -0.4241  0.9397
  192DOPC   H5Y23758   1.012   4.872   4.249  1.5876 -0.0977  1.8495
  192DOPC   C3623759   1.043   5.068   4.165 -0.6463 -0.4718 -0.0651
  192DOPC   H6X23760   1.118   5.114   4.096 -1.2997  1.4946  0.4795
  192DOPC   H6Y23761   0.943   5.081   4.119 -0.6527  0.6807  0.2372
  192DOPC   C3723762   1.048   5.149   4.297  0.2030 -0.0894 -0.3015
  192DOPC   H7X23763   1.147   5.189   4.329  0.3011 -0.1181 -0.5619
  192DOPC   H7Y23764   0.987   5.240   4.274  1.4586  0.2127 -2.8668
  192DOPC   C3823765   1.011   5.060   4.421 -0.5649  0.0428 -0.3013
  192DOPC   H8X23766   1.080   4.973   4.427 -0.7562 -0.1702 -1.1261
  192DOPC   H8Y23767   0.910   5.014   4.408  0.5693 -2.3106 -1.4485
  192DOPC   C3923768   1.015   5.131   4.553 -0.0807  0.8385  0.1658
  192DOPC   H9X23769   1.110   5.117   4.607 -0.6336 -1.9717  0.5351
  192DOPC  C31023770   0.920   5.214   4.592 -0.2719 -0.0752 -0.9436
  192DOPC  H10X23771   0.915   5.243   4.698  3.0968  0.4039 -0.7981
  192DOPC  C31123772   0.800   5.261   4.512 -0.4777 -0.6266 -0.5130
  192DOPC  H11X23773   0.706   5.207   4.534 -0.9695 -0.2530 -1.6104
  192DOPC  H11Y23774   0.812   5.261   4.401  0.9284 -0.2647 -0.3821
  192DOPC  C31223775   0.777   5.409   4.554 -0.4933 -0.5491  0.2242
  192DOPC  H12X23776   0.867   5.472   4.539 -0.9029  0.8360  3.0442
  192DOPC  H12Y23777   0.755   5.423   4.662 -0.9763  0.5500 -0.0085
  192DOPC  C31323778   0.647   5.455   4.485  0.4776  0.1394 -0.0526
  192DOPC  H13X23779   0.654   5.444   4.375  1.4317  1.2194 -0.1264
  192DOPC  H13Y23780   0.556   5.395   4.502  0.7124 -0.6951 -1.5752
  192DOPC  C31423781   0.616   5.603   4.511  0.5670  0.2965  0.8504
  192DOPC  H14X23782   0.602   5.616   4.621 -1.5659  2.8092  0.4036
  192DOPC  H14Y23783   0.709   5.653   4.478 -0.6485  2.9714  1.1625
  192DOPC  C31523784   0.489   5.665   4.456  0.8896  0.2358  0.0403
  192DOPC  H15X23785   0.413   5.593   4.492  1.3328  0.0370  0.5925
  192DOPC  H15Y23786   0.494   5.673   4.345 -1.5106  1.1272 -0.0585
  192DOPC  C31623787   0.472   5.802   4.510  0.0613 -1.0626 -0.1508
  192DOPC  H16X23788   0.467   5.786   4.620 -2.3783  0.0695 -0.0229
  192DOPC  H16Y23789   0.562   5.862   4.485  1.2387 -1.4707  2.7657
  192DOPC  C31723790   0.347   5.880   4.469  0.9698  0.1259 -0.4945
  192DOPC  H17X23791   0.260   5.810   4.477 -0.1500  1.6507  1.7781
  192DOPC  H17Y23792   0.325   5.955   4.548  0.9108  0.6469 -1.0049
  192DOPC  C31823793   0.354   5.953   4.335  1.4576  0.4191 -0.8021
  192DOPC  H18X23794   0.388   5.881   4.257  0.1103 -1.2445  0.0992
  192DOPC  H18Y23795   0.251   5.988   4.312  1.1598 -0.9573 -1.6942
  192DOPC  H18Z23796   0.428   6.036   4.339  1.5430  0.4040 -1.7335
  193DOPC     N23797   0.106   1.906   2.646 -0.5607  0.2947 -0.0514
  193DOPC   C1223798   0.073   1.899   2.794 -0.2302 -0.4643  0.6219
  193DOPC  H12A23799   0.092   2.002   2.822 -1.2207 -0.0717 -0.1112
  193DOPC  H12B23800   0.137   1.828   2.846 -0.5141 -1.3766 -0.2524
  193DOPC   C1323801   0.008   2.000   2.585  0.5913 -0.2380  0.0507
  193DOPC  H13A23802  -0.094   1.974   2.609  0.7743 -1.2250 -0.1901
  193DOPC  H13B23803   0.020   2.097   2.631 -0.5409  0.2201 -0.5863
  193DOPC  H13C23804   0.029   2.009   2.479  0.3496 -1.1130 -0.0822
  193DOPC   C1423805   0.105   1.771   2.586 -0.5601 -0.2504  0.1401
  193DOPC  H14A23806   0.055   1.700   2.650 -3.1595  1.2731 -0.0824
  193DOPC  H14B23807   0.045   1.773   2.497  1.0722  1.7183 -1.0082
  193DOPC  H14C23808   0.204   1.733   2.566 -0.7986 -2.2491  2.3161
  193DOPC   C1523809   0.244   1.968   2.626  0.1423 -0.1868  0.5711
  193DOPC  H15A23810   0.261   2.063   2.675  1.3876 -0.9905  1.7582
  193DOPC  H15B23811   0.257   1.979   2.519  2.8529  0.9289  0.9485
  193DOPC  H15C23812   0.319   1.899   2.660  0.0584 -0.3286  0.4693
  193DOPC   C1123813  -0.079   1.894   2.840 -0.2886 -0.1844 -0.6658
  193DOPC  H11A23814  -0.087   1.881   2.950 -1.0767  1.4344 -0.4973
  193DOPC  H11B23815  -0.132   1.985   2.804  1.4273  1.2000  0.1540
  193DOPC     P23816  -0.160   1.633   2.834  0.3406  0.0786  0.0178
  193DOPC   O1323817  -0.055   1.539   2.781  0.0782 -0.3127  0.6123
  193DOPC   O1423818  -0.300   1.584   2.819  0.2244  0.4859  0.8073
  193DOPC   O1223819  -0.135   1.780   2.777  0.5962  0.5803 -0.1449
  193DOPC   O1123820  -0.132   1.648   2.989 -0.2436 -0.2420 -0.7557
  193DOPC    C123821  -0.221   1.623   3.100 -0.3205 -0.1046  0.4231
  193DOPC    HA23822  -0.323   1.664   3.083 -0.1187  1.7497  3.1082
  193DOPC    HB23823  -0.186   1.681   3.188 -0.0108  0.7067 -0.2205
  193DOPC    C223824  -0.211   1.476   3.136  0.1447 -0.0482 -0.5831
  193DOPC    HS23825  -0.258   1.415   3.056 -1.1405  1.5350 -1.0783
  193DOPC   O2123826  -0.276   1.467   3.267 -0.1643  0.1409  1.2233
  193DOPC   C2123827  -0.335   1.341   3.281  0.2608  0.1349 -0.2515
  193DOPC   O2223828  -0.324   1.252   3.196 -0.2121 -0.0040 -0.3701
  193DOPC   C2223829  -0.399   1.330   3.421 -0.4261  0.6710  0.1278
  193DOPC   H2R23830  -0.343   1.259   3.486 -1.0263  0.6470  0.6333
  193DOPC   H2S23831  -0.497   1.278   3.416 -0.9076  1.2585  2.2546
  193DOPC    C323832  -0.061   1.426   3.159  0.0005 -0.4735 -1.1956
  193DOPC    HX23833  -0.010   1.437   3.061  1.4488  1.6380 -0.2895
  193DOPC    HY23834  -0.059   1.319   3.189 -0.2089  0.4418  2.5371
  193DOPC   O3123835   0.004   1.515   3.252 -0.8420  0.3608  0.2031
  193DOPC   C3123836   0.012   1.456   3.374 -0.1939 -0.8557  0.1883
  193DOPC   O3223837  -0.013   1.343   3.407  0.2172  0.4518  0.1769
  193DOPC   C3223838   0.085   1.554   3.470 -0.7839 -0.3467  0.2932
  193DOPC   H2X23839   0.189   1.565   3.433 -2.2103  0.1588 -4.1682
  193DOPC   H2Y23840   0.044   1.657   3.466 -1.1025 -0.4946 -0.4522
  193DOPC   C2323841  -0.437   1.462   3.483 -0.1547  0.0567  0.0508
  193DOPC   H3R23842  -0.491   1.531   3.416  0.3185 -1.2178 -1.6986
  193DOPC   H3S23843  -0.349   1.521   3.517 -1.1859  1.4909  0.3203
  193DOPC   C2423844  -0.531   1.449   3.603  0.0004 -0.6175  0.1814
  193DOPC   H4R23845  -0.634   1.430   3.567 -0.1252  0.5298 -0.1123
  193DOPC   H4S23846  -0.535   1.550   3.649 -0.7226  0.0353 -1.2584
  193DOPC   C2523847  -0.485   1.352   3.715 -0.6484 -0.3530  0.6313
  193DOPC   H5R23848  -0.479   1.249   3.674  0.5470 -0.3593  0.7880
  193DOPC   H5S23849  -0.560   1.352   3.798 -1.3350  2.8059  0.1257
  193DOPC   C2623850  -0.349   1.394   3.770  0.3276  0.1679 -0.6108
  193DOPC   H6R23851  -0.358   1.503   3.787 -5.2186  0.1548 -1.8032
  193DOPC   H6S23852  -0.271   1.368   3.695  1.1685 -1.9522  0.8858
  193DOPC   C2723853  -0.303   1.327   3.907  0.2340  0.0789  0.3206
  193DOPC   H7R23854  -0.309   1.220   3.880 -0.5795 -0.3525  2.0472
  193DOPC   H7S23855  -0.376   1.351   3.988  0.4988  2.5196 -0.0911
  193DOPC   C2823856  -0.164   1.374   3.946 -0.3649 -0.0920  0.3661
  193DOPC   H8R23857  -0.166   1.480   3.982  0.6114 -0.2121  0.8155
  193DOPC   H8S23858  -0.110   1.377   3.850 -0.6029  0.8378  0.2463
  193DOPC   C2923859  -0.089   1.276   4.029  0.8903  0.1754 -0.2563
  193DOPC   H9R23860  -0.009   1.228   3.970 -0.0564  0.1259 -1.5215
  193DOPC  C21023861  -0.114   1.232   4.153  0.2145  0.1765 -0.1445
  193DOPC  H10R23862  -0.059   1.147   4.196  0.7778  1.0938  1.0019
  193DOPC  C21123863  -0.234   1.282   4.241 -0.3254 -0.3047  0.1390
  193DOPC  H11R23864  -0.301   1.193   4.241  0.8700 -1.2354 -0.4065
  193DOPC  H11S23865  -0.284   1.371   4.197 -0.6206  0.1581  1.3645
  193DOPC  C21223866  -0.176   1.310   4.391 -0.4178 -0.0814  0.1118
  193DOPC  H12R23867  -0.098   1.236   4.417  0.1288  0.9190  1.4210
  193DOPC  H12S23868  -0.251   1.300   4.472  0.9999  2.5369  1.9019
  193DOPC  C21323869  -0.108   1.446   4.397 -1.0423 -0.1667 -0.4687
  193DOPC  H13R23870  -0.164   1.520   4.336 -0.3505  2.2401  1.6315
  193DOPC  H13S23871  -0.004   1.428   4.361  0.5988  1.9182  2.7564
  193DOPC  C21423872  -0.100   1.497   4.541  0.4768  0.6808  0.1358
  193DOPC  H14R23873  -0.060   1.421   4.612  0.3666  2.3783  2.1281
  193DOPC  H14S23874  -0.203   1.514   4.578  0.5531  3.6892 -0.8322
  193DOPC  C21523875  -0.020   1.625   4.542 -0.0876 -0.5701  0.1866
  193DOPC  H15R23876  -0.038   1.686   4.632  0.2320  0.3048 -0.3292
  193DOPC  H15S23877  -0.051   1.686   4.454 -0.3921  0.6102  1.0926
  193DOPC  C21623878   0.128   1.594   4.537 -0.4628 -0.1286  0.1531
  193DOPC  H16R23879   0.159   1.544   4.443  0.0441 -0.8223  0.6724
  193DOPC  H16S23880   0.154   1.527   4.622  0.4558  0.8162  0.6329
  193DOPC  C21723881   0.205   1.723   4.563 -0.5500 -0.1963 -0.1877
  193DOPC  H17R23882   0.163   1.765   4.657 -1.3972 -1.9929  0.2844
  193DOPC  H17S23883   0.183   1.789   4.477  1.5163  2.9432  1.5191
  193DOPC  C21823884   0.350   1.701   4.574 -0.6606  1.0701 -0.7666
  193DOPC  H18R23885   0.382   1.630   4.654  0.0439 -0.1148 -2.0603
  193DOPC  H18S23886   0.420   1.786   4.570  0.6060  0.0334 -1.3663
  193DOPC  H18T23887   0.382   1.646   4.483 -0.6617  0.8584 -0.6390
  193DOPC   C3323888   0.062   1.512   3.612 -0.8536  1.0401  0.2581
  193DOPC   H3X23889   0.111   1.414   3.632 -0.8906  1.0339  0.3194
  193DOPC   H3Y23890  -0.047   1.501   3.635 -0.6773  0.0977  0.7190
  193DOPC   C3423891   0.123   1.618   3.703  0.6444  0.3000  0.1370
  193DOPC   H4X23892   0.057   1.707   3.706  0.2073 -0.0561  2.0622
  193DOPC   H4Y23893   0.223   1.644   3.663  0.8608  0.2841  0.6686
  193DOPC   C3523894   0.142   1.577   3.849  0.0467 -0.3040  0.5736
  193DOPC   H5X23895   0.225   1.503   3.852  0.3695  0.0304  0.0390
  193DOPC   H5Y23896   0.047   1.536   3.888  0.1285 -2.7290 -1.4601
  193DOPC   C3623897   0.166   1.691   3.944  0.7207 -0.0214  0.1889
  193DOPC   H6X23898   0.262   1.735   3.908  1.3601 -1.5380 -0.0388
  193DOPC   H6Y23899   0.082   1.763   3.939  1.2855  0.7785  1.6896
  193DOPC   C3723900   0.182   1.637   4.091 -1.3137 -0.2236 -0.4842
  193DOPC   H7X23901   0.098   1.576   4.129 -1.9560  0.4584 -0.7846
  193DOPC   H7Y23902   0.274   1.574   4.093 -0.8203  0.4710  1.4907
  193DOPC   C3823903   0.218   1.738   4.203 -0.0412  0.2689 -0.0746
  193DOPC   H8X23904   0.251   1.687   4.296 -0.2974  1.3239  0.6163
  193DOPC   H8Y23905   0.126   1.789   4.237  0.3607 -0.3919  2.1952
  193DOPC   C3923906   0.326   1.837   4.167  0.5891 -0.5720 -0.0845
  193DOPC   H9X23907   0.395   1.804   4.089 -0.1886  1.2842 -1.6567
  193DOPC  C31023908   0.318   1.972   4.196  0.2133  0.6166 -0.1074
  193DOPC  H10X23909   0.387   2.037   4.140 -1.1525  2.4380  0.2280
  193DOPC  C31123910   0.214   2.056   4.271 -0.2201 -0.2063  0.0302
  193DOPC  H11X23911   0.252   2.107   4.363 -1.2155  1.0358 -0.2222
  193DOPC  H11Y23912   0.128   1.992   4.298 -0.1715  0.3372  1.6195
  193DOPC  C31223913   0.165   2.182   4.188  0.1477  0.3649  0.0977
  193DOPC  H12X23914   0.082   2.142   4.126  0.6113  0.8564 -0.8588
  193DOPC  H12Y23915   0.250   2.213   4.124  1.4489 -1.4331  0.8661
  193DOPC  C31323916   0.114   2.296   4.279  0.5225  0.2456  0.8857
  193DOPC  H13X23917   0.035   2.244   4.338 -0.8409  1.4958  0.2228
  193DOPC  H13Y23918   0.188   2.329   4.355  0.7482  0.6234  0.5043
  193DOPC  C31423919   0.067   2.418   4.196 -0.1992 -0.2786 -0.8856
  193DOPC  H14X23920   0.144   2.468   4.134 -1.6744  2.1519 -0.8643
  193DOPC  H14Y23921  -0.024   2.392   4.137 -0.8570 -2.4697  0.9374
  193DOPC  C31523922   0.018   2.532   4.287  0.0974  0.3454 -0.3904
  193DOPC  H15X23923   0.115   2.572   4.324  1.2553 -1.7374 -1.0083
  193DOPC  H15Y23924  -0.049   2.493   4.367  0.8957  0.1591  0.1910
  193DOPC  C31623925  -0.061   2.639   4.211 -0.6878  0.1155 -0.6363
  193DOPC  H16X23926   0.020   2.679   4.146  0.1034 -2.0841 -1.0926
  193DOPC  H16Y23927  -0.124   2.579   4.142 -2.6931  1.3972  0.0026
  193DOPC  C31723928  -0.140   2.741   4.287  0.0175 -0.6899  0.6591
  193DOPC  H17X23929  -0.233   2.712   4.341 -0.5717 -0.9201 -0.4701
  193DOPC  H17Y23930  -0.069   2.787   4.359 -0.0456  0.9428 -0.2767
  193DOPC  C31823931  -0.175   2.862   4.204  0.4114 -1.0948 -0.0653
  193DOPC  H18X23932  -0.193   2.953   4.265  2.1845 -0.6410 -0.1579
  193DOPC  H18Y23933  -0.104   2.887   4.122 -0.3054 -0.3753 -0.4846
  193DOPC  H18Z23934  -0.272   2.838   4.157  0.5174 -1.7647  0.0479
  194DOPC     N23935   2.575   0.270   2.636 -0.0182  1.0277 -0.3276
  194DOPC   C1223936   2.450   0.272   2.722  0.3462  0.4434  0.1439
  194DOPC  H12A23937   2.478   0.257   2.825 -1.4587 -1.4638  0.4254
  194DOPC  H12B23938   2.382   0.191   2.700 -0.3109  0.4908  1.8224
  194DOPC   C1323939   2.663   0.388   2.655 -0.1826 -0.0177 -0.4452
  194DOPC  H13A23940   2.697   0.384   2.757 -0.3671 -0.1881 -0.3910
  194DOPC  H13B23941   2.749   0.388   2.590 -0.6548  3.3795 -1.3005
  194DOPC  H13C23942   2.615   0.484   2.637  2.2056  1.0377 -1.5286
  194DOPC   C1423943   2.526   0.269   2.501  0.0376  0.4338  0.1266
  194DOPC  H14A23944   2.599   0.291   2.425  1.3022  1.0660  1.4602
  194DOPC  H14B23945   2.476   0.177   2.473 -0.0246  0.7450 -0.8198
  194DOPC  H14C23946   2.456   0.349   2.485  2.5170  2.4705 -1.3184
  194DOPC   C1523947   2.658   0.154   2.668  0.1232  0.0046 -0.6801
  194DOPC  H15A23948   2.598   0.065   2.678 -0.4288  0.4277 -0.1598
  194DOPC  H15B23949   2.710   0.173   2.761 -0.3749 -0.7392 -0.2422
  194DOPC  H15C23950   2.731   0.137   2.590 -0.1234  2.0309 -1.4223
  194DOPC   C1123951   2.353   0.396   2.710 -0.8350  0.6734 -0.0743
  194DOPC  H11A23952   2.286   0.398   2.799 -1.1482  0.5445 -0.3045
  194DOPC  H11B23953   2.425   0.480   2.708 -0.1802  0.1282 -2.6616
  194DOPC     P23954   2.139   0.456   2.571  0.3488  0.3757 -0.1122
  194DOPC   O1323955   2.065   0.396   2.459  0.6967  0.0402  0.5833
  194DOPC   O1423956   2.149   0.602   2.561 -0.2749  0.1270  0.1138
  194DOPC   O1223957   2.287   0.395   2.587  0.0066 -0.4329 -0.2355
  194DOPC   O1123958   2.064   0.420   2.708 -0.1015 -0.8231  0.2289
  194DOPC    C123959   2.049   0.284   2.740  0.8492 -0.1888 -0.0080
  194DOPC    HA23960   2.141   0.223   2.742  0.9250 -0.1389  3.1400
  194DOPC    HB23961   1.981   0.242   2.663  3.7999 -0.7948 -2.4411
  194DOPC    C223962   1.983   0.271   2.883 -0.0842  0.2409  0.2114
  194DOPC    HS23963   1.878   0.308   2.879 -0.1288  0.0513 -2.9338
  194DOPC   O2123964   2.077   0.332   2.973  0.0386 -0.3658  0.7615
  194DOPC   C2123965   2.019   0.394   3.077 -0.3996 -0.3161  1.0003
  194DOPC   O2223966   1.900   0.388   3.103 -0.6475 -0.2735  0.3068
  194DOPC   C2223967   2.136   0.475   3.131 -0.1568 -0.3800 -0.2210
  194DOPC   H2R23968   2.174   0.552   3.060  2.3686  0.0309  1.4745
  194DOPC   H2S23969   2.218   0.407   3.161  0.4277 -0.3878 -1.7340
  194DOPC    C323970   1.968   0.123   2.919 -0.5800 -0.6761  0.2916
  194DOPC    HX23971   2.069   0.080   2.934 -1.1675 -1.1954  3.2519
  194DOPC    HY23972   1.911   0.074   2.837  0.7460  2.0910 -2.5100
  194DOPC   O3123973   1.901   0.106   3.042  0.8030 -0.3373  0.0531
  194DOPC   C3123974   1.897  -0.015   3.085  0.3394  0.3847  0.1556
  194DOPC   O3223975   1.939  -0.117   3.031 -0.0161 -0.4284 -0.3536
  194DOPC   C3223976   1.833  -0.020   3.219 -0.6092 -0.7428  0.1694
  194DOPC   H2X23977   1.905   0.039   3.280 -1.6228  2.3179 -1.3808
  194DOPC   H2Y23978   1.736   0.034   3.208 -0.4269 -0.5826 -0.7305
  194DOPC   C2323979   2.086   0.558   3.252 -0.3013 -0.3188  0.4080
  194DOPC   H3R23980   1.985   0.602   3.239 -0.2020  0.3281  1.6509
  194DOPC   H3S23981   2.153   0.645   3.265 -0.0995 -0.3861 -0.1495
  194DOPC   C2423982   2.088   0.476   3.383 -0.6152  0.9871  0.0358
  194DOPC   H4R23983   2.176   0.408   3.390 -0.5953  1.0120  0.0244
  194DOPC   H4S23984   2.004   0.403   3.378 -0.7163  0.9895  1.3071
  194DOPC   C2523985   2.083   0.551   3.518  0.6444 -0.0149 -0.7485
  194DOPC   H5R23986   2.031   0.484   3.590 -0.7163  0.8390 -0.9048
  194DOPC   H5S23987   2.011   0.634   3.502  1.2098  0.4331 -1.0355
  194DOPC   C2623988   2.214   0.599   3.588 -0.2515  0.3346  0.5699
  194DOPC   H6R23989   2.275   0.643   3.506  1.5454 -1.2512  0.9901
  194DOPC   H6S23990   2.267   0.510   3.627 -0.2824  0.9478  2.0440
  194DOPC   C2723991   2.186   0.696   3.700 -0.3452  0.0252 -0.3062
  194DOPC   H7R23992   2.078   0.718   3.715 -0.1760  0.4119  0.3479
  194DOPC   H7S23993   2.212   0.797   3.661  1.2040  0.3105  1.3892
  194DOPC   C2823994   2.250   0.667   3.841  0.2798  0.2001 -0.3213
  194DOPC   H8R23995   2.224   0.745   3.915 -0.7929 -1.1008  0.7095
  194DOPC   H8S23996   2.361   0.659   3.828  0.6445 -0.4104  2.6046
  194DOPC   C2923997   2.194   0.538   3.898  0.3004 -0.0152  0.4046
  194DOPC   H9R23998   2.093   0.511   3.863 -0.5277 -0.8255  3.1662
  194DOPC  C21023999   2.245   0.475   4.004 -0.5882 -0.0658 -0.5474
  194DOPC  H10R24000   2.204   0.380   4.041  1.7971 -0.1143  2.2676
  194DOPC  C21124001   2.372   0.519   4.072  0.3775  0.4945  0.0078
  194DOPC  H11R24002   2.352   0.554   4.176  4.1885 -0.3418  1.1769
  194DOPC  H11S24003   2.408   0.611   4.021 -2.7534  1.2441 -1.0274
  194DOPC  C21224004   2.480   0.414   4.064 -0.5138 -0.4471  0.4037
  194DOPC  H12R24005   2.574   0.458   4.104 -0.0235  0.5005 -1.6401
  194DOPC  H12S24006   2.500   0.398   3.955  0.7967  0.0555  0.5561
  194DOPC  C21324007   2.435   0.284   4.128  1.0489  0.8812 -0.0137
  194DOPC  H13R24008   2.383   0.222   4.053 -1.3199  1.9116  0.6706
  194DOPC  H13S24009   2.352   0.305   4.198  0.9800  0.9292 -0.1093
  194DOPC  C21424010   2.538   0.204   4.204 -1.2006  0.2896 -0.1571
  194DOPC  H14R24011   2.580   0.287   4.264 -1.5183 -0.0221  0.4980
  194DOPC  H14S24012   2.618   0.170   4.134 -1.7995 -1.2537 -0.1302
  194DOPC  C21524013   2.495   0.086   4.292  0.2022  0.1067 -0.1098
  194DOPC  H15R24014   2.451   0.008   4.225  0.9622  0.7796 -1.4174
  194DOPC  H15S24015   2.414   0.129   4.355  0.2653  1.4151 -0.8981
  194DOPC  C21624016   2.620   0.036   4.371 -0.2888 -0.2367  1.1471
  194DOPC  H16R24017   2.659   0.124   4.427  3.1410 -0.3373 -0.8157
  194DOPC  H16S24018   2.692   0.002   4.294 -1.1322  1.2887 -0.3900
  194DOPC  C21724019   2.588  -0.067   4.478 -0.7254 -0.4706  0.1635
  194DOPC  H17R24020   2.539  -0.150   4.422  1.0145 -0.2390 -1.8350
  194DOPC  H17S24021   2.527  -0.021   4.558  0.8270  1.1356  0.4854
  194DOPC  C21824022   2.717  -0.121   4.542  0.2377 -0.3974  0.3020
  194DOPC  H18R24023   2.772  -0.179   4.465  0.2057  0.1448 -0.1280
  194DOPC  H18S24024   2.699  -0.167   4.642 -0.4017  2.1051  1.4212
  194DOPC  H18T24025   2.780  -0.031   4.556  1.1944 -0.8688 -0.7998
  194DOPC   C3324026   1.828  -0.156   3.290  0.2622 -0.3230 -0.5179
  194DOPC   H3X24027   1.934  -0.185   3.305  1.1167  2.0880 -1.3560
  194DOPC   H3Y24028   1.788  -0.233   3.222 -2.2780  0.5502 -0.1048
  194DOPC   C3424029   1.726  -0.160   3.415 -0.0408  0.6584  0.4488
  194DOPC   H4X24030   1.739  -0.257   3.467  0.5288 -0.5682 -1.8368
  194DOPC   H4Y24031   1.623  -0.161   3.372  0.6609 -1.1328 -1.3331
  194DOPC   C3524032   1.730  -0.043   3.510 -0.1044 -0.3907 -0.0482
  194DOPC   H5X24033   1.718   0.047   3.446  4.1771 -0.3359 -1.0932
  194DOPC   H5Y24034   1.836  -0.042   3.544 -0.0307 -0.7994 -0.2548
  194DOPC   C3624035   1.633  -0.059   3.622  0.4920  0.8569  0.2997
  194DOPC   H6X24036   1.615   0.032   3.683 -1.3605 -0.4381  1.8113
  194DOPC   H6Y24037   1.531  -0.087   3.588 -0.0617  0.5502  2.1079
  194DOPC   C3724038   1.684  -0.168   3.722 -0.2374  0.6016 -0.8616
  194DOPC   H7X24039   1.693  -0.264   3.667  1.8867  0.3665 -0.1821
  194DOPC   H7Y24040   1.786  -0.141   3.758 -0.8605  0.2812  1.2502
  194DOPC   C3824041   1.593  -0.173   3.842  0.3758  0.4069  0.0538
  194DOPC   H8X24042   1.486  -0.192   3.823  0.7113  0.8414 -2.5074
  194DOPC   H8Y24043   1.596  -0.074   3.891 -1.2720 -0.0269  1.1212
  194DOPC   C3924044   1.638  -0.271   3.951  0.6328 -0.0597  0.5791
  194DOPC   H9X24045   1.733  -0.237   3.996  0.4044  1.1052  0.1994
  194DOPC  C31024046   1.583  -0.387   3.996 -0.3826 -0.1450  0.1819
  194DOPC  H10X24047   1.636  -0.436   4.079 -3.2070 -2.1399  0.9405
  194DOPC  C31124048   1.466  -0.473   3.955 -0.0099 -0.4123 -0.4322
  194DOPC  H11X24049   1.495  -0.552   3.882 -1.6057 -1.4998  0.0664
  194DOPC  H11Y24050   1.389  -0.410   3.905 -1.2739  0.7346  2.7475
  194DOPC  C31224051   1.403  -0.542   4.079 -0.5976 -0.5139 -0.0397
  194DOPC  H12X24052   1.363  -0.472   4.156  1.5151  0.5378  0.1852
  194DOPC  H12Y24053   1.480  -0.593   4.140 -1.1260 -1.8195 -0.4196
  194DOPC  C31324054   1.299  -0.649   4.034  0.5215  0.2225 -0.3184
  194DOPC  H13X24055   1.232  -0.607   3.956 -1.2288 -5.4535 -2.4050
  194DOPC  H13Y24056   1.365  -0.734   4.005 -0.7700 -1.5731  1.6801
  194DOPC  C31424057   1.230  -0.694   4.158  1.3227  0.2057 -0.6760
  194DOPC  H14X24058   1.300  -0.748   4.224 -2.2325  0.7794  4.1533
  194DOPC  H14Y24059   1.184  -0.609   4.213  0.2823 -1.3430  0.9337
  194DOPC  C31524060   1.121  -0.797   4.127 -0.1207 -0.1560  0.8103
  194DOPC  H15X24061   1.164  -0.853   4.041  1.1701  0.3433  1.1093
  194DOPC  H15Y24062   1.033  -0.745   4.084 -0.3222 -0.7581  0.4833
  194DOPC  C31624063   1.084  -0.889   4.247 -0.0847 -0.0865  0.5828
  194DOPC  H16X24064   1.003  -0.948   4.199 -1.5145  1.1773  1.3473
  194DOPC  H16Y24065   1.169  -0.959   4.260  0.2949 -0.3322 -2.4248
  194DOPC  C31724066   1.038  -0.825   4.376  1.2394  0.2140 -0.1042
  194DOPC  H17X24067   0.996  -0.724   4.359  0.1839  0.3236  2.6087
  194DOPC  H17Y24068   0.965  -0.894   4.424 -0.0366  0.2138 -1.9393
  194DOPC  C31824069   1.149  -0.794   4.481 -0.6256  0.5029 -0.1188
  194DOPC  H18X24070   1.219  -0.725   4.431  1.4947 -1.4610 -0.0414
  194DOPC  H18Y24071   1.105  -0.752   4.574  0.5738 -0.4953  0.9468
  194DOPC  H18Z24072   1.205  -0.888   4.502 -2.0008  0.0812  2.0205
  195DOPC     N24073   5.432   0.970   2.327 -0.5542  0.4534  0.1777
  195DOPC   C1224074   5.529   0.878   2.405  0.0750 -0.7102  0.1801
  195DOPC  H12A24075   5.622   0.929   2.425 -0.8736  0.6880  1.2168
  195DOPC  H12B24076   5.549   0.792   2.344  1.3228 -0.4676  0.2242
  195DOPC   C1324077   5.309   0.891   2.304 -0.2154  0.0728 -0.6871
  195DOPC  H13A24078   5.327   0.797   2.254 -1.4247 -1.0520  0.8719
  195DOPC  H13B24079   5.264   0.868   2.400 -2.0524  3.0195 -0.7063
  195DOPC  H13C24080   5.236   0.954   2.255  1.5459  2.9747  0.1937
  195DOPC   C1424081   5.479   0.995   2.185  0.5584  0.7097  0.1784
  195DOPC  H14A24082   5.399   1.038   2.127 -0.5928 -0.5161  0.8257
  195DOPC  H14B24083   5.564   1.061   2.199  1.6548 -1.0921  2.9045
  195DOPC  H14C24084   5.512   0.902   2.141 -3.2781 -0.2733 -0.9657
  195DOPC   C1524085   5.401   1.095   2.389  0.0774  0.0690  0.2241
  195DOPC  H15A24086   5.469   1.179   2.390 -0.9445  0.9722  2.3553
  195DOPC  H15B24087   5.368   1.084   2.492 -3.2825  1.6384 -0.5351
  195DOPC  H15C24088   5.322   1.148   2.338 -0.9905  0.1994  1.9381
  195DOPC   C1124089   5.490   0.824   2.548  0.5631 -0.3261 -0.6775
  195DOPC  H11A24090   5.383   0.794   2.545 -0.2412  2.2192 -0.0239
  195DOPC  H11B24091   5.558   0.742   2.580 -1.6681 -2.6319 -1.4765
  195DOPC     P24092   5.598   1.013   2.699  0.2608 -0.3950 -0.4177
  195DOPC   O1324093   5.549   1.144   2.734 -0.2939 -0.3697 -0.6157
  195DOPC   O1424094   5.697   1.012   2.592 -0.5305  0.2133 -0.9510
  195DOPC   O1224095   5.477   0.938   2.643  0.1007  0.2441  0.4794
  195DOPC   O1124096   5.654   0.933   2.820 -0.0825 -0.5723  0.5066
  195DOPC    C124097   5.602   0.954   2.955 -0.3842 -0.1511  0.2526
  195DOPC    HA24098   5.627   1.061   2.971 -2.7943  0.3345  1.1941
  195DOPC    HB24099   5.655   0.891   3.031  0.5109  1.8928  1.4058
  195DOPC    C224100   5.445   0.942   2.962 -0.8197  0.3671  1.0480
  195DOPC    HS24101   5.407   1.001   2.876  1.4222  0.4146  0.0313
  195DOPC   O2124102   5.393   1.011   3.082 -0.2775  0.6784 -0.2312
  195DOPC   C2124103   5.264   1.037   3.080  1.0041 -0.7199 -0.0714
  195DOPC   O2224104   5.183   1.012   2.989  0.1936  0.1681 -0.1375
  195DOPC   C2224105   5.231   1.108   3.216  0.5405 -0.5212 -0.2188
  195DOPC   H2R24106   5.298   1.196   3.217  2.2150 -1.7350  0.8880
  195DOPC   H2S24107   5.269   1.041   3.297  1.0884 -0.8194 -0.7150
  195DOPC    C324108   5.391   0.796   2.949  0.4512  0.8074  0.5326
  195DOPC    HX24109   5.455   0.748   2.873 -0.9612  0.0609 -0.2189
  195DOPC    HY24110   5.284   0.802   2.922 -0.1024 -3.5256  1.0632
  195DOPC   O3124111   5.403   0.725   3.077  0.7520  0.6837  0.7478
  195DOPC   C3124112   5.330   0.620   3.079  0.6678  0.4889  0.2398
  195DOPC   O3224113   5.256   0.575   2.996 -0.1430  0.0692  0.1538
  195DOPC   C3224114   5.340   0.552   3.218 -0.0314  0.0370  0.5422
  195DOPC   H2X24115   5.252   0.491   3.248 -2.0789  1.8462 -1.4727
  195DOPC   H2Y24116   5.429   0.486   3.202  1.0771  1.4838  0.5650
  195DOPC   C2324117   5.087   1.154   3.251 -0.3119 -0.5145 -0.1252
  195DOPC   H3R24118   5.010   1.074   3.254 -1.5148  0.4177 -2.5788
  195DOPC   H3S24119   5.041   1.205   3.163 -0.3947 -1.1325 -0.4476
  195DOPC   C2424120   5.079   1.239   3.369 -0.4710 -0.1447  0.2596
  195DOPC   H4R24121   5.133   1.336   3.360  0.6249 -0.7093  0.6766
  195DOPC   H4S24122   5.126   1.195   3.459 -2.0179  0.2255  1.3046
  195DOPC   C2524123   4.924   1.267   3.404  0.1682 -0.0405 -0.0774
  195DOPC   H5R24124   4.880   1.165   3.408 -0.5260  0.2110 -1.0096
  195DOPC   H5S24125   4.883   1.324   3.319 -1.2803  0.7329  1.0983
  195DOPC   C2624126   4.895   1.342   3.539  0.1042  0.1681 -0.1489
  195DOPC   H6R24127   4.901   1.452   3.522  0.5484  0.1279 -0.2557
  195DOPC   H6S24128   4.985   1.324   3.601  0.6039 -0.0659 -0.9312
  195DOPC   C2724129   4.765   1.299   3.592  0.8303  0.6065  0.5278
  195DOPC   H7R24130   4.759   1.189   3.612  1.3003 -0.0383 -2.3676
  195DOPC   H7S24131   4.703   1.310   3.501  3.0830 -2.2044 -1.5470
  195DOPC   C2824132   4.719   1.381   3.714 -0.6316  0.3527 -0.2042
  195DOPC   H8R24133   4.728   1.487   3.683  1.5845  0.0386 -0.8226
  195DOPC   H8S24134   4.794   1.357   3.792 -1.4450  0.0545  0.5017
  195DOPC   C2924135   4.581   1.347   3.747 -0.0168  0.4235  0.7454
  195DOPC   H9R24136   4.517   1.400   3.675 -0.1713 -1.9084 -0.9395
  195DOPC  C21024137   4.532   1.287   3.860  0.3501  0.2006  0.4801
  195DOPC  H10R24138   4.423   1.278   3.857  0.1830  1.7626 -2.9406
  195DOPC  C21124139   4.616   1.222   3.968 -1.0093 -0.0423  0.2022
  195DOPC  H11R24140   4.719   1.215   3.926 -0.6347 -1.9487  1.3325
  195DOPC  H11S24141   4.579   1.117   3.970  1.0343 -0.7922  1.7177
  195DOPC  C21224142   4.639   1.292   4.105  0.1241 -0.2971  0.1918
  195DOPC  H12R24143   4.678   1.209   4.168  1.6148 -0.3147 -0.7092
  195DOPC  H12S24144   4.543   1.330   4.146 -0.4852 -1.1372 -0.4273
  195DOPC  C21324145   4.748   1.401   4.103 -0.2162  0.0495 -0.1486
  195DOPC  H13R24146   4.730   1.479   4.026  0.2402 -1.1345 -1.5242
  195DOPC  H13S24147   4.847   1.358   4.075 -0.8163  0.0754 -2.5734
  195DOPC  C21424148   4.771   1.457   4.245 -0.3154  0.6725 -0.5974
  195DOPC  H14R24149   4.865   1.516   4.241 -0.8061  1.6133  0.7973
  195DOPC  H14S24150   4.772   1.376   4.320  1.6107 -1.6047 -2.9084
  195DOPC  C21524151   4.661   1.555   4.303 -0.4116 -0.0996 -0.4802
  195DOPC  H15R24152   4.567   1.495   4.298  0.9520 -2.4311  0.2298
  195DOPC  H15S24153   4.657   1.647   4.242  1.2732  0.6614  0.4807
  195DOPC  C21624154   4.693   1.606   4.447 -0.1880 -0.1025 -0.4006
  195DOPC  H16R24155   4.778   1.676   4.433 -1.3892  1.8039  1.2744
  195DOPC  H16S24156   4.731   1.521   4.507  0.3851  0.1838 -0.3554
  195DOPC  C21724157   4.567   1.671   4.518  0.4065 -0.2418 -0.3779
  195DOPC  H17R24158   4.509   1.740   4.453 -1.3133 -1.0725  0.2188
  195DOPC  H17S24159   4.600   1.716   4.614 -0.8447 -1.1632  0.5273
  195DOPC  C21824160   4.459   1.564   4.552  0.1834 -0.4337 -0.3275
  195DOPC  H18R24161   4.376   1.601   4.616  0.7080 -0.2472  0.2505
  195DOPC  H18S24162   4.512   1.478   4.599  0.4312 -0.3839 -0.5149
  195DOPC  H18T24163   4.420   1.521   4.457  0.5274  0.1985 -0.7623
  195DOPC   C3324164   5.382   0.650   3.336  0.2648  0.3997 -0.5361
  195DOPC   H3X24165   5.454   0.728   3.304  1.8324 -1.3052 -1.3512
  195DOPC   H3Y24166   5.432   0.584   3.410 -1.7032 -0.3831  0.1781
  195DOPC   C3424167   5.262   0.712   3.405  0.4279 -0.3152  0.1488
  195DOPC   H4X24168   5.203   0.629   3.451  0.0569  0.8873  1.9660
  195DOPC   H4Y24169   5.207   0.768   3.327  2.1702  0.5460 -0.5225
  195DOPC   C3524170   5.308   0.807   3.524 -0.1469  0.1591 -0.6783
  195DOPC   H5X24171   5.375   0.888   3.487  1.5939 -0.3178  1.2661
  195DOPC   H5Y24172   5.363   0.747   3.599 -0.2179  1.5583  0.5284
  195DOPC   C3624173   5.181   0.878   3.579 -0.3345  0.4204  0.6976
  195DOPC   H6X24174   5.109   0.917   3.505  0.9046 -1.1725 -1.4496
  195DOPC   H6Y24175   5.127   0.796   3.631  0.8008 -1.3644 -0.8173
  195DOPC   C3724176   5.212   0.987   3.677  0.1464 -0.0828 -0.6453
  195DOPC   H7X24177   5.274   0.938   3.755 -0.3682 -1.5606 -1.1417
  195DOPC   H7Y24178   5.272   1.067   3.630  0.1170  1.0730  1.1465
  195DOPC   C3824179   5.088   1.043   3.746  0.1082  0.0065  0.5626
  195DOPC   H8X24180   5.031   0.975   3.812  1.2226  1.4607  3.1576
  195DOPC   H8Y24181   5.012   1.073   3.670 -1.1471 -2.8626  0.5458
  195DOPC   C3924182   5.123   1.160   3.833  0.1797 -0.3696  0.2369
  195DOPC   H9X24183   5.159   1.245   3.773  1.7038  0.9614  2.8939
  195DOPC  C31024184   5.129   1.173   3.965  0.8042  0.4503  0.4867
  195DOPC  H10X24185   5.139   1.274   4.008 -0.8065  1.3151 -0.9794
  195DOPC  C31124186   5.091   1.060   4.056 -0.5541  0.5632  0.0999
  195DOPC  H11X24187   5.086   0.954   4.024  0.8445 -0.4939  3.0604
  195DOPC  H11Y24188   4.993   1.096   4.093 -1.2318 -2.4805  1.5307
  195DOPC  C31224189   5.190   1.053   4.180 -0.2866 -0.3440  0.2197
  195DOPC  H12X24190   5.288   1.025   4.135 -0.5535 -0.5684 -0.2322
  195DOPC  H12Y24191   5.152   0.975   4.250  0.1401  0.0409  0.9007
  195DOPC  C31324192   5.199   1.187   4.259  0.3058  0.0201  0.1420
  195DOPC  H13X24193   5.271   1.257   4.212  0.7819  1.0536  2.2676
  195DOPC  H13Y24194   5.098   1.232   4.261 -0.3575 -1.4131  0.0109
  195DOPC  C31424195   5.239   1.180   4.412 -0.4705 -0.2158  0.4519
  195DOPC  H14X24196   5.173   1.101   4.451 -0.5150  0.0841  0.9927
  195DOPC  H14Y24197   5.343   1.146   4.430 -0.8363 -0.3642  2.4693
  195DOPC  C31524198   5.228   1.317   4.480 -0.3712 -0.7204 -0.0260
  195DOPC  H15X24199   5.131   1.363   4.451 -0.6111 -0.4469  1.1657
  195DOPC  H15Y24200   5.306   1.387   4.443  0.6425 -0.3667  2.5439
  195DOPC  C31624201   5.223   1.322   4.631 -0.5149 -0.0219  0.1005
  195DOPC  H16X24202   5.143   1.259   4.676  1.1743 -1.2194  1.5486
  195DOPC  H16Y24203   5.318   1.282   4.673 -0.1579 -0.3596 -1.0011
  195DOPC  C31724204   5.204   1.468   4.694  0.2119  1.1016 -0.4547
  195DOPC  H17X24205   5.221   1.463   4.804  0.4663 -0.0248 -0.5357
  195DOPC  H17Y24206   5.287   1.529   4.651  4.5422 -3.2500  0.8065
  195DOPC  C31824207   5.070   1.538   4.677  0.0652  0.1957 -0.2035
  195DOPC  H18X24208   5.040   1.540   4.571  0.2847 -0.8053 -0.2925
  195DOPC  H18Y24209   4.982   1.496   4.731 -1.7594  3.0250 -0.7663
  195DOPC  H18Z24210   5.074   1.641   4.720 -2.1282 -0.1468  0.9482
  196DOPC     N24211   0.594   2.785   2.345  0.0849 -0.0912  0.3755
  196DOPC   C1224212   0.659   2.830   2.464  0.4098  0.8232  0.1521
  196DOPC  H12A24213   0.668   2.937   2.456 -0.5595  0.9126  0.1651
  196DOPC  H12B24214   0.761   2.796   2.475  0.5435  1.4925  1.0944
  196DOPC   C1324215   0.692   2.832   2.230  0.3206  0.4737 -0.4373
  196DOPC  H13A24216   0.715   2.937   2.232  1.3924  0.2397  0.2628
  196DOPC  H13B24217   0.783   2.774   2.235 -0.5614 -0.9233 -0.0571
  196DOPC  H13C24218   0.661   2.805   2.130  0.7444  1.1857 -0.7653
  196DOPC   C1424219   0.467   2.859   2.320  0.6101  0.0837  0.4328
  196DOPC  H14A24220   0.482   2.966   2.320  1.9490 -0.0185 -2.0720
  196DOPC  H14B24221   0.424   2.837   2.223  1.7500 -1.2009  0.1828
  196DOPC  H14C24222   0.389   2.836   2.391  0.6381  0.1672  0.4917
  196DOPC   C1524223   0.570   2.633   2.342 -0.0357 -0.1637 -0.0927
  196DOPC  H15A24224   0.660   2.577   2.364 -0.3832 -0.5429  0.3700
  196DOPC  H15B24225   0.529   2.600   2.248  0.8144 -3.3689  0.5595
  196DOPC  H15C24226   0.506   2.613   2.426  2.3566 -3.2601  1.1768
  196DOPC   C1124227   0.578   2.784   2.599 -0.6277 -0.5122 -0.3970
  196DOPC  H11A24228   0.558   2.675   2.596 -1.3102 -0.4094 -3.1965
  196DOPC  H11B24229   0.659   2.798   2.673 -0.5991 -1.5828 -0.2170
  196DOPC     P24230   0.448   2.919   2.771  0.0632  0.2318 -0.5822
  196DOPC   O1324231   0.312   2.973   2.790 -0.2744  0.8143 -0.1247
  196DOPC   O1424232   0.557   3.019   2.778 -0.4359  0.0810 -0.1753
  196DOPC   O1224233   0.465   2.853   2.629  0.2026  0.0023 -0.3163
  196DOPC   O1124234   0.481   2.805   2.881  0.1923  0.4939 -0.0977
  196DOPC    C124235   0.400   2.686   2.917 -0.9838 -0.9323 -0.2530
  196DOPC    HA24236   0.453   2.592   2.890 -1.4428 -1.7947  1.6724
  196DOPC    HB24237   0.298   2.688   2.872 -2.0656 -0.2762  2.0428
  196DOPC    C224238   0.370   2.683   3.070  0.4266  0.7413 -0.4651
  196DOPC    HS24239   0.307   2.775   3.074  2.4913  2.2217 -0.2621
  196DOPC   O2124240   0.483   2.685   3.150  0.2094  0.1430  0.3891
  196DOPC   C2124241   0.473   2.761   3.256 -0.7503  0.9595  0.7396
  196DOPC   O2224242   0.391   2.842   3.287  0.8153 -0.8669  0.0989
  196DOPC   C2224243   0.608   2.734   3.326 -0.4855 -0.1551  0.3002
  196DOPC   H2R24244   0.692   2.748   3.254  0.8481  0.8637  2.0040
  196DOPC   H2S24245   0.604   2.623   3.334  0.9740 -0.4430 -1.9533
  196DOPC    C324246   0.289   2.554   3.106 -0.4267 -0.3759 -0.1713
  196DOPC    HX24247   0.354   2.465   3.114  0.1088  0.1009  0.9459
  196DOPC    HY24248   0.218   2.536   3.023 -1.8319 -0.5459  1.0211
  196DOPC   O3124249   0.223   2.578   3.234  0.3763  0.0817  0.3358
  196DOPC   C3124250   0.180   2.464   3.297  0.2400  0.4601  0.2791
  196DOPC   O3224251   0.181   2.354   3.246  0.2227 -0.3536 -0.5470
  196DOPC   C3224252   0.130   2.497   3.437  0.0934 -0.4309  0.7446
  196DOPC   H2X24253   0.164   2.597   3.469 -0.8331 -0.1556  0.9128
  196DOPC   H2Y24254   0.019   2.490   3.435  0.1857 -2.2641  0.0346
  196DOPC   C2324255   0.613   2.793   3.465  0.4298  0.3447  0.0197
  196DOPC   H3R24256   0.585   2.900   3.472  0.5844  0.4473 -0.8274
  196DOPC   H3S24257   0.714   2.787   3.510  0.4009 -1.0868 -0.0449
  196DOPC   C2424258   0.518   2.716   3.571 -0.3545 -0.1787 -0.1700
  196DOPC   H4R24259   0.427   2.679   3.519  0.3311 -0.2756 -1.3557
  196DOPC   H4S24260   0.476   2.788   3.643 -0.9784 -1.1335  0.4500
  196DOPC   C2524261   0.584   2.606   3.652 -0.4170 -0.0070  0.1910
  196DOPC   H5R24262   0.680   2.642   3.696 -0.0559  2.3724 -2.2821
  196DOPC   H5S24263   0.607   2.532   3.572  0.3511  1.7768 -1.3076
  196DOPC   C2624264   0.494   2.544   3.759 -0.5696  0.4695 -0.4581
  196DOPC   H6R24265   0.421   2.474   3.713  0.5193 -0.5729 -0.6518
  196DOPC   H6S24266   0.432   2.614   3.820 -2.0970 -0.1462 -1.2694
  196DOPC   C2724267   0.589   2.476   3.857  0.5337 -0.3808 -0.8811
  196DOPC   H7R24268   0.661   2.552   3.893 -1.2893  0.9077  0.2324
  196DOPC   H7S24269   0.627   2.378   3.820  1.0613 -0.9405  1.0092
  196DOPC   C2824270   0.523   2.427   3.995 -0.4187  0.9794  0.5726
  196DOPC   H8R24271   0.445   2.354   3.964  0.7839 -0.0535 -0.1083
  196DOPC   H8S24272   0.468   2.514   4.038  1.2159  3.1796 -1.4760
  196DOPC   C2924273   0.619   2.365   4.088 -0.3911  0.6187 -0.3849
  196DOPC   H9R24274   0.708   2.322   4.041 -0.9466 -1.3299  0.2428
  196DOPC  C21024275   0.628   2.388   4.221  0.0768 -0.4217  0.4671
  196DOPC  H10R24276   0.720   2.354   4.269  0.4569 -1.5731 -1.0304
  196DOPC  C21124277   0.531   2.475   4.308  0.0932  0.4975 -0.0934
  196DOPC  H11R24278   0.448   2.514   4.245  0.8736  2.4525  0.0101
  196DOPC  H11S24279   0.583   2.557   4.363 -0.5918  0.7840  0.1459
  196DOPC  C21224280   0.471   2.391   4.422 -0.3099 -0.1128  0.3971
  196DOPC  H12R24281   0.556   2.331   4.463  0.7827  1.2460  0.1994
  196DOPC  H12S24282   0.395   2.320   4.383  0.7396  0.1466 -2.3849
  196DOPC  C21324283   0.403   2.473   4.527 -0.4571 -0.5458  0.3132
  196DOPC  H13R24284   0.322   2.530   4.475 -1.2872 -0.0403  2.0624
  196DOPC  H13S24285   0.478   2.533   4.583 -0.6890  0.0932 -0.0455
  196DOPC  C21424286   0.317   2.386   4.623 -0.2648 -0.0756 -0.1003
  196DOPC  H14R24287   0.385   2.324   4.685  0.7534  1.3538  0.2743
  196DOPC  H14S24288   0.244   2.327   4.564  0.0666 -0.6939  0.1037
  196DOPC  C21524289   0.232   2.481   4.724 -0.6170  0.0806  0.1326
  196DOPC  H15R24290   0.302   2.563   4.751 -2.5393  2.3904 -1.5079
  196DOPC  H15S24291   0.205   2.423   4.814  1.7168  1.7103  2.0188
  196DOPC  C21624292   0.111   2.540   4.661 -0.0369  0.5208  0.4535
  196DOPC  H16R24293   0.061   2.466   4.594  0.0072 -1.5258  2.5496
  196DOPC  H16S24294   0.144   2.620   4.592  1.1647 -1.2872 -1.1701
  196DOPC  C21724295   0.018   2.593   4.764 -0.6585  0.1888  0.1178
  196DOPC  H17R24296   0.085   2.656   4.826  1.8566 -0.7558 -1.5169
  196DOPC  H17S24297  -0.020   2.514   4.832 -0.1879  1.0412  1.4144
  196DOPC  C21824298  -0.084   2.686   4.705  0.4402 -0.4653  0.8784
  196DOPC  H18R24299  -0.142   2.740   4.783  0.4825  3.0978 -1.3553
  196DOPC  H18S24300  -0.153   2.622   4.646  1.0711 -0.7497  0.4398
  196DOPC  H18T24301  -0.031   2.765   4.649 -1.5148  1.6134  1.7880
  196DOPC   C3324302   0.196   2.400   3.545  0.0544 -0.3499  0.1440
  196DOPC   H3X24303   0.306   2.419   3.547  0.0814 -0.2040 -1.4673
  196DOPC   H3Y24304   0.171   2.302   3.499 -1.9209  0.3843 -0.4448
  196DOPC   C3424305   0.134   2.413   3.682 -0.8661 -0.3786 -0.2949
  196DOPC   H4X24306   0.024   2.412   3.667 -0.8816  0.7265 -0.3540
  196DOPC   H4Y24307   0.164   2.511   3.725 -0.3501 -0.2960 -0.8418
  196DOPC   C3524308   0.184   2.300   3.771  0.2568 -0.3902  0.1602
  196DOPC   H5X24309   0.200   2.345   3.871 -0.8012  0.7202 -0.1505
  196DOPC   H5Y24310   0.281   2.258   3.734 -0.2371  0.0248 -1.6962
  196DOPC   C3624311   0.088   2.176   3.781 -0.1754 -0.5222  0.3203
  196DOPC   H6X24312  -0.001   2.197   3.843 -0.0215 -3.3597  1.6612
  196DOPC   H6Y24313   0.045   2.158   3.680  2.3480 -1.3414 -0.7140
  196DOPC   C3724314   0.147   2.046   3.822  0.3179 -0.3011  0.6356
  196DOPC   H7X24315   0.169   2.052   3.930 -0.3349  0.4619  0.7359
  196DOPC   H7Y24316   0.082   1.960   3.791  0.6037  0.4362 -2.3345
  196DOPC   C3824317   0.290   2.008   3.756 -0.2394 -0.3455 -0.7543
  196DOPC   H8X24318   0.305   1.905   3.795 -1.0762 -1.0632 -2.2450
  196DOPC   H8Y24319   0.366   2.068   3.812 -2.1649 -0.4804  2.2141
  196DOPC   C3924320   0.301   1.995   3.612  0.4528  0.3652  1.0595
  196DOPC   H9X24321   0.228   1.928   3.564 -1.6863  2.3357  1.3883
  196DOPC  C31024322   0.403   2.052   3.539 -0.1480 -0.0024  0.6804
  196DOPC  H10X24323   0.401   2.038   3.431  1.9715 -1.5650  0.7737
  196DOPC  C31124324   0.511   2.140   3.588  0.5922 -0.9595  0.3761
  196DOPC  H11X24325   0.493   2.183   3.689  0.7228 -0.9557  0.3983
  196DOPC  H11Y24326   0.500   2.233   3.528  0.3504 -1.2157  0.0181
  196DOPC  C31224327   0.659   2.082   3.589  0.3938  0.3172  0.4043
  196DOPC  H12X24328   0.739   2.158   3.581 -0.3387  0.9462 -1.4425
  196DOPC  H12Y24329   0.673   2.015   3.501 -0.0758 -1.6130  1.7158
  196DOPC  C31324330   0.683   1.987   3.713  0.1116  0.1591 -0.3368
  196DOPC  H13X24331   0.601   1.913   3.715  0.5531 -0.3538 -0.9370
  196DOPC  H13Y24332   0.784   1.942   3.702 -0.4888 -1.2338 -0.3491
  196DOPC  C31424333   0.681   2.055   3.854 -0.0478 -1.1350  0.6287
  196DOPC  H14X24334   0.762   2.131   3.852  0.4292 -1.6304 -1.6136
  196DOPC  H14Y24335   0.584   2.107   3.870  1.0168  0.8647  0.9152
  196DOPC  C31524336   0.691   1.957   3.973  0.3439 -0.0001 -0.5789
  196DOPC  H15X24337   0.780   1.891   3.958  0.2458 -0.0070 -1.1318
  196DOPC  H15Y24338   0.604   1.888   3.972  1.4523 -1.4929  0.4505
  196DOPC  C31624339   0.704   2.023   4.112 -0.1463 -0.1323 -0.6943
  196DOPC  H16X24340   0.786   2.097   4.099 -1.6576  1.9189  0.7310
  196DOPC  H16Y24341   0.616   2.088   4.133  0.8831  1.1963 -0.3518
  196DOPC  C31724342   0.739   1.930   4.225  0.9823 -0.1648  0.5013
  196DOPC  H17X24343   0.645   1.873   4.245  1.2204 -0.1062  1.9092
  196DOPC  H17Y24344   0.828   1.870   4.197 -1.5018 -4.0242  0.0939
  196DOPC  C31824345   0.774   2.001   4.351  0.6570 -0.1895  0.3371
  196DOPC  H18X24346   0.870   2.054   4.333  1.2071 -1.1153  0.4960
  196DOPC  H18Y24347   0.696   2.072   4.387 -0.8075 -1.8346  0.5252
  196DOPC  H18Z24348   0.806   1.939   4.438  0.8093 -0.6984 -0.0778
  197DOPC     N24349   2.085   6.866   2.654  0.3178  0.1807  0.5930
  197DOPC   C1224350   2.050   6.988   2.737  0.4103  0.6555 -0.0263
  197DOPC  H12A24351   1.957   6.985   2.791  1.4872  1.6040  1.9944
  197DOPC  H12B24352   2.040   7.068   2.665  2.0656 -0.0877 -1.1447
  197DOPC   C1324353   2.192   6.885   2.549 -0.0457 -0.0309 -0.6795
  197DOPC  H13A24354   2.290   6.906   2.590  0.3256 -1.8429 -0.5735
  197DOPC  H13B24355   2.193   6.796   2.488 -0.8467 -0.6667  0.1953
  197DOPC  H13C24356   2.166   6.964   2.479  0.3533 -2.2087 -3.4755
  197DOPC   C1424357   1.958   6.822   2.582 -0.0249 -0.0238  0.0108
  197DOPC  H14A24358   1.916   6.897   2.517  1.6422  1.0413  0.0774
  197DOPC  H14B24359   1.980   6.743   2.513 -1.4102 -1.2134  0.8731
  197DOPC  H14C24360   1.884   6.799   2.657  1.0641  1.3412  1.5864
  197DOPC   C1524361   2.119   6.761   2.749 -0.3639  0.4926  0.1960
  197DOPC  H15A24362   2.050   6.753   2.832  1.5559  1.6051  1.9983
  197DOPC  H15B24363   2.215   6.774   2.797 -0.2654 -0.7084  0.3645
  197DOPC  H15C24364   2.113   6.662   2.705 -1.2369  1.1868 -1.3117
  197DOPC   C1124365   2.154   7.032   2.841  0.0199 -0.3053 -0.2678
  197DOPC  H11A24366   2.121   7.112   2.910  2.8633  0.7259  0.0094
  197DOPC  H11B24367   2.171   6.949   2.913 -0.0264  0.1607  0.2818
  197DOPC     P24368   2.301   7.208   2.692  0.2151 -0.2512 -0.5310
  197DOPC   O1324369   2.172   7.262   2.648  0.0356  0.2508  0.0125
  197DOPC   O1424370   2.408   7.185   2.591 -0.5419  0.4362 -0.5212
  197DOPC   O1224371   2.279   7.078   2.783 -0.5674  0.2154 -0.0407
  197DOPC   O1124372   2.361   7.316   2.801 -0.5354  0.1161  0.2806
  197DOPC    C124373   2.473   7.280   2.878  0.4347 -0.1650  0.0629
  197DOPC    HA24374   2.527   7.373   2.907 -1.1429  0.7475  0.1768
  197DOPC    HB24375   2.545   7.215   2.823 -0.5153  0.1669 -1.6322
  197DOPC    C224376   2.435   7.220   3.010 -0.3575  0.3493 -0.5889
  197DOPC    HS24377   2.354   7.146   2.990 -0.4298 -0.0724  1.1320
  197DOPC   O2124378   2.378   7.319   3.087 -0.4502 -0.4101  0.4277
  197DOPC   C2124379   2.309   7.277   3.191  0.1952 -0.2427 -0.0841
  197DOPC   O2224380   2.288   7.163   3.221 -0.2827  0.2008 -0.6140
  197DOPC   C2224381   2.237   7.392   3.259 -0.4354  0.1181  0.6073
  197DOPC   H2R24382   2.140   7.371   3.210  0.7892 -3.0206 -0.7319
  197DOPC   H2S24383   2.287   7.486   3.227 -0.2006 -0.1840  0.0971
  197DOPC    C324384   2.552   7.151   3.083 -0.0283  0.1350  0.5469
  197DOPC    HX24385   2.599   7.081   3.010  1.7867  2.2143 -0.4012
  197DOPC    HY24386   2.514   7.089   3.167  0.3390 -1.7594 -0.6147
  197DOPC   O3124387   2.654   7.245   3.120  0.0205 -0.1195  0.7098
  197DOPC   C3124388   2.774   7.200   3.170 -0.4847  0.3462  0.2032
  197DOPC   O3224389   2.810   7.083   3.158 -0.2700 -0.4481  0.3827
  197DOPC   C3224390   2.861   7.305   3.230  0.4350 -0.0067  0.3273
  197DOPC   H2X24391   2.962   7.309   3.183  1.9149 -0.4443  3.2769
  197DOPC   H2Y24392   2.808   7.402   3.218 -1.2567 -1.0197 -0.9172
  197DOPC   C2324393   2.228   7.374   3.412  0.1762  0.1461  0.1833
  197DOPC   H3R24394   2.312   7.415   3.472  0.5091  0.8284 -0.7317
  197DOPC   H3S24395   2.242   7.269   3.446  1.6993  0.0939 -0.5255
  197DOPC   C2424396   2.093   7.417   3.476 -0.3701  0.5914 -0.3558
  197DOPC   H4R24397   2.024   7.331   3.467 -1.0686  0.8063  2.1568
  197DOPC   H4S24398   2.040   7.495   3.418 -0.9225 -0.9664 -2.0458
  197DOPC   C2524399   2.111   7.451   3.625 -0.0128 -0.1189 -0.2555
  197DOPC   H5R24400   2.017   7.488   3.672  0.1538 -0.7859  0.6375
  197DOPC   H5S24401   2.176   7.541   3.627 -0.1553 -0.0083 -0.5375
  197DOPC   C2624402   2.170   7.336   3.712  0.5373 -0.0669  0.3912
  197DOPC   H6R24403   2.195   7.384   3.809 -1.1831  0.3713  0.6372
  197DOPC   H6S24404   2.267   7.301   3.669  0.9680  1.0569  0.4291
  197DOPC   C2724405   2.075   7.211   3.709  0.1400 -0.8927  0.3241
  197DOPC   H7R24406   2.043   7.182   3.606  0.8069  3.1319 -1.2084
  197DOPC   H7S24407   1.984   7.254   3.755 -0.1562 -0.3051 -0.7674
  197DOPC   C2824408   2.137   7.095   3.781  0.1929  0.2839 -0.4409
  197DOPC   H8R24409   2.171   7.129   3.881 -1.1520 -0.5987  0.3651
  197DOPC   H8S24410   2.233   7.066   3.734 -0.5167 -1.3230 -0.9789
  197DOPC   C2924411   2.042   6.972   3.781  0.4423  0.0183  0.0821
  197DOPC   H9R24412   2.006   6.939   3.682  1.0474 -0.5358  0.0418
  197DOPC  C21024413   2.020   6.897   3.891  0.2874 -0.0505 -0.2298
  197DOPC  H10R24414   1.949   6.813   3.890 -1.5464  1.4242 -0.5820
  197DOPC  C21124415   2.063   6.936   4.033 -0.5545  0.7861  0.9971
  197DOPC  H11R24416   2.061   7.046   4.048 -2.8275  1.3354 -2.2935
  197DOPC  H11S24417   2.166   6.904   4.061 -0.2097  1.1511  0.1806
  197DOPC  C21224418   1.974   6.863   4.131  1.2289  1.2554 -0.3114
  197DOPC  H12R24419   1.992   6.754   4.124 -0.2991  0.8391  1.4752
  197DOPC  H12S24420   1.864   6.878   4.123  0.6214 -2.3575 -0.2157
  197DOPC  C21324421   2.004   6.912   4.280 -0.0490  0.2676  0.3308
  197DOPC  H13R24422   1.951   7.009   4.291 -0.5517 -0.0654  0.8693
  197DOPC  H13S24423   2.111   6.940   4.282  0.9091 -2.9883  0.6491
  197DOPC  C21424424   1.956   6.822   4.395  0.5091  0.3425 -0.5588
  197DOPC  H14R24425   1.991   6.864   4.491 -3.4620  0.7285  0.9072
  197DOPC  H14S24426   1.995   6.720   4.375 -1.4471 -0.5213 -0.2570
  197DOPC  C21524427   1.805   6.831   4.398  0.2430  0.4313  0.1926
  197DOPC  H15R24428   1.773   6.779   4.305  0.2506 -3.9643  2.4368
  197DOPC  H15S24429   1.769   6.936   4.406  0.9205  0.8647 -1.7081
  197DOPC  C21624430   1.744   6.740   4.506  0.1138  0.1541 -0.1361
  197DOPC  H16R24431   1.753   6.796   4.602 -0.6353 -1.2336  0.7714
  197DOPC  H16S24432   1.809   6.651   4.516  0.5720  0.4628 -0.3215
  197DOPC  C21724433   1.603   6.698   4.465 -0.4438  0.0300 -0.2754
  197DOPC  H17R24434   1.571   6.795   4.420  0.8191  0.6048  0.0141
  197DOPC  H17S24435   1.540   6.664   4.549  1.3924 -0.4875  0.9648
  197DOPC  C21824436   1.601   6.580   4.366  0.6724 -0.7692  0.2749
  197DOPC  H18R24437   1.683   6.507   4.381  2.7534  1.0783 -1.5182
  197DOPC  H18S24438   1.628   6.625   4.268  1.3440 -1.5361  0.1061
  197DOPC  H18T24439   1.497   6.540   4.355  0.8326 -1.2321  0.4139
  197DOPC   C3324440   2.887   7.274   3.384 -0.0657  0.4083 -0.5026
  197DOPC   H3X24441   2.789   7.269   3.437 -0.2160  1.2910 -0.6897
  197DOPC   H3Y24442   2.936   7.359   3.436  0.5152 -0.4577  0.3966
  197DOPC   C3424443   2.965   7.141   3.411  0.3513 -0.4267  0.1743
  197DOPC   H4X24444   3.054   7.146   3.345 -0.1614  1.7595 -0.3952
  197DOPC   H4Y24445   2.891   7.058   3.403 -1.4544  0.7331  3.1062
  197DOPC   C3524446   3.032   7.128   3.554  0.1157 -0.5645 -0.6430
  197DOPC   H5X24447   3.090   7.033   3.550 -1.4540 -1.6773  1.1438
  197DOPC   H5Y24448   2.959   7.123   3.638 -1.8985  0.7411 -2.2205
  197DOPC   C3624449   3.128   7.243   3.583  0.7407  0.4107 -0.4192
  197DOPC   H6X24450   3.208   7.263   3.508  0.7301 -0.9551 -0.8237
  197DOPC   H6Y24451   3.067   7.335   3.596 -0.3529 -0.4709  1.0515
  197DOPC   C3724452   3.200   7.228   3.717 -0.3918  0.3898  0.6581
  197DOPC   H7X24453   3.128   7.239   3.801 -0.6707  1.9653  0.2428
  197DOPC   H7Y24454   3.240   7.125   3.713 -2.0117 -0.3400  1.9749
  197DOPC   C3824455   3.305   7.335   3.744 -0.3348 -0.1571 -0.0277
  197DOPC   H8X24456   3.339   7.337   3.849 -0.1060 -1.1769 -0.0796
  197DOPC   H8Y24457   3.249   7.430   3.723 -1.4940 -0.3087  2.0877
  197DOPC   C3924458   3.419   7.324   3.645  0.4259 -0.3264  0.6782
  197DOPC   H9X24459   3.452   7.221   3.624  3.5315  0.1810  2.4606
  197DOPC  C31024460   3.473   7.423   3.574  0.2468 -0.7967  1.0328
  197DOPC  H10X24461   3.568   7.404   3.521 -1.4934  0.9889 -3.1510
  197DOPC  C31124462   3.438   7.574   3.567 -0.9543 -0.6692  0.9145
  197DOPC  H11X24463   3.403   7.613   3.665 -2.1515 -3.4617  1.7044
  197DOPC  H11Y24464   3.348   7.592   3.504  0.3358  1.7587 -0.3954
  197DOPC  C31224465   3.557   7.665   3.520  1.0418 -0.2979  0.5516
  197DOPC  H12X24466   3.600   7.631   3.423  0.6239 -0.7501  0.5196
  197DOPC  H12Y24467   3.635   7.660   3.599  0.6984  2.8149  1.2303
  197DOPC  C31324468   3.531   7.819   3.511 -0.1511  0.2548  0.2441
  197DOPC  H13X24469   3.455   7.855   3.584 -0.0717 -0.4482  0.6768
  197DOPC  H13Y24470   3.630   7.866   3.530 -0.1596  1.1761 -1.6762
  197DOPC  C31424471   3.492   7.858   3.363  0.6222  0.0266 -0.1834
  197DOPC  H14X24472   3.565   7.812   3.293  2.4379  0.2661  1.4979
  197DOPC  H14Y24473   3.396   7.807   3.339 -0.0871  0.3649  1.7529
  197DOPC  C31524474   3.485   8.004   3.317  0.3627 -0.2711 -0.0886
  197DOPC  H15X24475   3.582   8.056   3.330  0.6349 -0.9999  0.9030
  197DOPC  H15Y24476   3.421   8.064   3.385 -1.3428 -3.3659  1.2439
  197DOPC  C31624477   3.432   8.018   3.170  0.5938 -0.1489 -0.7370
  197DOPC  H16X24478   3.344   7.952   3.160  0.8870 -0.9062  1.3015
  197DOPC  H16Y24479   3.408   8.125   3.150  0.8068  0.0516  0.0276
  197DOPC  C31724480   3.545   7.981   3.070 -0.0171 -0.4850  0.2051
  197DOPC  H17X24481   3.638   8.022   3.116 -0.6615 -1.3565  2.4107
  197DOPC  H17Y24482   3.564   7.872   3.075  1.9427 -0.2127 -0.2092
  197DOPC  C31824483   3.511   8.021   2.924  0.2076 -0.4427 -0.6269
  197DOPC  H18X24484   3.461   8.118   2.900 -1.7996 -1.8051 -2.3578
  197DOPC  H18Y24485   3.598   8.022   2.855  0.6401 -0.9193 -0.1010
  197DOPC  H18Z24486   3.438   7.947   2.886  0.1063 -1.2070  0.9637
  198DOPC     N24487   6.799   7.092   2.751  0.0026  0.6367 -0.4154
  198DOPC   C1224488   6.796   7.030   2.605  0.7532 -0.5713  0.1152
  198DOPC  H12A24489   6.877   7.075   2.550 -0.3482  0.9147 -0.3874
  198DOPC  H12B24490   6.704   7.044   2.550 -1.1969 -0.2266  3.2297
  198DOPC   C1324491   6.694   7.026   2.837 -0.3119 -0.3242 -0.1656
  198DOPC  H13A24492   6.698   7.074   2.933  3.0106 -0.9321  0.1420
  198DOPC  H13B24493   6.598   7.045   2.791  0.1656  0.8084 -0.7240
  198DOPC  H13C24494   6.705   6.919   2.849 -1.1083 -0.1675  2.4029
  198DOPC   C1424495   6.765   7.232   2.744 -0.2237 -0.1036  0.0316
  198DOPC  H14A24496   6.846   7.281   2.692 -1.0449  0.4040 -0.8094
  198DOPC  H14B24497   6.681   7.247   2.677  0.2326  0.6903 -0.3746
  198DOPC  H14C24498   6.743   7.290   2.832  0.3583  2.8475 -1.6317
  198DOPC   C1524499   6.928   7.069   2.821 -0.5382  0.3843  0.4845
  198DOPC  H15A24500   6.937   6.962   2.838 -2.7191 -0.6602 -3.5996
  198DOPC  H15B24501   6.922   7.121   2.915  0.2118  0.8025  0.3072
  198DOPC  H15C24502   7.010   7.116   2.770 -1.9602  0.2620 -2.0933
  198DOPC   C1124503   6.809   6.874   2.595  0.8346  0.0762 -0.3695
  198DOPC  H11A24504   6.801   6.844   2.488 -3.0487  0.3055 -0.3040
  198DOPC  H11B24505   6.904   6.835   2.638  0.4703 -0.7623 -0.2982
  198DOPC     P24506   6.671   6.654   2.643 -0.1068  0.1270  0.3108
  198DOPC   O1324507   6.783   6.590   2.575 -0.1522 -0.1894  0.1186
  198DOPC   O1424508   6.537   6.631   2.589  0.2047  0.1198 -0.0516
  198DOPC   O1224509   6.701   6.809   2.668 -0.1775 -0.0663  0.4418
  198DOPC   O1124510   6.667   6.605   2.793  0.4677  0.0479  0.2875
  198DOPC    C124511   6.758   6.643   2.895  0.3595 -0.0530  0.6145
  198DOPC    HA24512   6.796   6.745   2.871 -1.8154  0.2526 -2.2208
  198DOPC    HB24513   6.840   6.568   2.894  1.3673  0.9929 -1.6085
  198DOPC    C224514   6.700   6.658   3.039 -0.1956  0.3983  0.7684
  198DOPC    HS24515   6.649   6.564   3.072  0.6242 -0.2476  0.2427
  198DOPC   O2124516   6.610   6.774   3.043  0.4824  0.4498  0.1483
  198DOPC   C2124517   6.487   6.746   3.004 -0.3875 -0.0509 -0.0622
  198DOPC   O2224518   6.445   6.641   2.955 -0.0501 -0.0469  0.0194
  198DOPC   C2224519   6.410   6.870   3.021 -0.1233 -0.0228 -0.1467
  198DOPC   H2R24520   6.394   6.911   2.919 -0.7345  0.0946 -0.0063
  198DOPC   H2S24521   6.468   6.952   3.069 -2.1700  0.8490  0.9840
  198DOPC    C324522   6.813   6.683   3.145  0.1907 -0.4707  0.4683
  198DOPC    HX24523   6.843   6.787   3.121  2.6958 -0.8788  1.5217
  198DOPC    HY24524   6.894   6.610   3.122  0.7713  0.0035  0.9772
  198DOPC   O3124525   6.761   6.675   3.277 -0.1554 -0.3208 -0.2188
  198DOPC   C3124526   6.730   6.783   3.343  0.0889  0.3745  0.0906
  198DOPC   O3224527   6.757   6.897   3.315  0.4964 -0.4223  0.2098
  198DOPC   C3224528   6.666   6.731   3.471  0.1279 -0.2007  0.1157
  198DOPC   H2X24529   6.603   6.642   3.452 -1.7031  0.8873  0.7708
  198DOPC   H2Y24530   6.743   6.707   3.548  0.1007  2.1504  0.9765
  198DOPC   C2324531   6.277   6.838   3.089 -0.6486  0.1882 -0.0941
  198DOPC   H3R24532   6.242   6.735   3.068  0.1430 -0.2499  0.6670
  198DOPC   H3S24533   6.207   6.911   3.043  1.2015  1.6880 -0.6781
  198DOPC   C2424534   6.286   6.860   3.240  0.2186 -0.3898 -0.2212
  198DOPC   H4R24535   6.306   6.964   3.271  0.0218 -1.1340  2.6233
  198DOPC   H4S24536   6.371   6.794   3.270  0.5566 -0.1222 -0.5782
  198DOPC   C2524537   6.157   6.813   3.312 -0.2021 -0.2846 -0.0514
  198DOPC   H5R24538   6.146   6.705   3.291 -0.9588  0.0631 -1.6080
  198DOPC   H5S24539   6.070   6.862   3.264 -1.4110 -3.6194 -1.5498
  198DOPC   C2624540   6.153   6.849   3.468 -0.1626  0.0848  0.3380
  198DOPC   H6R24541   6.131   6.956   3.484 -2.2950 -0.3402  0.5849
  198DOPC   H6S24542   6.255   6.822   3.502  0.2598  1.2145  0.0004
  198DOPC   C2724543   6.054   6.760   3.544  0.0923 -0.7673 -0.2615
  198DOPC   H7R24544   6.064   6.656   3.505  0.8701 -2.0812  3.1567
  198DOPC   H7S24545   5.949   6.787   3.522 -0.0693 -1.0572  0.1509
  198DOPC   C2824546   6.091   6.755   3.692 -0.5157 -0.1819  0.2102
  198DOPC   H8R24547   6.197   6.728   3.705 -0.7604 -1.3755 -0.1574
  198DOPC   H8S24548   6.033   6.670   3.734  0.1490 -0.5525  0.3832
  198DOPC   C2924549   6.058   6.877   3.776 -0.5793  0.3011  0.2854
  198DOPC   H9R24550   6.025   6.965   3.719 -0.4067 -0.7887 -1.5780
  198DOPC  C21024551   6.072   6.882   3.908 -0.9264 -0.4581 -0.3645
  198DOPC  H10R24552   6.066   6.985   3.949  2.5639  0.0535 -0.8748
  198DOPC  C21124553   6.129   6.773   3.989 -0.4571 -0.5822  0.6510
  198DOPC  H11R24554   6.212   6.814   4.051 -1.0739  0.1171  1.0303
  198DOPC  H11S24555   6.181   6.703   3.920 -0.4807  1.6333 -1.7460
  198DOPC  C21224556   6.024   6.706   4.076  0.1019 -0.5093 -0.1056
  198DOPC  H12R24557   6.073   6.611   4.108  0.7270 -0.2114 -0.1710
  198DOPC  H12S24558   5.930   6.673   4.026 -0.6189  0.7862  0.3434
  198DOPC  C21324559   5.994   6.790   4.204 -0.1745 -0.0958 -0.0936
  198DOPC  H13R24560   5.956   6.891   4.179  1.1430  0.6837  0.8849
  198DOPC  H13S24561   6.091   6.800   4.257  0.4095  1.3530 -1.3768
  198DOPC  C21424562   5.899   6.720   4.305 -0.7371 -0.5866  0.1958
  198DOPC  H14R24563   5.929   6.754   4.407 -0.8549  1.7573 -0.5032
  198DOPC  H14S24564   5.922   6.612   4.298 -3.0970 -1.0087 -3.6477
  198DOPC  C21524565   5.750   6.733   4.273  0.1730  0.3494  0.5504
  198DOPC  H15R24566   5.699   6.658   4.338  2.1308 -2.4330 -0.9060
  198DOPC  H15S24567   5.742   6.692   4.170 -0.9874 -0.4597  0.9357
  198DOPC  C21624568   5.671   6.868   4.287  0.0111  0.1478 -0.8808
  198DOPC  H16R24569   5.698   6.922   4.194 -0.8574  0.8565 -0.7286
  198DOPC  H16S24570   5.717   6.913   4.377  1.1150 -1.0359 -0.8182
  198DOPC  C21724571   5.519   6.855   4.298  0.0227  0.1021 -0.6100
  198DOPC  H17R24572   5.491   6.809   4.395 -0.3962  1.1874 -0.1945
  198DOPC  H17S24573   5.493   6.792   4.211 -0.8207 -0.4932  0.0640
  198DOPC  C21824574   5.435   6.980   4.288  0.3940 -0.6301  0.2364
  198DOPC  H18R24575   5.469   7.048   4.369  0.3448 -1.6384  1.1182
  198DOPC  H18S24576   5.328   6.958   4.311  0.3071  0.9521  1.4490
  198DOPC  H18T24577   5.446   7.033   4.191  1.5744 -0.7061  0.3252
  198DOPC   C3324578   6.572   6.837   3.531  0.2428  0.4240 -0.0455
  198DOPC   H3X24579   6.488   6.853   3.460 -0.2030  2.7458  0.9050
  198DOPC   H3Y24580   6.620   6.936   3.544  0.9740 -0.1674  1.9723
  198DOPC   C3424581   6.510   6.797   3.666 -0.7198  0.5019  0.1342
  198DOPC   H4X24582   6.461   6.698   3.649 -0.0202  0.1392  0.2148
  198DOPC   H4Y24583   6.430   6.869   3.696  0.6293  2.7059 -1.2850
  198DOPC   C3524584   6.610   6.789   3.781 -0.2511  0.1149 -0.6204
  198DOPC   H5X24585   6.642   6.893   3.805  2.8588 -0.8393 -0.1693
  198DOPC   H5Y24586   6.702   6.739   3.746  0.7181  2.7819 -2.2229
  198DOPC   C3624587   6.547   6.728   3.907  0.0903 -0.5299  0.7003
  198DOPC   H6X24588   6.481   6.807   3.949  1.0494  0.1399  0.9789
  198DOPC   H6Y24589   6.484   6.639   3.883 -1.0373  0.4310 -0.0187
  198DOPC   C3724590   6.659   6.690   4.004 -0.3415  0.3711  0.4151
  198DOPC   H7X24591   6.701   6.597   3.962 -1.0997 -0.7414  2.0030
  198DOPC   H7Y24592   6.738   6.768   3.999 -1.1605  1.1512 -2.2900
  198DOPC   C3824593   6.616   6.665   4.146 -0.3832  0.5455  0.4909
  198DOPC   H8X24594   6.536   6.588   4.139  0.5016 -0.4047  0.5386
  198DOPC   H8Y24595   6.566   6.755   4.187 -1.1349  1.5396 -2.3722
  198DOPC   C3924596   6.719   6.603   4.231 -0.5649  0.6188  0.1539
  198DOPC   H9X24597   6.783   6.531   4.177  1.7032  1.5977  1.4204
  198DOPC  C31024598   6.746   6.621   4.361  0.7252  0.3263  0.0698
  198DOPC  H10X24599   6.834   6.579   4.413  0.0539 -1.6759 -0.3172
  198DOPC  C31124600   6.659   6.700   4.457 -0.6113  0.2828  0.1250
  198DOPC  H11X24601   6.557   6.715   4.416 -0.1080  0.1700 -1.2339
  198DOPC  H11Y24602   6.701   6.801   4.472  1.3669 -0.3483 -0.7658
  198DOPC  C31224603   6.649   6.633   4.599  0.5636  0.1423  0.2433
  198DOPC  H12X24604   6.644   6.522   4.598 -3.7676  0.1596  0.9595
  198DOPC  H12Y24605   6.545   6.654   4.632 -1.1521 -1.3165 -3.6181
  198DOPC  C31324606   6.760   6.686   4.697  0.4379 -0.6503 -0.1702
  198DOPC  H13X24607   6.856   6.652   4.652  1.7259  1.1148  1.0759
  198DOPC  H13Y24608   6.755   6.796   4.712 -0.9921 -0.8009  0.5613
  198DOPC  C31424609   6.753   6.635   4.844  0.2113  0.3144  0.0516
  198DOPC  H14X24610   6.768   6.525   4.848  2.0466  0.5294  0.0610
  198DOPC  H14Y24611   6.835   6.681   4.904 -0.4040  0.8693  0.4786
  198DOPC  C31524612   6.615   6.677   4.901  0.8374 -0.4566  0.0604
  198DOPC  H15X24613   6.527   6.623   4.859  3.0825 -1.1293 -4.3945
  198DOPC  H15Y24614   6.594   6.784   4.880  0.3951 -0.5592 -0.0265
  198DOPC  C31624615   6.613   6.642   5.060  0.2754 -0.4431  0.1626
  198DOPC  H16X24616   6.688   6.701   5.117 -1.7276  2.3475  0.1182
  198DOPC  H16Y24617   6.511   6.665   5.098  0.6117  1.5509  0.0029
  198DOPC  C31724618   6.640   6.495   5.084 -0.3353 -0.3487  0.1380
  198DOPC  H17X24619   6.613   6.448   4.987 -4.5135 -0.9255  1.3670
  198DOPC  H17Y24620   6.745   6.470   5.109 -0.7023 -0.3239  1.8443
  198DOPC  C31824621   6.552   6.431   5.191  0.6254 -0.4483 -0.5552
  198DOPC  H18X24622   6.577   6.455   5.297 -3.5882 -1.2176  0.7998
  198DOPC  H18Y24623   6.442   6.445   5.182  0.3992 -1.2860  0.6695
  198DOPC  H18Z24624   6.567   6.321   5.187 -0.5079 -0.6602  0.3982
  199DOPC     N24625   5.973   1.499   2.778 -0.4144 -0.5321  0.3981
  199DOPC   C1224626   6.118   1.515   2.740 -0.4441 -0.1389 -0.5017
  199DOPC  H12A24627   6.129   1.605   2.681 -2.4510  0.4367 -0.0586
  199DOPC  H12B24628   6.140   1.435   2.671 -0.8130 -1.7654  1.1660
  199DOPC   C1324629   5.963   1.375   2.861  0.0980  0.2859 -0.0069
  199DOPC  H13A24630   6.013   1.388   2.956  1.6231 -0.1036 -0.7262
  199DOPC  H13B24631   5.861   1.349   2.885 -0.3192  1.0397 -0.9262
  199DOPC  H13C24632   6.007   1.288   2.815 -0.1409 -0.5463  1.2896
  199DOPC   C1424633   5.889   1.475   2.658  0.0594 -0.0169 -0.1856
  199DOPC  H14A24634   5.790   1.463   2.698  0.5015 -0.4566  0.8031
  199DOPC  H14B24635   5.882   1.567   2.601 -0.4178 -0.8718 -1.5532
  199DOPC  H14C24636   5.927   1.393   2.598  1.9140 -0.3293  1.3088
  199DOPC   C1524637   5.924   1.612   2.867 -0.1612 -0.2557  0.1765
  199DOPC  H15A24638   6.003   1.622   2.940  1.6329 -2.5046 -1.3205
  199DOPC  H15B24639   5.838   1.581   2.924  0.8162 -0.0512  1.8355
  199DOPC  H15C24640   5.920   1.707   2.815 -1.1451 -0.5145 -0.2222
  199DOPC   C1124641   6.227   1.518   2.846  0.4165 -0.2311 -0.1598
  199DOPC  H11A24642   6.306   1.586   2.806 -0.7861  1.5810  0.3879
  199DOPC  H11B24643   6.194   1.571   2.938  1.3619 -4.1788  2.7087
  199DOPC     P24644   6.380   1.323   2.787 -0.2327 -0.0393 -0.2807
  199DOPC   O1324645   6.508   1.399   2.788  0.6553  0.0669 -0.9795
  199DOPC   O1424646   6.315   1.296   2.657  0.0231 -0.1641  0.0092
  199DOPC   O1224647   6.266   1.387   2.878  0.5634 -0.1873  0.0317
  199DOPC   O1124648   6.402   1.177   2.849  0.0038  0.2300 -0.4360
  199DOPC    C124649   6.296   1.118   2.927 -0.1864  0.4098  0.0513
  199DOPC    HA24650   6.298   1.013   2.890 -1.5827  0.4750 -0.2448
  199DOPC    HB24651   6.197   1.160   2.900  0.8021  1.8616 -1.5784
  199DOPC    C224652   6.331   1.134   3.079 -0.8723  0.3573 -0.2517
  199DOPC    HS24653   6.265   1.069   3.140  0.8643 -1.6190 -0.3791
  199DOPC   O2124654   6.323   1.272   3.120  0.0859  0.0991  0.3219
  199DOPC   C2124655   6.212   1.311   3.163  0.4200  0.4912  0.2305
  199DOPC   O2224656   6.115   1.241   3.184 -0.0771  0.2240 -0.8399
  199DOPC   C2224657   6.201   1.459   3.186 -0.8126  0.5402 -0.6505
  199DOPC   H2R24658   6.115   1.483   3.120 -0.3560 -1.2668 -1.9768
  199DOPC   H2S24659   6.278   1.524   3.140 -0.5293  0.9176  0.3189
  199DOPC    C324660   6.472   1.086   3.114  0.3708 -0.3367  0.1163
  199DOPC    HX24661   6.537   1.167   3.075  0.3381  0.1563  1.0540
  199DOPC    HY24662   6.501   0.990   3.065  1.2957  0.7796 -1.6062
  199DOPC   O3124663   6.495   1.079   3.249 -0.1702 -1.1190 -0.2706
  199DOPC   C3124664   6.450   0.967   3.307  0.5076  0.2700  0.1747
  199DOPC   O3224665   6.381   0.879   3.248 -0.1868 -0.1111  0.0098
  199DOPC   C3224666   6.470   0.978   3.454 -0.6014  0.0653  0.2392
  199DOPC   H2X24667   6.408   0.898   3.498 -1.6601  0.9172  0.3215
  199DOPC   H2Y24668   6.576   0.947   3.467 -0.5526 -0.3005 -0.9485
  199DOPC   C2324669   6.174   1.491   3.335  0.0964 -0.8296  0.9096
  199DOPC   H3R24670   6.083   1.437   3.369 -0.9563  0.6327  0.5113
  199DOPC   H3S24671   6.164   1.601   3.326  2.0696 -0.5904  1.2333
  199DOPC   C2424672   6.281   1.472   3.430  0.0477  0.7187  0.2195
  199DOPC   H4R24673   6.366   1.543   3.423 -0.1599  0.9537  0.1042
  199DOPC   H4S24674   6.319   1.367   3.436 -2.7629 -0.4493 -0.6602
  199DOPC   C2524675   6.218   1.484   3.569  0.4830  0.2291  0.5408
  199DOPC   H5R24676   6.149   1.399   3.588 -2.8076  2.5079 -0.1735
  199DOPC   H5S24677   6.160   1.579   3.577 -1.6451 -0.7794 -1.6018
  199DOPC   C2624678   6.313   1.481   3.684  0.0436  0.5537 -0.4194
  199DOPC   H6R24679   6.399   1.549   3.671  0.6984 -0.0373  0.6995
  199DOPC   H6S24680   6.348   1.376   3.688  0.4603  0.7222  0.9587
  199DOPC   C2724681   6.255   1.512   3.823 -0.1122  0.5841 -0.5512
  199DOPC   H7R24682   6.165   1.449   3.843  0.6115 -0.0531  0.8511
  199DOPC   H7S24683   6.220   1.617   3.833 -2.0464 -0.0654  0.0088
  199DOPC   C2824684   6.349   1.469   3.931  0.4232 -0.4753 -1.2431
  199DOPC   H8R24685   6.374   1.364   3.902 -0.5860 -1.2224  0.4279
  199DOPC   H8S24686   6.299   1.458   4.030  1.3857  0.7640 -0.5888
  199DOPC   C2924687   6.465   1.558   3.939 -0.5088 -0.1380 -0.9356
  199DOPC   H9R24688   6.458   1.641   3.868  0.3478 -0.1928 -1.0904
  199DOPC  C21024689   6.573   1.536   4.009  0.0257 -0.2786 -0.0729
  199DOPC  H10R24690   6.661   1.602   3.997 -0.5562  0.2416 -1.6530
  199DOPC  C21124691   6.612   1.422   4.097  0.0725 -0.1457  1.1876
  199DOPC  H11R24692   6.694   1.366   4.048  0.7197  2.7574 -1.3760
  199DOPC  H11S24693   6.525   1.355   4.116 -1.8995  2.1389  0.8049
  199DOPC  C21224694   6.666   1.468   4.234  0.8587 -0.5094 -0.6995
  199DOPC  H12R24695   6.590   1.539   4.273  0.1719 -1.7355  0.2571
  199DOPC  H12S24696   6.765   1.520   4.233  0.0085  1.4119  2.0323
  199DOPC  C21324697   6.680   1.347   4.325 -0.1759  0.7027  0.0363
  199DOPC  H13R24698   6.748   1.272   4.279 -1.0920 -0.0678 -0.1071
  199DOPC  H13S24699   6.579   1.300   4.320  0.0446  0.3663 -2.1261
  199DOPC  C21424700   6.738   1.383   4.462 -0.5175 -0.0702 -0.3510
  199DOPC  H14R24701   6.834   1.439   4.460 -0.9913  0.7769  0.2756
  199DOPC  H14S24702   6.772   1.293   4.517  0.6189  0.3829 -0.2734
  199DOPC  C21524703   6.625   1.462   4.537 -0.6861  0.2224  0.2528
  199DOPC  H15R24704   6.532   1.403   4.553 -0.8158 -0.2110 -1.8194
  199DOPC  H15S24705   6.584   1.548   4.481  0.0342  1.4805  1.6001
  199DOPC  C21624706   6.680   1.497   4.674 -1.1359 -0.3606  0.6815
  199DOPC  H16R24707   6.721   1.405   4.721 -1.2031 -0.6168  0.2527
  199DOPC  H16S24708   6.595   1.520   4.741 -1.7583 -1.0733  0.1622
  199DOPC  C21724709   6.790   1.610   4.676 -0.4274  0.0423  0.4632
  199DOPC  H17R24710   6.746   1.707   4.643 -2.6543 -1.0770 -0.0296
  199DOPC  H17S24711   6.864   1.563   4.608 -0.4420 -1.3704  1.3876
  199DOPC  C21824712   6.851   1.622   4.819 -0.1421  0.1880  0.2659
  199DOPC  H18R24713   6.895   1.529   4.862  1.7873  0.9255 -0.0364
  199DOPC  H18S24714   6.774   1.667   4.885  0.7592  1.4058  0.5249
  199DOPC  H18T24715   6.935   1.694   4.809 -1.0966  1.2065 -0.6638
  199DOPC   C3324716   6.448   1.115   3.508 -0.3995 -0.2914  0.8783
  199DOPC   H3X24717   6.338   1.128   3.497 -0.5802 -1.5157  1.1223
  199DOPC   H3Y24718   6.494   1.202   3.457 -0.4171 -1.0658 -0.5213
  199DOPC   C3424719   6.495   1.123   3.659 -0.1665  0.0489 -0.4982
  199DOPC   H4X24720   6.502   1.227   3.696  0.3926  0.5890 -2.0718
  199DOPC   H4Y24721   6.601   1.090   3.656  0.7190  2.3396  1.8775
  199DOPC   C3524722   6.414   1.040   3.761 -0.3448  0.1075  0.2278
  199DOPC   H5X24723   6.384   0.941   3.723 -0.0323  0.2159 -0.3008
  199DOPC   H5Y24724   6.321   1.093   3.792 -1.2120 -0.5450 -1.1763
  199DOPC   C3624725   6.498   1.016   3.887 -0.0329 -0.0923 -0.7351
  199DOPC   H6X24726   6.571   0.936   3.863  0.4010  0.3303 -0.8276
  199DOPC   H6Y24727   6.558   1.106   3.915 -1.2565  0.6776 -0.4978
  199DOPC   C3724728   6.416   0.974   4.007  0.9088 -0.0849  0.1136
  199DOPC   H7X24729   6.355   1.062   4.037  2.5491  2.3004 -2.9649
  199DOPC   H7Y24730   6.352   0.890   3.972  3.0676 -1.5435 -0.5422
  199DOPC   C3824731   6.505   0.938   4.129  0.0742  0.0892  0.1584
  199DOPC   H8X24732   6.563   1.029   4.155  0.7992  0.0905 -1.3558
  199DOPC   H8Y24733   6.583   0.864   4.101  0.9874  1.6441 -1.6360
  199DOPC   C3924734   6.423   0.889   4.248  0.4361  0.6284  0.7139
  199DOPC   H9X24735   6.321   0.847   4.240  0.4827  0.7823 -1.3013
  199DOPC  C31024736   6.459   0.889   4.381  0.2824 -0.1234  0.0909
  199DOPC  H10X24737   6.396   0.846   4.461  2.0998 -2.4236  0.3978
  199DOPC  C31124738   6.587   0.940   4.444  0.2588  0.7851  0.3614
  199DOPC  H11X24739   6.650   0.990   4.367 -2.5616  2.3395 -1.1369
  199DOPC  H11Y24740   6.654   0.861   4.482 -0.8127  0.4651  1.6468
  199DOPC  C31224741   6.566   1.052   4.548  0.1911 -0.1558 -0.4561
  199DOPC  H12X24742   6.497   1.125   4.501 -0.5570 -1.3574 -1.2816
  199DOPC  H12Y24743   6.664   1.101   4.568  0.3426 -1.1889  1.6077
  199DOPC  C31324744   6.510   1.007   4.683 -0.3129  0.3011 -0.9595
  199DOPC  H13X24745   6.419   0.947   4.663 -0.2013 -0.0935 -0.3155
  199DOPC  H13Y24746   6.579   0.939   4.737  0.8811  0.8973 -1.6963
  199DOPC  C31424747   6.493   1.130   4.777  0.4354 -0.7405  0.1853
  199DOPC  H14X24748   6.593   1.178   4.778  0.1529 -0.0982 -1.2118
  199DOPC  H14Y24749   6.421   1.199   4.728  2.4384  1.4213  0.1442
  199DOPC  C31524750   6.440   1.099   4.919 -0.2156 -0.7399 -0.1851
  199DOPC  H15X24751   6.518   1.035   4.965 -0.0883 -1.8247 -1.8338
  199DOPC  H15Y24752   6.349   1.038   4.907 -0.5354  0.0608 -2.3099
  199DOPC  C31624753   6.408   1.220   5.002 -0.4980  0.3602 -0.4777
  199DOPC  H16X24754   6.501   1.278   5.023  0.4663 -1.0000 -0.7959
  199DOPC  H16Y24755   6.343   1.292   4.949 -1.4504  0.2874  0.5648
  199DOPC  C31724756   6.337   1.190   5.137 -0.2941  0.5507 -0.3310
  199DOPC  H17X24757   6.340   1.276   5.208  0.3163  1.0265 -0.9207
  199DOPC  H17Y24758   6.235   1.156   5.113 -0.1377 -0.8403  0.8583
  199DOPC  C31824759   6.406   1.074   5.223 -0.3859 -0.1673  0.2522
  199DOPC  H18X24760   6.423   0.980   5.167 -2.9231 -0.7222  0.2791
  199DOPC  H18Y24761   6.505   1.112   5.255 -1.0312  1.2454  0.6203
  199DOPC  H18Z24762   6.342   1.054   5.312 -0.9565 -2.5325 -0.6195
  200DOPC     N24763   1.176   1.037   2.095  0.7902  0.0465 -0.0781
  200DOPC   C1224764   1.081   1.104   2.196  0.0807 -0.5193  0.7183
  200DOPC  H12A24765   0.992   1.120   2.138  0.6794 -2.5317 -0.8862
  200DOPC  H12B24766   1.127   1.198   2.222  0.6243 -0.0632 -1.6281
  200DOPC   C1324767   1.178   1.109   1.962 -0.4214  0.2340  0.5375
  200DOPC  H13A24768   1.220   1.051   1.882  2.4804  1.0281  1.3677
  200DOPC  H13B24769   1.076   1.124   1.929 -0.8609 -0.7011  1.4070
  200DOPC  H13C24770   1.216   1.210   1.964 -2.8403  1.2058  2.0064
  200DOPC   C1424771   1.123   0.903   2.049 -0.0790  0.3198  0.6710
  200DOPC  H14A24772   1.084   0.854   2.137 -1.4058  1.6523  0.8817
  200DOPC  H14B24773   1.041   0.906   1.979  0.1691 -1.4953  0.2484
  200DOPC  H14C24774   1.201   0.839   2.012  2.7216  1.4340  4.0898
  200DOPC   C1524775   1.312   1.023   2.145  0.2966  0.0716  0.0463
  200DOPC  H15A24776   1.380   0.970   2.080  0.1502 -2.0263  1.4996
  200DOPC  H15B24777   1.311   0.978   2.243 -0.7358  1.1973  0.5771
  200DOPC  H15C24778   1.348   1.125   2.141  0.0884  0.2999  2.5498
  200DOPC   C1124779   1.047   1.030   2.325 -0.2479 -0.1838 -0.4164
  200DOPC  H11A24780   1.142   0.997   2.373 -0.7107 -2.5205 -1.0033
  200DOPC  H11B24781   1.013   1.104   2.400  1.0077  0.2761 -0.2883
  200DOPC     P24782   0.809   0.926   2.265  0.5044  0.1610  0.1601
  200DOPC   O1324783   0.773   0.786   2.226 -0.4030 -0.8920  0.6628
  200DOPC   O1424784   0.786   1.033   2.163  0.3333  0.4473  0.2787
  200DOPC   O1224785   0.960   0.917   2.305  0.1133  0.1376  0.2312
  200DOPC   O1124786   0.731   0.961   2.392 -1.0662 -0.3258 -0.2662
  200DOPC    C124787   0.745   0.885   2.510  0.5689  0.2728 -0.0150
  200DOPC    HA24788   0.822   0.805   2.511 -0.2457 -0.7642  4.7618
  200DOPC    HB24789   0.644   0.850   2.539  0.8534  0.5322  1.3518
  200DOPC    C224790   0.797   0.971   2.628 -0.0424  0.0112  0.1619
  200DOPC    HS24791   0.908   0.980   2.627  0.1186 -1.4363 -1.6462
  200DOPC   O2124792   0.761   0.914   2.763 -1.1249 -0.1517  0.4315
  200DOPC   C2124793   0.831   0.807   2.797 -0.1840 -0.3462 -0.8643
  200DOPC   O2224794   0.925   0.757   2.740  0.1907 -0.2670 -0.3199
  200DOPC   C2224795   0.780   0.747   2.927  0.1855  0.0443 -0.6100
  200DOPC   H2R24796   0.786   0.638   2.909 -1.0572 -0.2440  0.5322
  200DOPC   H2S24797   0.671   0.769   2.934  0.0562 -0.5990 -0.5886
  200DOPC    C324798   0.740   1.113   2.607 -0.0621 -0.0349 -0.5198
  200DOPC    HX24799   0.633   1.100   2.578 -0.0635  1.2387 -1.1290
  200DOPC    HY24800   0.787   1.164   2.520 -1.6026  1.1959 -0.6693
  200DOPC   O3124801   0.736   1.195   2.729 -0.3342 -0.5649  0.0005
  200DOPC   C3124802   0.848   1.237   2.777  0.0603  0.3195  0.1616
  200DOPC   O3224803   0.957   1.216   2.725 -0.8170 -0.6330  0.2648
  200DOPC   C3224804   0.824   1.299   2.916  0.3638  0.4995 -0.9385
  200DOPC   H2X24805   0.924   1.323   2.960 -0.2790 -0.2965  1.0412
  200DOPC   H2Y24806   0.757   1.387   2.904 -1.0564 -0.2580  1.0366
  200DOPC   C2324807   0.849   0.804   3.054 -0.0032 -0.0005 -0.5447
  200DOPC   H3R24808   0.868   0.913   3.041 -0.4286  0.1262 -0.1192
  200DOPC   H3S24809   0.950   0.758   3.053  0.0622  0.1395 -0.3891
  200DOPC   C2424810   0.800   0.759   3.193 -0.4868  0.3860 -0.3104
  200DOPC   H4R24811   0.692   0.773   3.214 -0.1577  1.1913  0.9360
  200DOPC   H4S24812   0.866   0.812   3.266 -1.3263 -0.2911  0.9679
  200DOPC   C2524813   0.811   0.609   3.214 -0.3601  0.5898 -0.0824
  200DOPC   H5R24814   0.918   0.577   3.208  0.1285  1.0128  3.7780
  200DOPC   H5S24815   0.755   0.554   3.136  4.4200  0.3180 -3.7677
  200DOPC   C2624816   0.791   0.560   3.357 -0.3882  0.2596  0.7885
  200DOPC   H6R24817   0.759   0.455   3.345 -1.0682  0.6462 -1.2649
  200DOPC   H6S24818   0.707   0.625   3.391 -0.4206  0.6767 -0.0591
  200DOPC   C2724819   0.912   0.561   3.450  0.3331 -0.0715 -0.0010
  200DOPC   H7R24820   0.954   0.664   3.457 -2.7339  1.2236  0.7634
  200DOPC   H7S24821   0.992   0.488   3.427  0.9915 -0.0581  1.9959
  200DOPC   C2824822   0.866   0.524   3.592 -0.2011  0.4309  0.8557
  200DOPC   H8R24823   0.847   0.415   3.584  1.4203  0.0512  1.6961
  200DOPC   H8S24824   0.768   0.571   3.614 -0.8380 -1.6704  2.9655
  200DOPC   C2924825   0.972   0.544   3.698 -0.0720  0.8175  0.2663
  200DOPC   H9R24826   1.073   0.541   3.655 -0.7855  1.1005 -1.5037
  200DOPC  C21024827   0.958   0.574   3.824 -0.5977 -0.1212  0.0329
  200DOPC  H10R24828   1.050   0.575   3.885 -0.5834  2.1262  0.0773
  200DOPC  C21124829   0.817   0.594   3.875 -0.5363 -0.2202  0.4161
  200DOPC  H11R24830   0.754   0.506   3.851 -1.7554  0.1621  2.0443
  200DOPC  H11S24831   0.765   0.677   3.821  2.0978  0.3526 -1.4350
  200DOPC  C21224832   0.801   0.590   4.035 -0.1925  0.1748 -0.3164
  200DOPC  H12R24833   0.693   0.570   4.052 -0.4949  1.7568 -0.1508
  200DOPC  H12S24834   0.837   0.684   4.083 -0.8470 -0.2113  0.9699
  200DOPC  C21324835   0.884   0.473   4.104  0.0156 -0.2491 -0.2169
  200DOPC  H13R24836   0.989   0.493   4.072  0.1204 -1.3297 -0.5974
  200DOPC  H13S24837   0.849   0.379   4.056 -0.3685  0.3711 -1.1822
  200DOPC  C21424838   0.876   0.483   4.258  0.1414 -0.1068  0.2435
  200DOPC  H14R24839   0.770   0.490   4.292 -0.2046 -0.7517 -0.6611
  200DOPC  H14S24840   0.919   0.582   4.285  2.1833 -1.3413  1.8042
  200DOPC  C21524841   0.938   0.365   4.335  0.1829 -0.3974 -0.3281
  200DOPC  H15R24842   1.022   0.333   4.270  0.1420  0.5684 -0.8773
  200DOPC  H15S24843   0.880   0.270   4.343  1.9476 -1.5127 -0.3081
  200DOPC  C21624844   0.979   0.398   4.476  0.6947 -0.2777  0.5138
  200DOPC  H16R24845   1.010   0.303   4.526  1.4298  0.6265  1.8301
  200DOPC  H16S24846   0.898   0.449   4.532  0.3164  2.0146 -1.9602
  200DOPC  C21724847   1.105   0.484   4.474  1.0076 -0.7913  0.2969
  200DOPC  H17R24848   1.070   0.580   4.431 -2.7774 -1.6945  0.9872
  200DOPC  H17S24849   1.187   0.437   4.414  0.8184  0.0094 -0.6093
  200DOPC  C21824850   1.170   0.507   4.610 -0.1246  0.1269 -0.7306
  200DOPC  H18R24851   1.209   0.415   4.659 -1.0161 -0.4000 -0.9878
  200DOPC  H18S24852   1.095   0.553   4.677  0.5992  3.4405 -1.9881
  200DOPC  H18T24853   1.250   0.583   4.599  0.7274 -0.5938  0.2305
  200DOPC   C3324854   0.751   1.203   3.013  0.4591  0.2757 -0.7671
  200DOPC   H3X24855   0.796   1.103   2.998 -2.5851 -1.0712 -1.8032
  200DOPC   H3Y24856   0.642   1.195   2.991  0.6050 -0.2687 -1.3014
  200DOPC   C3424857   0.767   1.246   3.163 -0.0292  0.0486 -0.2836
  200DOPC   H4X24858   0.731   1.349   3.186 -1.4217 -0.0554 -1.8129
  200DOPC   H4Y24859   0.875   1.233   3.187  0.3919  2.3730 -0.7252
  200DOPC   C3524860   0.688   1.143   3.246  0.7799 -0.1945 -0.7142
  200DOPC   H5X24861   0.713   1.041   3.208  1.5457  0.3020 -1.5841
  200DOPC   H5Y24862   0.579   1.149   3.230  0.5194  1.9615  1.3944
  200DOPC   C3624863   0.713   1.141   3.391  0.2147  0.6438 -1.3501
  200DOPC   H6X24864   0.818   1.143   3.426 -0.1393 -1.7597  0.1020
  200DOPC   H6Y24865   0.653   1.223   3.436 -0.1735  0.1378 -0.9309
  200DOPC   C3724866   0.669   1.004   3.447 -0.7209 -0.2826  0.0984
  200DOPC   H7X24867   0.564   0.976   3.422 -0.2811 -0.7183 -1.3973
  200DOPC   H7Y24868   0.731   0.931   3.391  0.4206  0.7640 -0.0349
  200DOPC   C3824869   0.689   0.995   3.599  0.5574  0.3981 -0.5461
  200DOPC   H8X24870   0.797   1.016   3.613  0.6197  0.5526 -1.2005
  200DOPC   H8Y24871   0.664   0.893   3.634 -1.0783  0.8120 -0.3898
  200DOPC   C3924872   0.599   1.095   3.666 -0.0116  0.3219 -0.6261
  200DOPC   H9X24873   0.554   1.171   3.600 -1.7721  0.6608  0.8852
  200DOPC  C31024874   0.557   1.095   3.797 -0.2907  0.3700  0.4024
  200DOPC  H10X24875   0.491   1.177   3.829 -0.8895  0.8755 -1.9175
  200DOPC  C31124876   0.582   0.995   3.912 -0.7676  0.4242  0.1167
  200DOPC  H11X24877   0.636   0.908   3.870 -0.8151  1.0615 -1.3377
  200DOPC  H11Y24878   0.486   0.961   3.956  0.0813 -0.0853  1.6551
  200DOPC  C31224879   0.648   1.074   4.026 -0.1401 -0.4214 -0.6931
  200DOPC  H12X24880   0.591   1.163   4.061 -1.8734 -0.5828 -2.8797
  200DOPC  H12Y24881   0.750   1.106   3.997  0.0089  0.7221  0.9851
  200DOPC  C31324882   0.660   0.978   4.148  0.2501  0.7402  0.3842
  200DOPC  H13X24883   0.561   0.949   4.189 -0.3615  0.5235 -1.1725
  200DOPC  H13Y24884   0.720   0.889   4.119 -0.4719  0.1112  0.8121
  200DOPC  C31424885   0.732   1.048   4.261  0.1603  0.3042 -0.7347
  200DOPC  H14X24886   0.828   1.098   4.233 -0.3093  1.5973 -0.1025
  200DOPC  H14Y24887   0.669   1.131   4.299 -1.3840 -0.9494 -0.4840
  200DOPC  C31524888   0.733   0.967   4.394 -0.3434 -0.3021 -0.0492
  200DOPC  H15X24889   0.789   0.875   4.369 -0.8414 -0.1940 -1.6230
  200DOPC  H15Y24890   0.631   0.935   4.423 -1.3719  4.1548  2.0516
  200DOPC  C31624891   0.807   1.039   4.508  0.5744 -0.2817  0.6767
  200DOPC  H16X24892   0.914   1.035   4.479 -0.4762  0.3347 -4.1244
  200DOPC  H16Y24893   0.772   1.144   4.513 -0.9043 -0.5190 -2.2198
  200DOPC  C31724894   0.794   0.968   4.647 -0.3456 -0.0964  0.1903
  200DOPC  H17X24895   0.839   1.038   4.720 -0.3855  1.4154 -1.1747
  200DOPC  H17Y24896   0.685   0.960   4.664 -0.1088 -0.2493  1.7335
  200DOPC  C31824897   0.858   0.828   4.663  0.0085 -0.5661  0.0166
  200DOPC  H18X24898   0.847   0.775   4.760 -0.1720 -0.8278 -0.1461
  200DOPC  H18Y24899   0.812   0.760   4.589 -1.7219 -1.4290  1.8070
  200DOPC  H18Z24900   0.969   0.833   4.654  0.4755 -3.1643  2.7337
  201SOD    SOD24901   3.830   7.216   1.627  0.2250 -0.0943  0.2511
  202SOD    SOD24902   0.219   2.606   1.860 -0.2171  0.2392 -0.1101
  203SOD    SOD24903   5.996   7.245   8.636  0.1355  0.6028 -0.4277
  204SOD    SOD24904   7.223   5.489   7.548  0.2672  0.0739  0.0593
  205SOD    SOD24905   5.025   6.095   9.845 -0.4772  0.2279 -0.6185
  206SOD    SOD24906   1.433   4.381   0.241  0.3450 -0.3253  0.4246
  207SOD    SOD24907   6.121   3.723   7.408  0.2938 -0.0092 -0.1750
  208SOD    SOD24908   6.120   4.959   7.486  0.1617  0.4255 -0.0564
  209SOD    SOD24909   6.001   2.228   9.294 -0.0443 -0.2657 -0.3041
  210SOD    SOD24910   6.055   3.007   2.568  0.3475 -0.1242  0.1365
  211SOD    SOD24911   3.477   1.635   8.709 -0.6427 -0.0924 -0.4064
  212SOD    SOD24912   1.098   1.294   9.277  0.0121  0.1777 -0.1672
  213SOD    SOD24913   5.536   2.705   0.345  0.2879  0.3367  0.2369
  214SOD    SOD24914   2.703   2.445   9.493 -0.2640 -0.2828  0.2258
  215SOD    SOD24915   2.886   3.468   9.157  0.4086  0.1003  0.2738
  216SOD    SOD24916   2.265   1.747   7.285 -0.4907 -0.1422  0.6495
  217SOD    SOD24917   3.329   0.541   7.490  0.0236 -0.4514  0.4350
  218SOD    SOD24918   0.062   3.262   8.554 -0.0987 -0.3472  0.2110
  219SOD    SOD24919   1.159   3.777   2.783  0.6885 -0.2130  0.0259
  220SOD    SOD24920   5.002   1.306   8.100  0.0549  0.1472 -0.1309
  221SOD    SOD24921   0.099   3.849   2.390  0.5170  0.3502 -0.0578
  222SOD    SOD24922   3.287   3.579   2.029  0.2676 -0.5098  0.1979
  223SOD    SOD24923   2.603   1.295   8.555 -0.1502  0.4135  0.1097
  224SOD    SOD24924   3.776   4.317   9.457 -0.2777 -0.7635  0.4728
  225SOD    SOD24925   5.651   5.761   2.152  0.2644 -0.6002 -0.2866
  226SOD    SOD24926   3.261   6.746   9.422  0.2329 -0.0582 -0.6865
  227CLA    CLA24927   7.043   3.256   9.262  0.1161 -0.1170 -0.4237
  228CLA    CLA24928   3.174   4.809   7.796  0.1162  0.1991  0.1311
  229CLA    CLA24929   2.146   1.735   1.841 -0.0456  0.1386  0.0371
  230CLA    CLA24930   3.231   6.644   2.552  0.3079  0.4829  0.3994
  231CLA    CLA24931   4.539   7.256   8.287  0.3315 -0.1072 -0.1304
  232CLA    CLA24932   1.579   7.041   9.094 -0.4116  0.0130 -0.2124
  233CLA    CLA24933   7.140   0.382   9.109 -0.3106 -0.5988 -0.0710
  234CLA    CLA24934   5.374   1.816   1.964 -0.0065  0.0500  0.2286
  235CLA    CLA24935   4.543   6.814   2.142  0.1125 -0.3045  0.0074
  236CLA    CLA24936   6.005   1.891   9.047 -0.4899  0.0355 -0.0391
  237CLA    CLA24937   5.135   4.110   7.730  0.3482  0.3284  0.1161
  238CLA    CLA24938   4.808   5.610   1.760 -0.2933 -0.4218 -0.1879
  239CLA    CLA24939   3.315   0.145   8.960  0.0893 -0.2692 -0.1144
  240CLA    CLA24940   0.697   7.110   8.360 -0.5462  0.0235  0.3230
  241CLA    CLA24941   6.998   0.076   7.714  0.0071  0.2758  0.3572
  242CLA    CLA24942   0.023   2.870   1.522  0.2134 -0.2224  0.0199
  243CLA    CLA24943   1.762   0.769   8.793 -0.0703  0.0332 -0.1254
  244CLA    CLA24944   2.228   4.409   0.344  0.0870 -0.7178 -0.1195
  245CLA    CLA24945   5.699   6.239   8.328  0.0705 -0.4924 -0.5325
  246CLA    CLA24946   6.565   7.204   7.763 -0.4060  0.2273  0.0978
  247CLA    CLA24947   2.242   5.402   7.510 -0.1014  0.2017 -0.4075
  248CLA    CLA24948   3.836   5.831   7.210 -0.0195 -0.0429 -0.1467
  249CLA    CLA24949   6.309   2.825   9.411  0.2437 -0.3187  0.3343
  250CLA    CLA24950   3.801   1.440   8.009 -0.0453  0.3061 -0.1866
  251CLA    CLA24951   4.442   2.161   2.060 -0.0046 -0.1610  0.0727
  252CLA    CLA24952   5.073   2.254   7.691 -0.0002  0.1226 -0.0584
  253TIP3   OH224953   0.283   0.362   8.939  0.0165  0.1154 -0.0091
  253TIP3    H124954   0.283   0.288   9.000  0.4926  0.9458  1.0575
  253TIP3    H224955   0.191   0.384   8.927 -0.2244 -1.5888 -1.5658
  254TIP3   OH224956   5.723   0.673   6.784  0.7543 -0.4483  0.4068
  254TIP3    H124957   5.770   0.642   6.862  0.9982 -0.3088  0.3181
  254TIP3    H224958   5.642   0.623   6.783  1.1238 -1.0595  0.2905
  255TIP3   OH224959   4.342   6.021   8.261 -0.0177  0.0380 -0.0140
  255TIP3    H124960   4.384   6.080   8.198 -0.7248 -0.5032 -1.0235
  255TIP3    H224961   4.368   5.933   8.232 -0.4255 -0.2198  0.3900
  256TIP3   OH224962   4.199   7.132   0.758 -0.4160 -0.1166 -0.2716
  256TIP3    H124963   4.223   7.222   0.736 -2.2961  0.7172  0.8271
  256TIP3    H224964   4.280   7.092   0.790  0.1602  1.6014  0.5059
  257TIP3   OH224965   1.950   4.030   9.629 -0.5726 -0.1086 -0.0433
  257TIP3    H124966   1.865   4.074   9.631  0.5413  2.2542  1.4221
  257TIP3    H224967   1.977   4.034   9.538 -0.6925  2.1188 -0.0511
  258TIP3   OH224968   5.388   5.718   1.651 -0.0719  0.7173  0.4194
  258TIP3    H124969   5.332   5.763   1.714  0.3282  0.1235  1.2233
  258TIP3    H224970   5.426   5.787   1.598  0.0967  1.2851  1.2661
  259TIP3   OH224971   6.300   5.547   0.193  0.2755  0.1481 -0.3866
  259TIP3    H124972   6.320   5.456   0.173 -1.5128 -0.0075 -1.6791
  259TIP3    H224973   6.249   5.543   0.274 -0.0483 -0.0362 -0.5975
  260TIP3   OH224974   6.978   5.130   1.534 -0.0745 -0.2217  0.2076
  260TIP3    H124975   7.013   5.189   1.600  1.0610 -0.8903  0.2429
  260TIP3    H224976   6.955   5.051   1.582  0.6960 -0.6868 -0.1659
  261TIP3   OH224977   5.779   3.271   9.490  0.5605 -0.0243 -0.1353
  261TIP3    H124978   5.775   3.188   9.538  1.4685 -1.0291 -1.7270
  261TIP3    H224979   5.775   3.246   9.398  0.8419  1.7112 -0.6553
  262TIP3   OH224980   0.903   0.921   9.311  0.0291 -0.1186 -0.1906
  262TIP3    H124981   0.940   0.905   9.225  0.5017 -0.7333  0.1162
  262TIP3    H224982   0.948   0.998   9.343  0.5123 -0.4259 -0.1252
  263TIP3   OH224983   4.940   2.400   2.061 -0.2599 -0.0681 -0.5528
  263TIP3    H124984   4.991   2.322   2.081  0.2354  0.7037  1.4464
  263TIP3    H224985   4.850   2.369   2.054 -0.1131 -0.8015  0.5302
  264TIP3   OH224986   0.377   5.308   1.291  0.0304  1.0417 -0.0091
  264TIP3    H124987   0.422   5.296   1.375 -0.1337  0.0079 -0.0532
  264TIP3    H224988   0.316   5.380   1.306  0.3661  1.2077  0.6034
  265TIP3   OH224989   5.972   2.208   8.662  0.0327  0.5243  0.8046
  265TIP3    H124990   5.966   2.256   8.744  0.5062 -0.6757  1.5663
  265TIP3    H224991   5.893   2.233   8.613 -0.6836  0.6212  1.9780
  266TIP3   OH224992   4.031   2.667   9.217 -0.2251 -0.3865  0.1897
  266TIP3    H124993   3.977   2.742   9.194  0.7266  1.3134  2.9675
  266TIP3    H224994   3.977   2.616   9.277 -0.0764 -0.7179  0.0436
  267TIP3   OH224995   0.655   5.701   9.606  0.3691 -0.5783 -0.0442
  267TIP3    H124996   0.672   5.742   9.691  1.2339  1.0093 -0.9460
  267TIP3    H224997   0.560   5.698   9.600  0.0800  3.8086 -0.9748
  268TIP3   OH224998   4.481   6.243   1.477  0.3688 -0.3916 -0.0652
  268TIP3    H124999   4.426   6.269   1.403  1.9178  0.7594 -0.8662
  268TIP3    H225000   4.568   6.234   1.440  1.5072  1.6709  1.8574
  269TIP3   OH225001   5.584   0.596   4.086  0.2767  0.1474  0.2665
  269TIP3    H125002   5.517   0.564   4.026  1.8897 -1.6415 -0.7400
  269TIP3    H225003   5.614   0.517   4.131  0.9595  1.0669  1.4664
  270TIP3   OH225004   2.614   6.156   9.061  0.2109  0.0236 -0.1284
  270TIP3    H125005   2.696   6.108   9.053 -0.0450 -0.4836  0.2004
  270TIP3    H225006   2.639   6.248   9.058  0.8123 -0.1246  0.2186
  271TIP3   OH225007   7.185   1.894   8.283  0.1949 -0.5154 -0.3972
  271TIP3    H125008   7.161   1.914   8.192  1.8710  1.0194 -0.5826
  271TIP3    H225009   7.234   1.812   8.277  0.4794 -0.3148 -0.9288
  272TIP3   OH225010   3.942   0.759   0.416 -0.0705  0.2782  0.3399
  272TIP3    H125011   4.023   0.760   0.467 -0.9772  0.1556  1.8607
  272TIP3    H225012   3.900   0.676   0.439 -0.2337 -0.0664 -1.1130
  273TIP3   OH225013   1.426   6.151   9.348 -0.3417  0.0547 -0.2359
  273TIP3    H125014   1.369   6.101   9.406  0.4680 -1.2124 -0.4901
  273TIP3    H225015   1.396   6.130   9.260  0.6707 -0.8814 -0.3873
  274TIP3   OH225016   4.824   2.502   8.536 -0.0521 -0.5204 -0.5410
  274TIP3    H125017   4.866   2.426   8.494 -1.1036 -0.4135 -1.8341
  274TIP3    H225018   4.796   2.558   8.463 -1.4943 -0.0842  0.3067
  275TIP3   OH225019   4.144   4.696   9.453 -0.2735 -0.0505  0.4131
  275TIP3    H125020   4.086   4.733   9.387 -1.2723 -0.7749  0.8490
  275TIP3    H225021   4.223   4.749   9.448  1.2262 -2.2492 -3.9002
  276TIP3   OH225022   2.963   0.584   7.308  0.4218  0.4113 -0.0747
  276TIP3    H125023   3.025   0.652   7.332 -0.2682  0.9105  0.3246
  276TIP3    H225024   2.877   0.620   7.330 -0.0656 -0.0388 -1.1226
  277TIP3   OH225025   2.675   5.373   0.413  0.7018 -0.2804 -0.8060
  277TIP3    H125026   2.653   5.452   0.463  2.1046 -0.2143 -0.2458
  277TIP3    H225027   2.616   5.305   0.448 -0.3264  0.4370 -1.1071
  278TIP3   OH225028   0.151   7.279   9.136 -0.1513  0.4161  0.2448
  278TIP3    H125029   0.225   7.299   9.079  0.8008  1.2965  1.7297
  278TIP3    H225030   0.191   7.247   9.217 -1.4656 -0.8800  0.4212
  279TIP3   OH225031   3.606   4.221   0.910 -1.0953  0.2722  0.1775
  279TIP3    H125032   3.654   4.297   0.877 -1.3393  0.4950  0.3260
  279TIP3    H225033   3.520   4.228   0.869 -1.1795  0.1815  0.3394
  280TIP3   OH225034   2.166   6.170   9.849  0.4860 -0.1888 -0.0910
  280TIP3    H125035   2.223   6.112   9.900 -1.6436 -2.2271  0.1435
  280TIP3    H225036   2.098   6.196   9.911 -1.5409 -1.8292 -1.4558
  281TIP3   OH225037   5.069   1.802   1.951 -0.3226 -0.2902 -0.1145
  281TIP3    H125038   5.046   1.868   1.886  0.1532 -1.1478 -1.1835
  281TIP3    H225039   5.162   1.817   1.968 -0.5062  0.1036  0.5951
  282TIP3   OH225040   0.760   3.456   2.778 -0.2123  0.4958 -1.1492
  282TIP3    H125041   0.674   3.489   2.804 -0.2884 -0.5989  0.0632
  282TIP3    H225042   0.753   3.361   2.787  1.9297  0.4755  1.7217
  283TIP3   OH225043   7.246   5.775   2.507  0.2110  0.1293  0.5840
  283TIP3    H125044   7.244   5.715   2.582 -0.1351 -1.7337 -0.8487
  283TIP3    H225045   7.311   5.737   2.448  0.8378  1.8359  0.1061
  284TIP3   OH225046   3.866   4.121   8.090  0.1831  0.4633 -0.0340
  284TIP3    H125047   3.881   4.215   8.081  2.8172 -0.0214 -1.7812
  284TIP3    H225048   3.892   4.084   8.006 -0.0323 -1.9244  0.8713
  285TIP3   OH225049   1.589   6.762   1.413 -0.5056  0.4512  0.2140
  285TIP3    H125050   1.552   6.768   1.501 -0.7100 -1.3819  0.2890
  285TIP3    H225051   1.650   6.689   1.417 -0.8745  0.0176 -1.2659
  286TIP3   OH225052   4.858   5.899   9.790 -0.1704 -0.5292  0.2506
  286TIP3    H125053   4.814   5.819   9.761 -0.1997 -0.3417 -0.2389
  286TIP3    H225054   4.839   5.963   9.721 -0.3524 -0.0280  0.7582
  287TIP3   OH225055   0.626   1.704   0.597  0.5331  0.4892 -0.3554
  287TIP3    H125056   0.679   1.783   0.605 -0.2395  1.0541 -0.7470
  287TIP3    H225057   0.652   1.650   0.672  1.6254  0.7674 -0.5173
  288TIP3   OH225058   1.847   3.895   8.190  0.4508  0.2289  0.3281
  288TIP3    H125059   1.766   3.857   8.227  1.7082 -1.9943  1.0397
  288TIP3    H225060   1.830   3.901   8.096 -0.3163 -0.9302  0.3626
  289TIP3   OH225061   4.636   4.800   7.360 -0.0422 -0.2126 -0.2169
  289TIP3    H125062   4.589   4.772   7.281  0.8829  0.8167 -1.1758
  289TIP3    H225063   4.729   4.791   7.337  0.2389 -0.4696  0.9808
  290TIP3   OH225064   2.623   4.742   9.404 -0.3468  0.2830 -0.2539
  290TIP3    H125065   2.661   4.764   9.319  2.7727 -0.5488  0.8162
  290TIP3    H225066   2.645   4.816   9.460 -0.0119 -0.3531  0.4688
  291TIP3   OH225067   1.005   3.202   9.829  0.3604 -0.3644 -0.5102
  291TIP3    H125068   1.083   3.247   9.862 -0.2087 -0.6947  1.3887
  291TIP3    H225069   0.935   3.267   9.838 -0.6161 -1.7045  2.9308
  292TIP3   OH225070   1.175   1.727   8.755  0.3920 -0.7329  0.5959
  292TIP3    H125071   1.197   1.680   8.675  0.1411 -1.6348  1.0349
  292TIP3    H225072   1.225   1.808   8.751  0.0704 -0.5816 -0.6536
  293TIP3   OH225073   5.161   5.339   2.869 -0.0127  0.1870 -0.4294
  293TIP3    H125074   5.066   5.350   2.877 -0.1448 -0.3985 -1.0893
  293TIP3    H225075   5.172   5.248   2.842  0.8107 -0.0999  0.7828
  294TIP3   OH225076   4.132   2.998   1.935 -0.0379  0.0664 -0.1027
  294TIP3    H125077   4.036   2.988   1.938 -0.0698 -0.4242 -1.6929
  294TIP3    H225078   4.161   2.974   2.023 -1.5697  3.2046  1.4380
  295TIP3   OH225079   3.382   5.667   0.785  0.0733  0.6370  0.1129
  295TIP3    H125080   3.430   5.710   0.856 -1.7445  0.7214  1.3647
  295TIP3    H225081   3.418   5.578   0.782 -0.3898  0.3587  1.7817
  296TIP3   OH225082   4.749   2.307   2.362 -0.2975 -1.2159 -0.4791
  296TIP3    H125083   4.657   2.316   2.384 -0.1638  1.7669 -0.7074
  296TIP3    H225084   4.792   2.284   2.444 -0.9572  0.1191  0.2717
  297TIP3   OH225085   0.022   5.139   7.872  0.6967 -0.4779 -0.0048
  297TIP3    H125086   0.110   5.157   7.839  0.3600 -0.3099 -0.8208
  297TIP3    H225087  -0.022   5.094   7.800  0.4946 -1.6704  0.8356
  298TIP3   OH225088   2.056   5.437   2.193  0.6487 -0.5202  0.7710
  298TIP3    H125089   2.111   5.369   2.154  1.4781 -0.1794  1.3176
  298TIP3    H225090   2.112   5.478   2.259  0.5400  1.4011 -0.2576
  299TIP3   OH225091   3.559   5.189   9.424 -0.2940  0.4339 -0.5808
  299TIP3    H125092   3.484   5.176   9.365 -1.0248  0.1939  0.3752
  299TIP3    H225093   3.628   5.224   9.368 -0.7443 -0.4455 -1.7176
  300TIP3   OH225094   3.826   4.421   2.641  0.2742  0.1294 -0.2125
  300TIP3    H125095   3.790   4.332   2.644 -1.4621  0.5574 -3.6754
  300TIP3    H225096   3.752   4.477   2.663  0.7937  0.8140 -0.1735
  301TIP3   OH225097   5.779   0.496   1.186 -0.3817 -0.2951 -0.1431
  301TIP3    H125098   5.764   0.554   1.261 -0.7976 -1.3371  0.6099
  301TIP3    H225099   5.750   0.547   1.110  3.2647  2.1420 -0.1218
  302TIP3   OH225100   5.277   5.089   0.763  0.1820 -0.2491  0.1637
  302TIP3    H125101   5.194   5.048   0.740  0.0099 -0.3729  0.9964
  302TIP3    H225102   5.341   5.018   0.761  0.2919 -0.1442 -0.5309
  303TIP3   OH225103   1.942   3.560   9.337  0.7246 -0.0396 -0.3736
  303TIP3    H125104   1.945   3.493   9.405  0.8251 -0.0852 -0.4227
  303TIP3    H225105   1.974   3.516   9.258 -1.1426 -0.5113 -0.9109
  304TIP3   OH225106   4.243   3.029   1.419 -0.7374  0.1579  0.4252
  304TIP3    H125107   4.331   3.010   1.385 -0.8257  0.5854 -0.0591
  304TIP3    H225108   4.246   3.001   1.510 -0.1248  0.0782  0.3864
  305TIP3   OH225109   6.311   2.693   7.437  0.0884 -0.2216 -0.2536
  305TIP3    H125110   6.283   2.650   7.518 -1.4349  0.0573 -0.6104
  305TIP3    H225111   6.286   2.632   7.368 -0.3506  0.3849 -0.6367
  306TIP3   OH225112   6.950   3.980   3.001  0.0841 -0.2235  0.1192
  306TIP3    H125113   6.895   4.000   3.077  1.6054  0.6027  1.0541
  306TIP3    H225114   6.977   4.065   2.967  0.4932 -0.6041 -0.5372
  307TIP3   OH225115   7.081   5.692   7.946 -0.5130 -0.6152 -0.0620
  307TIP3    H125116   7.073   5.787   7.960 -0.7646 -0.6923  0.3326
  307TIP3    H225117   6.994   5.657   7.966 -0.3321 -0.9690  0.1207
  308TIP3   OH225118   6.858   5.224   8.876 -0.2815  0.0398  0.0720
  308TIP3    H125119   6.855   5.240   8.782 -0.9857  0.7996  0.2129
  308TIP3    H225120   6.948   5.196   8.893 -0.0776  0.1477 -0.7849
  309TIP3   OH225121   5.153   3.800   7.760  0.5094 -0.1542 -0.2833
  309TIP3    H125122   5.132   3.791   7.853 -1.7773  0.9765 -0.6172
  309TIP3    H225123   5.163   3.895   7.747 -0.4640 -0.1866 -1.4066
  310TIP3   OH225124   0.605   2.107   9.733 -0.2485  0.5037 -0.0530
  310TIP3    H125125   0.693   2.141   9.715  0.0295 -0.1159  0.1398
  310TIP3    H225126   0.547   2.179   9.708  0.1720  0.1499 -2.3042
  311TIP3   OH225127   0.590   0.613   8.615 -0.1225  0.0874 -0.2412
  311TIP3    H125128   0.554   0.544   8.671 -1.1830  0.3613 -0.5742
  311TIP3    H225129   0.665   0.647   8.665  0.4308 -1.2934 -0.0794
  312TIP3   OH225130   2.155   6.647   1.720 -0.0748 -0.8238  0.4145
  312TIP3    H125131   2.123   6.609   1.802 -0.3826  2.9338  2.2319
  312TIP3    H225132   2.081   6.640   1.660 -0.5340 -1.8754  1.0780
  313TIP3   OH225133   4.413   7.138   8.572  0.0061  0.2382 -0.1981
  313TIP3    H125134   4.440   7.145   8.481 -0.9755  1.4603 -0.4225
  313TIP3    H225135   4.485   7.175   8.622 -0.0609  0.9060 -0.5894
  314TIP3   OH225136   0.933   6.925   1.758  0.5728 -0.5116  0.8936
  314TIP3    H125137   0.942   6.832   1.741 -0.2179 -0.1208 -2.2284
  314TIP3    H225138   1.006   6.966   1.711 -1.8535  0.6996 -2.1593
  315TIP3   OH225139   7.045   0.174   8.024  0.3613  0.3973 -0.0727
  315TIP3    H125140   7.055   0.140   7.935 -0.0748  1.3643 -0.5079
  315TIP3    H225141   7.130   0.213   8.044  0.3628  0.4493 -0.1810
  316TIP3   OH225142   2.678   5.005   9.074  0.2833 -0.2824 -0.4321
  316TIP3    H125143   2.625   5.021   9.152  1.3763 -2.0977  0.7864
  316TIP3    H225144   2.627   5.040   9.002 -0.2978  2.4318  1.1771
  317TIP3   OH225145   2.956   6.655   0.384  0.0213 -0.1315  0.0106
  317TIP3    H125146   3.031   6.681   0.437  0.2639  0.7211 -0.7200
  317TIP3    H225147   2.994   6.607   0.310  0.0382  1.6363 -1.1917
  318TIP3   OH225148   6.449   4.912   7.834  0.6050  0.1410  0.1988
  318TIP3    H125149   6.443   4.904   7.929  0.3842  0.5139  0.2189
  318TIP3    H225150   6.469   5.005   7.819 -1.8057  0.6609 -0.2039
  319TIP3   OH225151   4.451   3.896   9.403  0.2034  0.8729 -0.3794
  319TIP3    H125152   4.502   3.849   9.336  1.5622  0.7070  0.7296
  319TIP3    H225153   4.384   3.834   9.430 -1.0475  1.3045 -2.2968
  320TIP3   OH225154   0.604   5.908   7.667  0.0552  1.1690 -0.2430
  320TIP3    H125155   0.617   5.997   7.634  1.3850  0.7939 -0.8175
  320TIP3    H225156   0.533   5.872   7.613  0.2331  1.5359 -0.7336
  321TIP3   OH225157   2.023   6.503   8.583 -0.5324  0.7754 -0.6240
  321TIP3    H125158   2.052   6.579   8.634 -1.2950 -0.3640  1.6079
  321TIP3    H225159   2.104   6.469   8.544  0.3203  0.8254  1.0329
  322TIP3   OH225160   6.062   1.786   8.228 -0.0225 -0.0657 -0.6046
  322TIP3    H125161   5.990   1.823   8.279 -2.1510 -1.2837 -2.5457
  322TIP3    H225162   6.104   1.862   8.186 -1.1752  0.5439 -0.6728
  323TIP3   OH225163   5.594   5.104   0.017 -0.0006 -0.1334  0.5732
  323TIP3    H125164   5.525   5.162   0.046 -0.6676 -0.4061 -0.4160
  323TIP3    H225165   5.620   5.138  -0.069 -1.4371 -2.1117 -0.7221
  324TIP3   OH225166   0.972   4.312   7.850  0.4888 -0.5655 -0.3198
  324TIP3    H125167   0.877   4.325   7.843  0.5004 -1.2738 -2.6833
  324TIP3    H225168   0.982   4.250   7.923 -0.9146 -0.9130 -0.3824
  325TIP3   OH225169   1.621   7.217   9.516 -0.0190 -0.1426 -0.2575
  325TIP3    H125170   1.620   7.296   9.462  0.6553  0.0302 -0.0258
  325TIP3    H225171   1.713   7.190   9.518 -0.0930 -0.3657  0.4850
  326TIP3   OH225172   1.334   0.432   9.900 -0.0715  0.5026 -0.2203
  326TIP3    H125173   1.287   0.514   9.914 -0.2365  0.5945 -1.2198
  326TIP3    H225174   1.300   0.399   9.817  0.3867 -0.3046 -0.0973
  327TIP3   OH225175   6.305   2.121   9.891  0.5647 -0.2677  0.2651
  327TIP3    H125176   6.347   2.188   9.946  1.1904 -1.7697  1.6870
  327TIP3    H225177   6.364   2.046   9.895  0.4916 -0.5424 -2.2914
  328TIP3   OH225178   3.663   4.528   7.549 -0.0768 -0.2207 -0.0930
  328TIP3    H125179   3.626   4.453   7.504  0.5219 -0.3953 -0.3099
  328TIP3    H225180   3.625   4.524   7.637  0.8890 -1.5148  0.3097
  329TIP3   OH225181   3.992   2.735   1.990 -0.2184 -0.7512  0.4284
  329TIP3    H125182   4.072   2.782   1.967  0.0525 -1.1142  0.6187
  329TIP3    H225183   3.941   2.798   2.041 -1.1905  0.3597 -1.7615
  330TIP3   OH225184   1.298   1.357   9.156  0.0158 -0.1730  0.4152
  330TIP3    H125185   1.327   1.266   9.148  0.7109 -0.0659  1.4610
  330TIP3    H225186   1.339   1.402   9.082  1.5546 -0.2870  1.1507
  331TIP3   OH225187   0.864   7.236   0.299  0.1264  0.7499  0.5081
  331TIP3    H125188   0.896   7.166   0.243 -0.7773  1.2999 -0.7308
  331TIP3    H225189   0.790   7.198   0.346 -1.8111  1.4273 -1.8069
  332TIP3   OH225190   1.990   1.261   9.316  0.3449  0.2846 -0.5296
  332TIP3    H125191   1.910   1.302   9.281 -0.5140 -0.4656  0.4892
  332TIP3    H225192   2.027   1.327   9.374 -0.4621  0.0384  0.2904
  333TIP3   OH225193   4.073   0.149   0.480 -0.4227  0.4847 -0.3200
  333TIP3    H125194   4.120   0.084   0.428 -0.7710 -0.8756  1.0063
  333TIP3    H225195   3.980   0.131   0.463 -0.5450  2.1938 -1.7635
  334TIP3   OH225196   0.210   4.067   1.069  0.3033 -1.0455  0.3870
  334TIP3    H125197   0.144   4.120   1.025  0.2484 -1.1050  0.3976
  334TIP3    H225198   0.290   4.083   1.019 -0.0737 -2.2612 -0.6632
  335TIP3   OH225199   0.788   5.984   2.091  0.1285  0.2306  0.4228
  335TIP3    H125200   0.856   5.936   2.139  0.1975  0.3488  0.4432
  335TIP3    H225201   0.761   5.924   2.021 -0.4067 -0.1856  0.9771
  336TIP3   OH225202   2.887   3.646   9.577 -0.3053 -0.2330 -0.1704
  336TIP3    H125203   2.863   3.638   9.669  1.7272 -1.0620  0.3353
  336TIP3    H225204   2.929   3.732   9.570  1.5630 -1.0612  0.2264
  337TIP3   OH225205   2.751   0.749   7.270 -0.1998 -0.1424 -0.1372
  337TIP3    H125206   2.674   0.711   7.228 -0.8251 -1.0684  1.7033
  337TIP3    H225207   2.805   0.781   7.198 -1.4337 -1.1456 -1.5745
  338TIP3   OH225208   0.806   2.954   1.146  0.1857 -0.1089 -0.0212
  338TIP3    H125209   0.847   2.917   1.067 -2.1120 -1.4464 -0.6760
  338TIP3    H225210   0.879   2.994   1.194  1.8313 -0.1696 -2.2949
  339TIP3   OH225211   0.511   2.048   1.688  0.3658  0.5912  0.1719
  339TIP3    H125212   0.425   2.027   1.725 -0.0746  0.1777 -1.0343
  339TIP3    H225213   0.572   2.037   1.761 -0.1919 -2.1413  0.3066
  340TIP3   OH225214   1.689   0.653   8.075  0.0428  0.0012 -0.0831
  340TIP3    H125215   1.688   0.593   8.150 -1.3985 -0.7261 -0.6373
  340TIP3    H225216   1.598   0.684   8.069  0.2298  0.3559 -1.2874
  341TIP3   OH225217   5.987   6.351   7.741 -0.3035 -0.4625  0.0152
  341TIP3    H125218   5.998   6.340   7.836  0.6522 -0.2886 -0.0711
  341TIP3    H225219   6.007   6.444   7.726  2.0303 -1.0235 -0.6840
  342TIP3   OH225220   6.412   6.130   9.014 -0.2197 -0.2673 -0.5045
  342TIP3    H125221   6.424   6.194   9.083 -1.4407 -1.0871  0.5020
  342TIP3    H225222   6.451   6.170   8.937  1.1808  0.6670  0.6437
  343TIP3   OH225223   1.878   2.380   7.512  0.1030 -0.0400 -0.3318
  343TIP3    H125224   1.868   2.468   7.476  0.1206  0.7676  1.5080
  343TIP3    H225225   1.972   2.363   7.509  0.2766  0.6543  0.6840
  344TIP3   OH225226   2.497   1.843   0.395  0.3372  0.2842 -0.4401
  344TIP3    H125227   2.571   1.830   0.336 -0.0626 -2.1466 -0.4956
  344TIP3    H225228   2.434   1.776   0.370 -1.3981  1.5300  0.4073
  345TIP3   OH225229   6.198   3.471   0.716  0.8288  0.5346  0.3943
  345TIP3    H125230   6.116   3.438   0.753  0.9812 -1.1908 -0.7068
  345TIP3    H225231   6.264   3.450   0.783  0.5231  1.1060  0.8844
  346TIP3   OH225232   3.490   1.151   0.276  0.7593  0.2306  0.6368
  346TIP3    H125233   3.431   1.169   0.349 -0.8240 -0.2845 -0.4621
  346TIP3    H225234   3.485   1.230   0.221  1.4429  0.3587  0.7523
  347TIP3   OH225235   0.189   5.523   1.317  0.3214 -0.0242  0.1208
  347TIP3    H125236   0.106   5.486   1.348 -1.2684  1.5123 -2.0018
  347TIP3    H225237   0.176   5.618   1.319  2.4100  0.3076  0.6294
  348TIP3   OH225238   5.214   6.855   0.849  0.3172  0.4004  0.0501
  348TIP3    H125239   5.296   6.816   0.818  0.4419  0.8577 -0.2030
  348TIP3    H225240   5.195   6.808   0.930 -0.6839 -1.6872 -1.3161
  349TIP3   OH225241   6.448   1.925   0.007  0.2614 -0.2176 -0.2681
  349TIP3    H125242   6.530   1.968  -0.015  0.2542 -1.4191 -3.0953
  349TIP3    H225243   6.470   1.832   0.011 -0.7242 -0.4398  0.1615
  350TIP3   OH225244   7.178   1.953   1.519 -0.3007 -0.1901  0.0738
  350TIP3    H125245   7.138   1.901   1.589  0.7720 -0.0397  0.8177
  350TIP3    H225246   7.251   1.997   1.561  0.7789 -0.6163 -1.2871
  351TIP3   OH225247   2.412   4.314   7.607  0.1292 -0.2710 -0.0160
  351TIP3    H125248   2.316   4.313   7.611  0.1523 -0.0192  0.7248
  351TIP3    H225249   2.433   4.272   7.523 -0.5936 -1.5387  0.4070
  352TIP3   OH225250   1.259   2.987   7.120 -0.0290  0.6220  0.4819
  352TIP3    H125251   1.279   2.967   7.028  1.0041 -1.4334  1.0772
  352TIP3    H225252   1.203   3.063   7.116 -0.4895  0.2522 -1.9074
  353TIP3   OH225253   2.995   2.162   7.588 -0.0045 -0.4105 -0.2325
  353TIP3    H125254   3.030   2.192   7.505  0.3763  1.5013  0.5627
  353TIP3    H225255   2.916   2.215   7.602 -0.1723 -0.8394  0.5424
  354TIP3   OH225256   5.411   3.483   9.929 -0.5034  0.3819 -0.8195
  354TIP3    H125257   5.497   3.473   9.888 -0.9127  1.3640 -1.9597
  354TIP3    H225258   5.374   3.561   9.888 -1.6500  0.3873  0.1877
  355TIP3   OH225259   1.674   7.181   1.406 -0.0231  0.2291 -0.2049
  355TIP3    H125260   1.644   7.263   1.366  0.3134  1.1189  1.3031
  355TIP3    H225261   1.744   7.208   1.466 -0.2392 -1.1034  0.6841
  356TIP3   OH225262   5.809   0.660   0.021  0.0862 -0.4004 -0.9324
  356TIP3    H125263   5.778   0.625   0.105  1.4935  1.7078  0.5491
  356TIP3    H225264   5.732   0.655  -0.037 -1.1133 -1.2653  0.6525
  357TIP3   OH225265   2.720   0.395   9.485 -0.2473  0.6176 -0.0603
  357TIP3    H125266   2.725   0.310   9.441 -0.0649  2.0085 -2.9633
  357TIP3    H225267   2.811   0.423   9.494 -0.3683  1.4802 -1.2834
  358TIP3   OH225268   3.610   7.210   7.462  0.2998  0.1378 -0.4889
  358TIP3    H125269   3.580   7.150   7.530 -0.6970  0.6836 -0.4247
  358TIP3    H225270   3.574   7.174   7.381  0.2091  0.3258 -0.5308
  359TIP3   OH225271   0.289   4.525   0.330  0.7503 -0.4777  0.4458
  359TIP3    H125272   0.213   4.521   0.389  0.9242 -0.7608  0.6509
  359TIP3    H225273   0.267   4.468   0.257  0.8809 -0.7751  0.6390
  360TIP3   OH225274   2.468   3.984   1.390 -0.6171 -0.1206 -0.1843
  360TIP3    H125275   2.483   4.022   1.477  0.5438 -0.2718 -0.2972
  360TIP3    H225276   2.487   3.891   1.401  0.6814  0.0406 -0.8321
  361TIP3   OH225277   4.485   7.151   9.337 -0.3168 -0.3551  0.2663
  361TIP3    H125278   4.459   7.092   9.408  0.3002 -1.7376 -0.6287
  361TIP3    H225279   4.433   7.124   9.262 -0.0819  0.3071 -0.1444
  362TIP3   OH225280   3.688   6.826   1.274 -0.2635 -0.2166 -0.1436
  362TIP3    H125281   3.745   6.780   1.212 -0.3193  1.7173 -1.7384
  362TIP3    H225282   3.672   6.763   1.343  1.9553 -1.6157 -0.7889
  363TIP3   OH225283   1.423   5.145   1.203 -0.9791  0.1018 -0.1511
  363TIP3    H125284   1.490   5.169   1.138  0.2936 -2.3893  0.1133
  363TIP3    H225285   1.434   5.208   1.274  1.0913 -0.1826 -0.1539
  364TIP3   OH225286   0.565   5.511   3.222 -0.0043 -0.1546  0.4857
  364TIP3    H125287   0.568   5.472   3.309 -0.8869  0.8341  0.9757
  364TIP3    H225288   0.622   5.588   3.228 -0.2043  0.0143  0.2390
  365TIP3   OH225289   3.700   3.695   9.761 -0.5991  0.0792 -0.4384
  365TIP3    H125290   3.752   3.774   9.777  0.5151 -0.4561 -1.2448
  365TIP3    H225291   3.720   3.638   9.836 -0.1911 -0.0325 -0.6280
  366TIP3   OH225292   3.971   7.052   1.708  0.2912 -0.4753  0.1680
  366TIP3    H125293   3.992   7.057   1.801 -0.2625  0.7286  0.2493
  366TIP3    H225294   4.054   7.027   1.666  0.6305 -0.6763  0.9451
  367TIP3   OH225295   7.224   4.279   7.297  0.2935  0.1444  0.1296
  367TIP3    H125296   7.286   4.288   7.224 -0.0969  0.6848 -0.1404
  367TIP3    H225297   7.256   4.340   7.363  0.3002  0.0975  0.1693
  368TIP3   OH225298   1.594   4.078   2.066  0.2457 -0.0449  0.2684
  368TIP3    H125299   1.687   4.058   2.080  0.1787  0.4535  1.6341
  368TIP3    H225300   1.550   3.993   2.076  0.5797 -0.3685 -0.8630
  369TIP3   OH225301   0.839   4.972   6.761 -0.4096 -0.0159 -0.0934
  369TIP3    H125302   0.756   4.941   6.798  0.0893  0.9950  2.0785
  369TIP3    H225303   0.898   4.897   6.769 -1.1433 -0.8544 -1.9753
  370TIP3   OH225304   0.406   2.192   1.188  0.3746 -0.2356 -0.0192
  370TIP3    H125305   0.437   2.270   1.234  1.1411 -0.1866 -0.5869
  370TIP3    H225306   0.338   2.155   1.245  1.8038 -0.6096  1.5526
  371TIP3   OH225307   6.926   6.550   7.138  0.0608  0.2125 -0.0679
  371TIP3    H125308   6.849   6.594   7.174 -0.7323 -0.3485 -1.0511
  371TIP3    H225309   6.893   6.469   7.100  1.4493 -1.1446  1.4189
  372TIP3   OH225310   6.300   5.813   0.870 -0.2371  0.1039  0.0910
  372TIP3    H125311   6.249   5.856   0.938 -1.7422  1.5629 -1.8448
  372TIP3    H225312   6.357   5.882   0.836 -1.6281  0.2734 -2.0668
  373TIP3   OH225313   5.193   1.243   0.624 -0.6875  0.2982 -0.0654
  373TIP3    H125314   5.158   1.160   0.591  0.4715  0.4748 -1.8658
  373TIP3    H225315   5.249   1.218   0.697 -2.4661 -0.2159  1.1921
  374TIP3   OH225316   6.353   2.553   1.813 -0.0499  0.3729 -0.6308
  374TIP3    H125317   6.273   2.582   1.856 -0.2195 -0.8431 -0.0815
  374TIP3    H225318   6.422   2.566   1.878 -0.0988 -0.2643 -0.4464
  375TIP3   OH225319   4.544   5.404   2.050 -0.2798 -0.1726  0.2546
  375TIP3    H125320   4.563   5.417   1.957  0.0541 -0.0504  0.3392
  375TIP3    H225321   4.450   5.387   2.052 -0.2635 -0.3278 -0.1207
  376TIP3   OH225322   2.797   1.147   9.972 -0.6143 -0.0499 -0.8041
  376TIP3    H125323   2.786   1.062  10.016  0.2189 -1.5458 -3.2638
  376TIP3    H225324   2.714   1.162   9.927  0.3163 -1.3027 -3.0727
  377TIP3   OH225325   3.196   2.461   1.709  0.5327 -0.5731 -0.8546
  377TIP3    H125326   3.182   2.377   1.753 -1.7153 -1.0684 -2.3732
  377TIP3    H225327   3.142   2.523   1.757  0.6109 -0.4302 -0.9506
  378TIP3   OH225328   5.323   2.009   9.714  0.8200  0.2495 -0.3270
  378TIP3    H125329   5.404   2.011   9.766  0.8892  0.6293 -0.4467
  378TIP3    H225330   5.263   2.068   9.761  0.7304  0.2408 -0.4305
  379TIP3   OH225331   4.749   3.384   1.338  0.4089 -0.4997  0.3819
  379TIP3    H125332   4.664   3.353   1.369  0.2934 -0.4839  0.0808
  379TIP3    H225333   4.750   3.363   1.245 -0.8734  2.9865 -0.5718
  380TIP3   OH225334   4.817   5.334   1.607  0.4526 -0.0778 -0.0377
  380TIP3    H125335   4.797   5.412   1.659 -1.3855 -0.3765 -0.2248
  380TIP3    H225336   4.806   5.363   1.516 -0.3984 -0.5646 -0.1037
  381TIP3   OH225337   2.363   4.621   9.195  0.4860 -0.4740  0.2043
  381TIP3    H125338   2.423   4.579   9.134  2.2908  0.7049  1.0869
  381TIP3    H225339   2.352   4.710   9.160  2.3609  0.5603  2.0348
  382TIP3   OH225340   6.665   3.880   1.606 -0.0307  0.3669  0.4944
  382TIP3    H125341   6.633   3.821   1.537 -0.5965 -0.3644  1.3646
  382TIP3    H225342   6.653   3.968   1.569 -0.0703 -0.0144 -0.4443
  383TIP3   OH225343   1.679   4.085   9.138 -0.2415  0.1390  0.0066
  383TIP3    H125344   1.671   4.146   9.064 -0.1864 -1.1714 -1.1184
  383TIP3    H225345   1.739   4.129   9.198 -0.1565  1.1643 -0.7905
  384TIP3   OH225346   5.559   4.610   1.143  0.2540  0.2473 -0.1176
  384TIP3    H125347   5.585   4.587   1.232 -0.2776 -0.4816 -0.1387
  384TIP3    H225348   5.471   4.648   1.152 -0.3444 -0.9895 -0.4353
  385TIP3   OH225349   0.058   2.072   0.033  0.4742 -0.1498 -0.1776
  385TIP3    H125350   0.030   2.130  -0.038 -2.0179 -0.6760  0.2606
  385TIP3    H225351   0.063   2.128   0.110 -1.7248 -0.3585  0.2015
  386TIP3   OH225352   2.104   6.600   7.938 -0.1263  0.1725  0.2737
  386TIP3    H125353   2.172   6.557   7.887  0.8818  0.5974  1.2025
  386TIP3    H225354   2.119   6.570   8.028 -1.1603  0.2910  0.4978
  387TIP3   OH225355   0.789   2.268   1.072 -0.1355  0.1110  0.1071
  387TIP3    H125356   0.866   2.225   1.034 -0.1496  0.6675 -0.5767
  387TIP3    H225357   0.803   2.361   1.054 -0.4103  0.3427  1.0100
  388TIP3   OH225358   1.218   5.689   1.261 -0.0426 -0.2253 -0.7681
  388TIP3    H125359   1.132   5.730   1.256  0.0730 -0.1293 -2.7035
  388TIP3    H225360   1.275   5.758   1.295 -0.3872  0.3067 -1.2565
  389TIP3   OH225361   1.684   1.050   8.188  0.1469  0.4406  0.1562
  389TIP3    H125362   1.692   0.990   8.262  0.2523  0.6853  0.3427
  389TIP3    H225363   1.761   1.107   8.194  0.1951  0.4161 -0.1836
  390TIP3   OH225364   3.576   6.652   8.918  0.1619 -0.1311  0.7258
  390TIP3    H125365   3.496   6.624   8.873  0.0974  0.1596  0.6612
  390TIP3    H225366   3.546   6.714   8.985  0.1613 -1.1653  1.7233
  391TIP3   OH225367   7.281   3.696   9.862 -0.5822  0.3038 -0.5518
  391TIP3    H125368   7.258   3.603   9.861 -0.4814  0.2754 -0.2688
  391TIP3    H225369   7.278   3.722   9.770  0.7933 -0.3273 -0.7991
  392TIP3   OH225370   1.800   4.341   9.442  0.1628 -0.1968  0.5765
  392TIP3    H125371   1.801   4.397   9.364  3.3340 -0.2501  0.4654
  392TIP3    H225372   1.805   4.252   9.407 -0.9924 -0.3819  0.8370
  393TIP3   OH225373   3.205   6.168   0.359  0.1409  0.1091 -0.3416
  393TIP3    H125374   3.141   6.097   0.360  1.0716 -0.7740 -1.1369
  393TIP3    H225375   3.222   6.183   0.266  0.4757  0.9015 -0.1576
  394TIP3   OH225376   1.223   4.682   3.157  0.1082  0.6444  0.2578
  394TIP3    H125377   1.216   4.587   3.162 -0.6280  0.7312  1.1547
  394TIP3    H225378   1.187   4.713   3.240 -0.0354  1.7241 -0.1927
  395TIP3   OH225379   0.629   0.934   0.897  0.2684  0.5692  0.0738
  395TIP3    H125380   0.548   0.941   0.947  0.5363  0.4446  0.5329
  395TIP3    H225381   0.684   0.875   0.949  0.5624  0.4595 -0.3540
  396TIP3   OH225382   5.195   0.636   1.945  0.0775  0.0897  0.2684
  396TIP3    H125383   5.222   0.576   2.015  1.0371 -0.1322 -0.2835
  396TIP3    H225384   5.149   0.581   1.882  2.0269 -0.3413 -0.8461
  397TIP3   OH225385   2.254   1.539   0.948  0.0078  0.2878 -0.4214
  397TIP3    H125386   2.349   1.547   0.955  0.0001  0.9871 -0.9361
  397TIP3    H225387   2.220   1.586   1.025  0.0575  1.8273 -1.2873
  398TIP3   OH225388   6.068   1.217   2.591  0.2909 -0.2715  0.3342
  398TIP3    H125389   6.144   1.238   2.645 -0.1573 -0.5309  1.0686
  398TIP3    H225390   6.014   1.160   2.645 -0.7082  0.3624  0.0287
  399TIP3   OH225391   5.014   0.482   0.209  0.6818  0.8382  0.2595
  399TIP3    H125392   4.922   0.507   0.210  0.5012  0.1743  0.1927
  399TIP3    H225393   5.025   0.431   0.129  0.2973 -2.0250  1.8822
  400TIP3   OH225394   0.202   7.163   9.493 -0.0932 -0.6169  0.0034
  400TIP3    H125395   0.139   7.091   9.490 -0.6023 -0.1576 -0.7955
  400TIP3    H225396   0.233   7.164   9.583 -0.1240 -1.7879  0.0510
  401TIP3   OH225397   0.348   5.968   8.318 -0.0892 -0.0088 -0.1448
  401TIP3    H125398   0.340   5.951   8.224 -0.7963 -0.0184 -0.0893
  401TIP3    H225399   0.397   6.050   8.325 -1.5877  0.9469 -0.5749
  402TIP3   OH225400   1.303   2.440   1.359 -0.4164 -0.5157  0.0033
  402TIP3    H125401   1.239   2.511   1.366  0.4797  0.1968  1.5475
  402TIP3    H225402   1.352   2.460   1.279 -0.8752 -0.0111 -0.1604
  403TIP3   OH225403   5.631   4.442   2.424  0.2272  0.1122  0.0542
  403TIP3    H125404   5.653   4.507   2.491 -0.9314 -0.7114  1.2641
  403TIP3    H225405   5.680   4.364   2.449  0.9648  0.2432 -0.9289
  404TIP3   OH225406   4.008   3.697   9.499 -0.7492  0.4813  0.2057
  404TIP3    H125407   3.988   3.753   9.424 -0.8152  0.3072  0.0923
  404TIP3    H225408   3.964   3.614   9.480 -0.5081  0.3314  0.2885
  405TIP3   OH225409   5.911   3.880   8.102 -0.5290 -0.2146  0.3563
  405TIP3    H125410   5.859   3.819   8.050 -0.7714  0.5143 -0.2657
  405TIP3    H225411   6.002   3.852   8.088 -0.7113 -1.3535  1.2700
  406TIP3   OH225412   5.760   5.682   0.219 -0.3613 -0.0269  0.2676
  406TIP3    H125413   5.849   5.711   0.203 -1.2306  1.2812 -2.9469
  406TIP3    H225414   5.769   5.591   0.249  2.0144 -0.3182 -1.1202
  407TIP3   OH225415   3.632   4.435   9.948  0.1744 -0.0319  0.3371
  407TIP3    H125416   3.704   4.386   9.988  1.0481  1.0986  0.2025
  407TIP3    H225417   3.666   4.524   9.939 -1.1765  0.4786  0.0781
  408TIP3   OH225418   2.399   6.560   9.792 -0.1137  0.0711 -0.5745
  408TIP3    H125419   2.351   6.543   9.711  0.5329 -0.1013 -0.9276
  408TIP3    H225420   2.490   6.541   9.770  0.1397  0.5606  0.0357
  409TIP3   OH225421   3.782   6.348   1.963  0.0829  0.1936  0.3717
  409TIP3    H125422   3.754   6.280   2.024  2.4872 -0.0939  1.2453
  409TIP3    H225423   3.839   6.303   1.900 -0.4559  0.9296 -0.6896
  410TIP3   OH225424   5.656   2.706   2.766 -0.6471 -0.5505  0.2921
  410TIP3    H125425   5.598   2.630   2.764 -0.4589 -0.7735  1.8233
  410TIP3    H225426   5.613   2.767   2.827 -0.2325  0.0946 -0.0476
  411TIP3   OH225427   7.216   2.598   0.808 -0.6715 -0.0958  0.0933
  411TIP3    H125428   7.154   2.535   0.845 -1.9998  0.8440 -0.4582
  411TIP3    H225429   7.199   2.596   0.714 -0.3743  0.7158  0.0150
  412TIP3   OH225430   0.406   5.085   0.714  0.1216  0.2334  0.3014
  412TIP3    H125431   0.334   5.111   0.656 -0.5972  1.4612  1.7075
  412TIP3    H225432   0.457   5.165   0.728  1.5505 -0.5144 -0.3049
  413TIP3   OH225433   4.776   0.043   8.975  0.4983 -0.0717  0.1656
  413TIP3    H125434   4.834   0.092   9.034  0.4885  0.7037 -0.4564
  413TIP3    H225435   4.733  -0.021   9.032 -1.8052  2.5994  1.7078
  414TIP3   OH225436   4.807   6.400   9.042 -0.4521 -0.0086 -0.1164
  414TIP3    H125437   4.751   6.323   9.029 -0.4470  0.1866 -1.4333
  414TIP3    H225438   4.811   6.441   8.956 -1.1822  1.9952  0.7540
  415TIP3   OH225439   1.545   1.651   7.188  0.0299  0.3604 -0.3949
  415TIP3    H125440   1.542   1.587   7.259  1.5119 -0.5312 -1.0952
  415TIP3    H225441   1.571   1.732   7.231  1.6526 -0.3370 -0.0046
  416TIP3   OH225442   0.223   0.093   1.529  0.5697 -0.0967  0.2956
  416TIP3    H125443   0.220   0.181   1.490  0.7508 -0.2070  0.0320
  416TIP3    H225444   0.162   0.098   1.603 -1.1668 -0.4004 -1.0507
  417TIP3   OH225445   0.337   0.232   7.929  0.4734 -0.5903 -0.2167
  417TIP3    H125446   0.272   0.172   7.894  2.1209 -2.9621  0.5077
  417TIP3    H225447   0.375   0.275   7.852 -1.2296  0.1218 -0.6936
  418TIP3   OH225448   1.628   5.889   2.846 -0.0050  0.0711  0.3948
  418TIP3    H125449   1.647   5.795   2.847  0.4082  0.1197 -1.2295
  418TIP3    H225450   1.533   5.894   2.850  0.0082 -0.3374  2.2799
  419TIP3   OH225451   0.303   2.939   9.468 -0.6013  0.1023 -0.2579
  419TIP3    H125452   0.290   3.011   9.530 -1.3455  0.8702 -1.2751
  419TIP3    H225453   0.260   2.864   9.510  0.6118  0.0883  1.0411
  420TIP3   OH225454   1.755   5.333   1.722 -0.5458 -0.0493  0.2187
  420TIP3    H125455   1.786   5.244   1.704 -0.5276 -0.1459  0.7211
  420TIP3    H225456   1.816   5.367   1.788  0.3623  0.8784 -1.0521
  421TIP3   OH225457   1.636   5.531   8.633  0.2353  0.2728  0.4783
  421TIP3    H125458   1.541   5.542   8.629  0.1352  0.4956  2.2921
  421TIP3    H225459   1.658   5.478   8.557 -1.2306  0.9047 -0.4155
  422TIP3   OH225460   5.568   6.018   9.176 -0.8795  0.0981 -0.0875
  422TIP3    H125461   5.644   5.961   9.166 -0.6258  0.3304  0.4811
  422TIP3    H225462   5.520   5.981   9.250 -1.3931 -0.1200 -0.5202
  423TIP3   OH225463   5.934   4.567   1.266  0.0229 -0.2601  0.1214
  423TIP3    H125464   5.916   4.626   1.193 -0.7492 -1.0228 -0.3214
  423TIP3    H225465   5.848   4.547   1.303  0.0605 -2.5222 -0.8730
  424TIP3   OH225466   5.674   0.811   9.469 -0.1121  0.0798 -0.0678
  424TIP3    H125467   5.735   0.874   9.431  3.3981 -2.9527 -0.0904
  424TIP3    H225468   5.669   0.834   9.561  1.5938  0.1056  0.0423
  425TIP3   OH225469   7.145   6.265   6.908 -0.2030 -0.3140 -0.0601
  425TIP3    H125470   7.207   6.299   6.973 -0.9514  1.6876 -0.3156
  425TIP3    H225471   7.170   6.174   6.896  0.9077 -0.3218  1.9169
  426TIP3   OH225472   3.132   6.708   6.902  0.0405  0.1341  1.0733
  426TIP3    H125473   3.134   6.622   6.861  0.3667  1.0741 -1.0131
  426TIP3    H225474   3.039   6.727   6.913 -0.0541 -0.1067  0.7056
  427TIP3   OH225475   7.146   1.364   2.099  0.6819 -0.1117  0.3998
  427TIP3    H125476   7.167   1.452   2.131  3.5296 -0.9395  1.1265
  427TIP3    H225477   7.226   1.313   2.116  0.6605 -1.8527 -3.6025
  428TIP3   OH225478   5.415   2.502   1.610 -0.0442  0.2325  0.4197
  428TIP3    H125479   5.412   2.555   1.530 -1.4833 -1.2844 -0.6032
  428TIP3    H225480   5.346   2.538   1.665 -0.3053  0.1005  0.1803
  429TIP3   OH225481   3.947   2.278   2.137 -0.6374 -0.3746  0.1704
  429TIP3    H125482   3.926   2.315   2.223  0.6554  0.2464  0.2511
  429TIP3    H225483   4.017   2.215   2.154 -0.2610 -0.1320 -0.4439
  430TIP3   OH225484   2.377   1.142   6.661  0.0244  0.3206  0.1104
  430TIP3    H125485   2.374   1.235   6.639  2.1674  0.0708 -1.6416
  430TIP3    H225486   2.460   1.131   6.707 -0.4191 -0.6627  0.7134
  431TIP3   OH225487   0.014   1.513   0.118 -0.7101  0.5195 -0.1435
  431TIP3    H125488   0.003   1.570   0.194 -3.1361 -0.4234  0.3295
  431TIP3    H225489   0.023   1.425   0.155 -0.9757  0.1594 -0.8970
  432TIP3   OH225490   5.571   4.775   0.520 -0.0514 -0.1498 -0.1167
  432TIP3    H125491   5.619   4.696   0.543 -0.2367  0.2279  1.6765
  432TIP3    H225492   5.600   4.795   0.431  2.6460 -0.2969  0.6357
  433TIP3   OH225493   1.131   1.757   0.226  0.0486  0.3847  0.1544
  433TIP3    H125494   1.141   1.823   0.295 -1.0128 -0.1741  0.8834
  433TIP3    H225495   1.194   1.688   0.250 -1.2895 -0.4654  1.4237
  434TIP3   OH225496   7.108   3.573   1.174 -0.1089  0.0813  0.0287
  434TIP3    H125497   7.157   3.615   1.245 -2.0484  1.3618  0.7061
  434TIP3    H225498   7.019   3.608   1.183 -0.6988 -0.6343 -2.3235
  435TIP3   OH225499   6.131   2.620   2.339 -0.1114 -0.0779 -0.5349
  435TIP3    H125500   6.105   2.591   2.427 -1.1653  0.5832 -0.6129
  435TIP3    H225501   6.202   2.682   2.355 -0.2100 -0.0580 -0.1543
  436TIP3   OH225502   0.636   2.297   2.595 -0.3711 -0.0728  0.2899
  436TIP3    H125503   0.715   2.350   2.588  0.0412 -0.7095  0.0809
  436TIP3    H225504   0.580   2.345   2.655 -0.2269  0.8849 -0.3229
  437TIP3   OH225505   6.324   5.512   2.345  0.3933 -0.0944 -0.0788
  437TIP3    H125506   6.353   5.511   2.436  0.4675 -0.2241 -0.1040
  437TIP3    H225507   6.263   5.438   2.339 -1.5037  1.3303  0.4871
  438TIP3   OH225508   7.029   4.919   1.812  0.1379  0.5542  0.0199
  438TIP3    H125509   7.003   4.872   1.733  0.9259 -0.0972  0.1409
  438TIP3    H225510   6.981   4.875   1.883 -0.9027  1.4093 -0.1245
  439TIP3   OH225511   4.088   2.094   9.271  0.1968  0.2144 -0.2240
  439TIP3    H125512   4.181   2.111   9.283  0.5080 -2.2842  1.8751
  439TIP3    H225513   4.085   2.007   9.230 -1.1813 -0.3468  0.9959
  440TIP3   OH225514   0.519   5.527   1.683  0.4834  0.1922 -0.3041
  440TIP3    H125515   0.509   5.542   1.777  0.8249  0.1098 -0.2533
  440TIP3    H225516   0.519   5.615   1.644 -0.9764  0.1924 -0.3725
  441TIP3   OH225517   3.443   5.295   2.912 -0.3215  0.1155 -0.5305
  441TIP3    H125518   3.365   5.242   2.929 -0.7611  0.8557 -0.1536
  441TIP3    H225519   3.471   5.324   2.999 -1.0697  1.8411 -0.8096
  442TIP3   OH225520   1.701   2.044   1.796 -0.0309  0.5136 -0.4141
  442TIP3    H125521   1.769   2.037   1.729  0.7976  1.2657  0.3193
  442TIP3    H225522   1.621   2.064   1.747  0.3235 -0.0610 -1.2624
  443TIP3   OH225523   0.193   7.150   2.764  0.0459 -0.0254 -0.0581
  443TIP3    H125524   0.172   7.213   2.833  0.8599  0.8856 -0.6170
  443TIP3    H225525   0.235   7.203   2.696 -0.8649 -0.8799 -1.3151
  444TIP3   OH225526   2.209   6.619   2.379 -0.3530  0.2054  0.5969
  444TIP3    H125527   2.304   6.624   2.380 -0.3497  0.1094  0.9081
  444TIP3    H225528   2.187   6.564   2.455 -0.5916 -0.7673 -0.1490
  445TIP3   OH225529   0.126   0.637   9.556  0.1044 -0.4231 -0.2317
  445TIP3    H125530   0.128   0.729   9.533  0.5334 -0.1152  0.9730
  445TIP3    H225531   0.162   0.592   9.480  1.4977  0.5469 -0.1725
  446TIP3   OH225532   4.845   3.304   0.791  0.1115  0.4275 -0.1056
  446TIP3    H125533   4.792   3.372   0.834 -2.6082 -1.5245 -0.1556
  446TIP3    H225534   4.786   3.266   0.725  1.6777 -1.6984 -0.3604
  447TIP3   OH225535   3.159   0.803   0.921 -0.0726  0.1510 -0.0312
  447TIP3    H125536   3.143   0.752   0.842  1.5958 -0.4215 -0.0394
  447TIP3    H225537   3.251   0.785   0.943  0.4859  2.8751  0.1713
  448TIP3   OH225538   6.660   1.644   8.729  0.5562 -0.4206 -0.7077
  448TIP3    H125539   6.735   1.688   8.689  1.8975  1.0761  2.9841
  448TIP3    H225540   6.692   1.557   8.751  0.5363 -0.4802 -0.9119
  449TIP3   OH225541   4.148   4.976   1.879 -0.0661  0.0742  0.0221
  449TIP3    H125542   4.183   4.889   1.895  1.4115  0.1760 -2.1222
  449TIP3    H225543   4.053   4.968   1.893  0.1335 -1.6634  0.5400
  450TIP3   OH225544   5.568   4.903   9.662  0.4346  0.5004 -0.0405
  450TIP3    H125545   5.568   4.884   9.568 -1.7784  0.4345 -0.0891
  450TIP3    H225546   5.479   4.935   9.679  1.1903  1.7813  1.7990
  451TIP3   OH225547   4.633   3.886   2.176 -0.4181 -0.0034 -0.2588
  451TIP3    H125548   4.583   3.967   2.177  0.3594  0.4864  0.0550
  451TIP3    H225549   4.585   3.827   2.235 -1.8203 -0.3150 -1.6485
  452TIP3   OH225550   5.001   1.415   9.551 -0.0214  0.2296  0.1546
  452TIP3    H125551   5.066   1.369   9.604 -0.0080  1.8841  1.6674
  452TIP3    H225552   4.920   1.366   9.564 -0.1503  0.9186  2.2259
  453TIP3   OH225553   6.891   2.214   7.746 -0.1718 -0.4369 -0.2462
  453TIP3    H125554   6.805   2.247   7.717  0.2744 -0.4583 -1.6564
  453TIP3    H225555   6.873   2.172   7.830 -1.0565  2.0163  0.8869
  454TIP3   OH225556   3.602   4.960   9.617 -0.1201  0.0544 -0.0902
  454TIP3    H125557   3.538   4.891   9.600 -1.7062  1.0765  1.4288
  454TIP3    H225558   3.588   5.023   9.546 -0.9239  0.3290  0.2952
  455TIP3   OH225559   6.860   4.972   7.583  0.6875  0.1779  0.2147
  455TIP3    H125560   6.885   4.953   7.493 -0.3674  0.2520 -0.0958
  455TIP3    H225561   6.829   5.063   7.581  0.7452  0.2111  0.6706
  456TIP3   OH225562   4.117   6.586   7.921 -0.6161 -0.1465 -0.0275
  456TIP3    H125563   4.139   6.609   8.012 -0.5245 -0.4103  0.0164
  456TIP3    H225564   4.109   6.671   7.877  1.8334 -0.0376 -0.3755
  457TIP3   OH225565   1.941   4.085   0.240  0.4567  0.2271 -0.1640
  457TIP3    H125566   1.945   4.137   0.160  2.0465 -1.4651 -1.2550
  457TIP3    H225567   1.850   4.056   0.246  0.4054  0.0594 -1.5818
  458TIP3   OH225568   0.170   4.547   3.158 -0.2264  0.5957  0.1253
  458TIP3    H125569   0.187   4.623   3.214 -0.5498  1.0752 -0.4307
  458TIP3    H225570   0.078   4.527   3.171 -0.3012  0.7036 -0.2371
  459TIP3   OH225571   2.706   4.929   7.792 -0.1249 -0.4533  0.0092
  459TIP3    H125572   2.707   5.022   7.769  0.3138 -0.5616 -0.4346
  459TIP3    H225573   2.695   4.884   7.708 -0.3681 -0.8030  0.2264
  460TIP3   OH225574   7.181   2.764   2.129 -0.1544 -0.1644  0.2152
  460TIP3    H125575   7.163   2.720   2.212  1.6171 -0.8391  0.2888
  460TIP3    H225576   7.269   2.800   2.139 -0.4790  1.0358 -0.8534
  461TIP3   OH225577   3.471   1.241   1.799  0.1372  0.6457 -0.5517
  461TIP3    H125578   3.546   1.288   1.762  1.6446 -0.9436  0.3379
  461TIP3    H225579   3.502   1.151   1.811 -1.1118  0.4516  2.0005
  462TIP3   OH225580   6.040   6.608   7.590 -0.2881 -0.1426 -0.4477
  462TIP3    H125581   6.095   6.683   7.612 -1.7549  1.4805 -1.9966
  462TIP3    H225582   6.022   6.619   7.496 -1.5041 -1.7913 -0.4471
  463TIP3   OH225583   6.651   6.292   8.455  0.2901 -0.3843 -0.4037
  463TIP3    H125584   6.635   6.334   8.371  0.8721 -1.8873 -1.3173
  463TIP3    H225585   6.667   6.364   8.516  2.2079  0.7126 -2.0904
  464TIP3   OH225586   4.274   7.258   2.651  0.1252  0.3270 -0.3555
  464TIP3    H125587   4.268   7.260   2.556  2.5296  0.8361 -0.5772
  464TIP3    H225588   4.242   7.171   2.676  1.4609 -0.6545 -1.8583
  465TIP3   OH225589   6.679   2.447   0.793 -0.4998  0.4400 -0.1956
  465TIP3    H125590   6.743   2.482   0.855 -0.2851  0.4224 -0.4070
  465TIP3    H225591   6.646   2.367   0.834 -1.3285  1.1190  0.5041
  466TIP3   OH225592   2.910   6.732   2.077 -0.0144  0.0334  0.1342
  466TIP3    H125593   2.914   6.706   2.169  0.5198  1.4823  0.5336
  466TIP3    H225594   2.840   6.677   2.041  0.0535 -0.8632  1.2838
  467TIP3   OH225595   4.708   7.025   8.967  0.3169  0.0004 -0.1925
  467TIP3    H125596   4.686   6.959   8.901  2.2289 -0.5064 -0.3611
  467TIP3    H225597   4.740   6.975   9.042  1.8748  0.7003 -0.3489
  468TIP3   OH225598   6.920   6.074   2.272 -0.0223  0.2769 -0.3892
  468TIP3    H125599   6.914   6.114   2.359 -2.0440  0.1913 -0.4417
  468TIP3    H225600   6.870   6.133   2.215 -1.9554 -1.5752 -0.7303
  469TIP3   OH225601   2.951   6.131   2.674  0.1582 -0.7787  0.0688
  469TIP3    H125602   2.927   6.109   2.764 -0.6524 -1.3616 -0.2755
  469TIP3    H225603   2.999   6.214   2.681 -0.7358 -0.3187  0.9374
  470TIP3   OH225604   2.379   6.827   9.689 -0.2492  0.2643 -0.3103
  470TIP3    H125605   2.371   6.735   9.714 -0.5768  0.5178  0.5464
  470TIP3    H225606   2.339   6.832   9.602  0.0489 -0.4546 -0.4950
  471TIP3   OH225607   4.656   0.329   9.844 -0.0141 -0.1547  0.0288
  471TIP3    H125608   4.655   0.403   9.784  0.9350 -1.4413 -1.6891
  471TIP3    H225609   4.604   0.262   9.800  1.0415 -1.2798  0.4398
  472TIP3   OH225610   4.594   0.636   7.342 -0.1052  0.4641 -0.2336
  472TIP3    H125611   4.637   0.583   7.409  1.4238 -0.1900 -1.6604
  472TIP3    H225612   4.665   0.691   7.307 -1.1352  1.6719 -0.4945
  473TIP3   OH225613   3.080   2.653   9.239 -0.4310  0.6457 -0.1552
  473TIP3    H125614   3.057   2.568   9.200 -1.4431  0.2252  1.2301
  473TIP3    H225615   3.163   2.637   9.283 -0.3752  0.5061 -0.3090
  474TIP3   OH225616   1.975   0.549   1.501 -0.0761 -0.5710  0.4355
  474TIP3    H125617   2.049   0.573   1.445 -0.0067 -0.7319  0.4554
  474TIP3    H225618   2.015   0.532   1.587 -0.3259  0.8123  0.8455
  475TIP3   OH225619   5.356   6.165   7.377 -1.1405 -0.3888 -0.5680
  475TIP3    H125620   5.321   6.142   7.463  0.7926 -2.4909 -0.2619
  475TIP3    H225621   5.297   6.122   7.315 -1.5062 -0.3700 -0.2408
  476TIP3   OH225622   1.863   5.546   0.788 -0.4725 -0.0287 -0.3572
  476TIP3    H125623   1.929   5.506   0.845  0.5417 -0.1659 -1.5618
  476TIP3    H225624   1.850   5.482   0.718 -3.0141 -0.6418  0.5864
  477TIP3   OH225625   3.529   3.517   7.769  0.0567  0.1481  0.2950
  477TIP3    H125626   3.591   3.589   7.782 -1.1036  1.4197 -0.8161
  477TIP3    H225627   3.581   3.438   7.779  1.7146  1.1653  0.0621
  478TIP3   OH225628   6.246   5.014   8.601 -0.5283 -0.0705  0.0694
  478TIP3    H125629   6.164   4.990   8.557 -0.6576  0.3651  0.0720
  478TIP3    H225630   6.231   4.991   8.693  0.0682 -1.8371 -0.2315
  479TIP3   OH225631   2.583   2.116   2.307 -0.2720 -0.1303 -0.4683
  479TIP3    H125632   2.487   2.117   2.307 -0.3284 -1.6900  0.4701
  479TIP3    H225633   2.608   2.208   2.310 -1.7130  0.3527 -1.9184
  480TIP3   OH225634   2.876   1.191   1.813 -0.5983 -0.2496  0.1412
  480TIP3    H125635   2.796   1.238   1.837 -2.6353 -2.0693 -2.5387
  480TIP3    H225636   2.854   1.144   1.732  3.1072 -1.1210 -0.5597
  481TIP3   OH225637   2.381   2.696   9.121  0.1818  0.3983  0.1633
  481TIP3    H125638   2.375   2.627   9.187  2.1175 -0.7921 -0.8143
  481TIP3    H225639   2.317   2.672   9.055  0.3565 -0.0751  0.1665
  482TIP3   OH225640   1.740   0.640   3.060 -0.2195 -0.6701 -0.2400
  482TIP3    H125641   1.812   0.683   3.014  0.1601  0.1841  1.1014
  482TIP3    H225642   1.768   0.549   3.069 -0.2490 -0.8314 -1.5556
  483TIP3   OH225643   1.859   2.154   7.722  0.2797 -0.1668 -0.5357
  483TIP3    H125644   1.953   2.136   7.720  0.4326 -0.0114  2.0840
  483TIP3    H225645   1.850   2.236   7.673  1.6572  0.3179 -0.0409
  484TIP3   OH225646   2.427   6.645   2.744 -0.0432  0.2564 -0.1975
  484TIP3    H125647   2.428   6.633   2.649  0.4406  2.1926 -0.4862
  484TIP3    H225648   2.445   6.558   2.779 -3.5551 -1.2753 -1.7414
  485TIP3   OH225649   7.231   4.530   9.446 -0.2734 -0.2918  0.5518
  485TIP3    H125650   7.232   4.435   9.449  0.8287 -0.3125 -0.1318
  485TIP3    H225651   7.223   4.552   9.353  1.0051  0.2738  0.5607
  486TIP3   OH225652   3.608   6.775   7.086 -0.0067  0.3718  0.1262
  486TIP3    H125653   3.695   6.812   7.072  0.6025 -1.5233 -1.6129
  486TIP3    H225654   3.574   6.760   6.997 -1.3797 -0.5226  0.7671
  487TIP3   OH225655   4.856   7.278   8.532  0.1712  0.2439  0.2769
  487TIP3    H125656   4.914   7.203   8.522  1.7510  1.3453  0.7780
  487TIP3    H225657   4.805   7.280   8.452 -0.0950 -1.5112  0.3717
  488TIP3   OH225658   4.498   0.427   2.279 -0.1885 -0.2501 -0.0401
  488TIP3    H125659   4.413   0.384   2.284 -0.3739  0.0949 -0.1632
  488TIP3    H225660   4.481   0.509   2.232  0.5699 -1.0937 -1.8714
  489TIP3   OH225661   1.447   2.383   9.410  0.0606 -0.0194  0.2859
  489TIP3    H125662   1.499   2.348   9.337 -0.2303 -1.9946  0.9699
  489TIP3    H225663   1.484   2.470   9.426 -0.7694  1.0909 -3.0824
  490TIP3   OH225664   4.234   0.082   1.367  0.6419 -0.0201 -0.1259
  490TIP3    H125665   4.292   0.035   1.428  1.3988 -0.5786 -1.2444
  490TIP3    H225666   4.216   0.165   1.411  3.0003  0.5437 -0.0745
  491TIP3   OH225667   6.549   4.677   1.564 -0.3971  0.3100 -0.0715
  491TIP3    H125668   6.598   4.620   1.504 -1.4416 -0.9581  0.2323
  491TIP3    H225669   6.479   4.714   1.511 -0.8774 -0.2249  0.1880
  492TIP3   OH225670   6.859   1.641   7.631 -0.0403 -0.6138  0.4451
  492TIP3    H125671   6.787   1.579   7.647 -1.0274  0.5907  0.8461
  492TIP3    H225672   6.904   1.606   7.554  0.6055 -2.8361  1.7372
  493TIP3   OH225673   4.321   4.907   1.601  0.2479  0.2986 -0.0227
  493TIP3    H125674   4.311   4.925   1.508  2.4110  1.6732 -0.0674
  493TIP3    H225675   4.299   4.989   1.644  0.5988  0.0870  0.5729
  494TIP3   OH225676   1.770   4.601   1.186  0.2623 -0.0395 -0.2085
  494TIP3    H125677   1.775   4.689   1.222  1.0804  0.2456 -1.0026
  494TIP3    H225678   1.729   4.549   1.256  0.6852  0.7496  0.6422
  495TIP3   OH225679   2.594   6.360   2.512  0.0831  0.3669 -0.6129
  495TIP3    H125680   2.614   6.335   2.422 -1.7946  0.1000 -1.0104
  495TIP3    H225681   2.648   6.303   2.566  1.5134  0.7882 -1.5576
  496TIP3   OH225682   1.878   6.216   0.601  0.3429 -0.1446 -0.8699
  496TIP3    H125683   1.807   6.203   0.537  0.7571  1.2543 -1.6464
  496TIP3    H225684   1.958   6.198   0.552  0.5500 -2.6731  0.2509
  497TIP3   OH225685   0.516   1.355   7.513 -0.4984  0.0029  0.0659
  497TIP3    H125686   0.438   1.326   7.465 -0.6204  0.4962 -0.0353
  497TIP3    H225687   0.507   1.315   7.600 -2.5386  2.6411  1.1956
  498TIP3   OH225688   0.200   1.620   7.282 -0.4575 -0.7801 -0.1074
  498TIP3    H125689   0.273   1.563   7.258 -0.2285  0.0088 -1.3922
  498TIP3    H225690   0.133   1.602   7.215 -0.4537  0.2963 -0.4108
  499TIP3   OH225691   4.248   5.876   1.119  0.0466 -0.6300  0.3151
  499TIP3    H125692   4.336   5.854   1.150  1.7036  3.1677 -1.0861
  499TIP3    H225693   4.228   5.960   1.162 -1.2854  0.3946 -2.1111
  500TIP3   OH225694   2.002   5.773   7.462 -0.0248 -0.0846 -0.5003
  500TIP3    H125695   2.011   5.846   7.402  1.2307 -0.3303 -0.6458
  500TIP3    H225696   2.000   5.695   7.405 -0.3116 -0.2274 -0.2984
  501TIP3   OH225697   5.525   0.862   8.233 -0.7695  0.5115  0.5305
  501TIP3    H125698   5.587   0.790   8.244  1.1719  1.9840 -0.1382
  501TIP3    H225699   5.556   0.930   8.293 -2.3851  0.9194  0.9415
  502TIP3   OH225700   0.205   4.041   7.206 -0.0580  0.8822  0.6105
  502TIP3    H125701   0.220   4.027   7.113 -0.9827  0.8244  0.4622
  502TIP3    H225702   0.272   4.104   7.232  1.4241 -0.4908  0.3363
  503TIP3   OH225703   5.123   4.486   7.328 -0.0113  0.5185  0.3594
  503TIP3    H125704   5.063   4.488   7.402 -0.5379  4.6587  0.0729
  503TIP3    H225705   5.069   4.510   7.253  1.3163  0.6739 -0.5789
  504TIP3   OH225706   6.831   6.793   1.163  0.1018 -0.3361 -0.1691
  504TIP3    H125707   6.900   6.767   1.224 -0.8748 -1.5716  0.4736
  504TIP3    H225708   6.790   6.869   1.203 -0.1636 -0.7987  0.4625
  505TIP3   OH225709   3.866   2.350   8.782  0.0859 -0.8063 -0.1606
  505TIP3    H125710   3.788   2.400   8.760 -0.1608 -0.9024  0.4705
  505TIP3    H225711   3.914   2.405   8.843  0.6294 -0.6523 -0.7199
  506TIP3   OH225712   2.617   6.608   6.921 -0.1223 -0.0133  0.3460
  506TIP3    H125713   2.637   6.599   6.828 -1.7499  0.4650 -0.0808
  506TIP3    H225714   2.555   6.681   6.926 -0.8865 -0.7070  1.6614
  507TIP3   OH225715   5.202   5.760   2.008  0.2412  0.1940 -0.0977
  507TIP3    H125716   5.136   5.740   2.074 -0.8092 -0.0796 -1.1960
  507TIP3    H225717   5.265   5.688   2.015 -1.1854 -1.2169 -1.0357
  508TIP3   OH225718   0.423   0.881   0.710  0.1500 -0.4228 -0.0082
  508TIP3    H125719   0.460   0.834   0.635  0.1876 -4.2810  2.1763
  508TIP3    H225720   0.500   0.909   0.760  0.1035  1.3570 -0.8418
  509TIP3   OH225721   0.092   2.332   2.691  0.0021 -0.4760 -0.1857
  509TIP3    H125722   0.108   2.284   2.773  2.1334  0.3290 -0.0699
  509TIP3    H225723  -0.003   2.333   2.682 -0.2734 -0.9192  2.0931
  510TIP3   OH225724   1.165   0.708   2.363 -0.2211 -0.0779 -0.1611
  510TIP3    H125725   1.092   0.770   2.368 -1.2442 -1.3211  1.3587
  510TIP3    H225726   1.243   0.763   2.359 -1.1561  1.3018 -0.2923
  511TIP3   OH225727   2.847   5.882   9.975 -0.2031 -0.0894  0.2519
  511TIP3    H125728   2.928   5.863   9.928 -0.0372 -0.6740  0.7596
  511TIP3    H225729   2.784   5.905   9.907  0.8581  2.1634 -0.0421
  512TIP3   OH225730   2.246   5.968   1.832  0.2677 -0.1777 -0.2099
  512TIP3    H125731   2.211   5.936   1.915 -2.2226 -0.3378 -1.2356
  512TIP3    H225732   2.288   5.891   1.793 -0.5956 -0.7267 -0.0953
  513TIP3   OH225733   0.408   2.918   8.430 -0.1217 -0.1129  0.3817
  513TIP3    H125734   0.397   2.833   8.474  0.1491  0.1965  1.0622
  513TIP3    H225735   0.357   2.910   8.349 -1.7866 -0.2442  1.3888
  514TIP3   OH225736   3.146   3.076   9.670 -0.1937 -0.1766 -0.0289
  514TIP3    H125737   3.191   3.086   9.754 -0.6262 -0.9487  0.3056
  514TIP3    H225738   3.163   3.158   9.624  1.1388 -0.2423  0.2892
  515TIP3   OH225739   0.423   5.453   0.429  0.3247  0.4112  0.1567
  515TIP3    H125740   0.392   5.416   0.347 -1.2401 -1.1545  1.3623
  515TIP3    H225741   0.377   5.536   0.438  1.3644  1.1549 -1.0283
  516TIP3   OH225742   5.771   6.495   1.952 -0.0050  0.2473 -0.3036
  516TIP3    H125743   5.715   6.551   2.006  1.4503  1.6153 -0.1462
  516TIP3    H225744   5.805   6.553   1.884  0.4470 -0.7839 -0.9806
  517TIP3   OH225745   1.444   1.298   0.874 -0.5794  0.4671  0.5888
  517TIP3    H125746   1.409   1.220   0.917 -1.7722  1.5245  1.6067
  517TIP3    H225747   1.525   1.317   0.921  0.8179 -1.2519 -0.9522
  518TIP3   OH225748   5.955   4.114   9.151 -0.3359  0.3728 -0.0585
  518TIP3    H125749   5.880   4.058   9.129  0.2079 -0.0079 -0.9939
  518TIP3    H225750   6.028   4.054   9.165 -0.7572  0.4901  3.7582
  519TIP3   OH225751   0.477   3.149   2.267 -0.0768 -0.4365 -0.5961
  519TIP3    H125752   0.572   3.153   2.258 -0.0076 -1.3427 -0.3555
  519TIP3    H225753   0.458   3.198   2.347 -0.1035  2.1875 -2.1029
  520TIP3   OH225754   1.490   1.550   8.628 -0.4117 -0.2698 -0.2266
  520TIP3    H125755   1.554   1.517   8.565 -0.5423 -2.4885  0.6856
  520TIP3    H225756   1.530   1.629   8.664  0.5267 -0.0487 -1.6753
  521TIP3   OH225757   0.678   3.159   8.284 -0.2225  0.9691 -0.1217
  521TIP3    H125758   0.673   3.112   8.367 -1.0381 -1.7282 -1.5974
  521TIP3    H225759   0.590   3.153   8.247  0.3280  1.3475 -1.5724
  522TIP3   OH225760   2.347   4.045   9.998 -0.3118  0.2614 -0.0287
  522TIP3    H125761   2.267   4.025   9.950 -0.3833 -0.1999  0.2787
  522TIP3    H225762   2.369   4.134   9.972  0.1061 -0.2612 -1.5550
  523TIP3   OH225763   4.321   6.378   1.257 -0.3532 -0.2432 -0.6326
  523TIP3    H125764   4.395   6.355   1.201 -0.4123  0.2193 -0.9072
  523TIP3    H225765   4.268   6.298   1.260 -0.2089 -0.3559 -1.0155
  524TIP3   OH225766   5.744   1.954   9.417  0.5133 -0.2316  0.0681
  524TIP3    H125767   5.755   2.015   9.344 -0.8352 -0.5215 -0.3949
  524TIP3    H225768   5.750   2.009   9.495 -1.8766  0.7582 -0.3583
  525TIP3   OH225769   0.217   2.101   6.660 -0.2258  0.2127  0.0054
  525TIP3    H125770   0.260   2.147   6.587  0.7575 -1.1780 -0.3389
  525TIP3    H225771   0.287   2.091   6.725 -0.2694 -1.1840 -0.1310
  526TIP3   OH225772   6.662   3.430   1.920 -0.6031 -0.2766  0.2498
  526TIP3    H125773   6.692   3.342   1.894  0.7486 -0.3620  1.9329
  526TIP3    H225774   6.726   3.459   1.985 -0.8845  2.0809 -0.4319
  527TIP3   OH225775   7.135   0.778   1.852 -0.4689  0.1025 -0.4069
  527TIP3    H125776   7.079   0.728   1.792 -0.6322  0.7670 -0.8240
  527TIP3    H225777   7.075   0.839   1.895  0.0715  1.6970 -1.7742
  528TIP3   OH225778   4.149   6.831   7.796  0.6292  0.6042 -0.3820
  528TIP3    H125779   4.114   6.788   7.719  3.9438  1.6799 -2.7367
  528TIP3    H225780   4.146   6.924   7.775  2.0381  0.8950  0.5560
  529TIP3   OH225781   2.935   5.392   0.132 -0.2979  0.1083  0.6213
  529TIP3    H125782   2.865   5.440   0.177 -0.1193 -0.8226  1.9593
  529TIP3    H225783   2.984   5.459   0.085 -2.5646  0.6944 -1.0547
  530TIP3   OH225784   1.339   0.276   8.904 -0.4781  0.3401 -0.6287
  530TIP3    H125785   1.429   0.268   8.935 -1.3442 -0.6258  1.9938
  530TIP3    H225786   1.341   0.347   8.840  2.1145  0.3331 -0.6613
  531TIP3   OH225787   0.667   6.187   7.955  0.6394  0.3050  0.3326
  531TIP3    H125788   0.587   6.136   7.942  1.2688 -0.6301 -0.0048
  531TIP3    H225789   0.646   6.273   7.919  0.2297 -0.3355 -1.0352
  532TIP3   OH225790   5.348   1.744   9.171 -0.3334  0.1571 -0.1666
  532TIP3    H125791   5.423   1.797   9.143  0.9996 -2.0416 -1.0037
  532TIP3    H225792   5.324   1.694   9.093 -1.8357 -0.1664  0.4764
  533TIP3   OH225793   1.328   2.031   1.060 -0.4772 -0.5235 -0.5812
  533TIP3    H125794   1.280   2.048   0.979 -1.5196 -1.0137 -0.0958
  533TIP3    H225795   1.268   1.977   1.112 -0.5395  1.1660  1.2158
  534TIP3   OH225796   4.524   3.435   8.111 -0.3996  0.3358  0.2931
  534TIP3    H125797   4.531   3.343   8.087  1.9274  0.0680  1.6902
  534TIP3    H225798   4.580   3.480   8.048  1.7301  0.2279  1.9946
  535TIP3   OH225799   6.562   6.951   9.504  0.2728  0.1661 -0.3836
  535TIP3    H125800   6.616   6.925   9.578 -2.9111 -1.8932  1.4460
  535TIP3    H225801   6.598   6.901   9.430  3.1123  1.7909 -0.2251
  536TIP3   OH225802   5.028   0.395   1.399 -0.3248  0.6139  0.1504
  536TIP3    H125803   5.024   0.478   1.446 -0.5662 -0.0865  1.4169
  536TIP3    H225804   5.094   0.409   1.331  2.5268  0.7054  2.7307
  537TIP3   OH225805   3.842   6.688   8.920  0.5175  0.0887 -0.0320
  537TIP3    H125806   3.837   6.700   9.015  0.8695 -0.4085  0.0562
  537TIP3    H225807   3.751   6.690   8.891  0.1602 -2.3735  0.6754
  538TIP3   OH225808   2.135   3.511   8.663  0.5109 -0.3550 -0.3207
  538TIP3    H125809   2.042   3.488   8.665  0.2667  0.4227 -1.8498
  538TIP3    H225810   2.151   3.553   8.748 -0.6374 -0.1090 -0.2191
  539TIP3   OH225811   3.956   3.300   9.263  0.6184 -0.0639  0.0610
  539TIP3    H125812   3.954   3.325   9.171  1.9313 -0.5609 -0.1325
  539TIP3    H225813   3.958   3.204   9.262  3.5146 -0.1089  0.4191
  540TIP3   OH225814   1.066   2.348   9.567  0.3642  0.4588  0.3380
  540TIP3    H125815   1.089   2.337   9.475  1.1611 -0.9245  0.6713
  540TIP3    H225816   1.135   2.405   9.602  1.1499 -0.5502  0.4769
  541TIP3   OH225817   3.417   1.652   0.659  0.2879  0.5601  0.1465
  541TIP3    H125818   3.372   1.670   0.577  0.4540  1.0649  0.1623
  541TIP3    H225819   3.391   1.563   0.682 -0.9117  0.9349  0.2971
  542TIP3   OH225820   1.936   2.698   7.963 -0.2954  0.0268 -0.0793
  542TIP3    H125821   2.006   2.762   7.972 -1.2613  1.2658 -1.0435
  542TIP3    H225822   1.874   2.721   8.032 -1.2032  0.9189 -1.1514
  543TIP3   OH225823   0.089   6.178   1.526 -0.0441  0.1291  0.7750
  543TIP3    H125824   0.179   6.201   1.502 -0.3870  1.2626  0.5086
  543TIP3    H225825   0.091   6.171   1.621  0.4492 -0.4598  0.7322
  544TIP3   OH225826   5.211   4.760   9.077  0.3400 -0.3484  0.6403
  544TIP3    H125827   5.168   4.688   9.124  0.0327 -0.1392  0.6803
  544TIP3    H225828   5.142   4.798   9.023  0.8060 -0.8874 -0.3573
  545TIP3   OH225829   6.651   2.992   8.719  0.6688  0.2518  0.2571
  545TIP3    H125830   6.651   2.903   8.754  2.4913 -0.6401 -1.7491
  545TIP3    H225831   6.742   3.020   8.725  0.0992  2.0816  0.9899
  546TIP3   OH225832   5.269   5.392   7.220  0.3510  0.4371 -0.0566
  546TIP3    H125833   5.267   5.362   7.311  0.6489 -2.6699 -0.9449
  546TIP3    H225834   5.179   5.383   7.190  0.5620 -0.2592 -0.5164
  547TIP3   OH225835   2.005   3.387   1.057 -0.4126 -0.0449 -0.3666
  547TIP3    H125836   2.038   3.377   0.968 -0.3138 -1.6764 -0.1698
  547TIP3    H225837   1.930   3.328   1.062  0.3788 -1.0142  1.0064
  548TIP3   OH225838   0.477   4.374   1.586  0.3882  0.0535  0.0491
  548TIP3    H125839   0.534   4.363   1.510 -1.0771 -0.5021 -1.0060
  548TIP3    H225840   0.534   4.356   1.661  2.7050  3.5594 -0.6168
  549TIP3   OH225841   0.122   5.693   7.879 -0.1053  0.2786  0.0343
  549TIP3    H125842   0.029   5.716   7.871  0.4339  2.5444 -0.4727
  549TIP3    H225843   0.164   5.737   7.805  1.4237 -0.4790  0.4140
  550TIP3   OH225844   6.842   0.343   1.956 -0.8588 -1.0409  1.3147
  550TIP3    H125845   6.840   0.437   1.936  1.1214 -1.0749  0.7617
  550TIP3    H225846   6.789   0.334   2.035 -2.4801  0.2695  0.4377
  551TIP3   OH225847   6.826   4.571   2.903 -0.3893 -0.1404  0.3072
  551TIP3    H125848   6.781   4.654   2.918 -1.2748 -0.9323  2.4692
  551TIP3    H225849   6.766   4.521   2.849 -0.1647  0.3515 -0.4129
  552TIP3   OH225850   3.612   0.347   8.874 -0.5824  0.3324  0.4423
  552TIP3    H125851   3.533   0.293   8.871 -0.6032  0.3779  0.1879
  552TIP3    H225852   3.620   0.383   8.786 -0.1700  0.1717  0.4161
  553TIP3   OH225853   0.150   3.894   9.028 -0.2206  0.4027  0.1441
  553TIP3    H125854   0.056   3.882   9.019 -0.5217  2.0921  0.6604
  553TIP3    H225855   0.168   3.876   9.120 -0.0426  0.1546  0.0627
  554TIP3   OH225856   6.026   1.877   7.150 -0.4095 -0.3957 -0.2826
  554TIP3    H125857   5.985   1.791   7.138 -0.0299 -0.6009 -0.1155
  554TIP3    H225858   5.963   1.939   7.113 -1.7857 -0.5077  1.7175
  555TIP3   OH225859   2.051   5.595   7.670 -0.0908 -0.2943  0.0435
  555TIP3    H125860   2.041   5.656   7.597  2.8254  1.6018  1.0175
  555TIP3    H225861   2.112   5.529   7.638 -1.4084 -1.3998 -0.2490
  556TIP3   OH225862   1.429   6.860   1.906  0.1427 -0.5727 -0.6309
  556TIP3    H125863   1.357   6.806   1.937 -0.4871  1.2549  1.3619
  556TIP3    H225864   1.487   6.869   1.981  0.1677  1.5359 -0.8325
  557TIP3   OH225865   1.207   1.602   1.011 -0.1605  0.7718 -0.5876
  557TIP3    H125866   1.227   1.581   0.920  1.8081  0.8865 -0.2309
  557TIP3    H225867   1.275   1.557   1.061 -2.3044 -0.8829  1.0225
  558TIP3   OH225868   4.488   6.488   9.824 -0.0147 -0.4367  0.5682
  558TIP3    H125869   4.541   6.512   9.900  0.8620 -1.7162  0.3991
  558TIP3    H225870   4.552   6.471   9.754 -0.7541 -0.1852 -0.1891
  559TIP3   OH225871   3.137   4.616   0.856 -0.0415  0.1042  0.7213
  559TIP3    H125872   3.051   4.652   0.834 -0.9584 -1.0097  2.3235
  559TIP3    H225873   3.166   4.667   0.932  0.8449  0.6111  0.0708
  560TIP3   OH225874   5.974   5.621   1.239  0.1861  0.0247 -0.2248
  560TIP3    H125875   5.941   5.706   1.270  1.0632  0.4475 -0.4283
  560TIP3    H225876   6.055   5.607   1.286  0.2901 -0.4839 -0.5446
  561TIP3   OH225877   6.328   2.060   2.112  0.7029 -0.2257 -0.0664
  561TIP3    H125878   6.400   2.041   2.051  0.1934  0.7356 -0.9917
  561TIP3    H225879   6.249   2.046   2.060  0.2624  0.6930  0.3541
  562TIP3   OH225880   5.101   2.626   0.253  0.0579 -0.8519  0.0605
  562TIP3    H125881   5.086   2.690   0.184 -1.2154 -0.4586  0.6816
  562TIP3    H225882   5.045   2.552   0.230  0.3115 -1.0936  0.2061
  563TIP3   OH225883   3.124   1.836   2.872 -0.0874  0.7734  0.6469
  563TIP3    H125884   3.062   1.778   2.826 -0.1983  1.3547  0.0462
  563TIP3    H225885   3.069   1.896   2.922 -0.0565  1.7152 -0.4033
  564TIP3   OH225886   0.868   4.533   6.944  0.1397 -0.2582  1.3936
  564TIP3    H125887   0.938   4.568   6.889 -1.1586  0.0552 -0.1343
  564TIP3    H225888   0.912   4.507   7.025  1.8338  0.9439  0.9164
  565TIP3   OH225889   0.967   5.882   9.540  0.2693  0.6551 -0.0329
  565TIP3    H125890   0.965   5.871   9.635 -0.9704 -0.8979 -0.1917
  565TIP3    H225891   0.878   5.908   9.516 -0.1477 -1.3413 -0.9435
  566TIP3   OH225892   7.194   0.293   8.382  0.2574 -0.0772 -0.1614
  566TIP3    H125893   7.285   0.271   8.363  0.8105  0.9817  1.0763
  566TIP3    H225894   7.189   0.293   8.478 -1.2281 -0.7767 -0.2148
  567TIP3   OH225895   6.346   3.930   8.648  0.8578  0.0272 -0.6374
  567TIP3    H125896   6.354   3.901   8.557  1.1840 -1.3900 -0.1882
  567TIP3    H225897   6.395   3.865   8.698  2.9286  2.2284  0.3385
  568TIP3   OH225898   5.971   4.325   9.319 -0.3402  0.1837 -0.7670
  568TIP3    H125899   5.906   4.313   9.389  1.0102  0.6865  0.6296
  568TIP3    H225900   5.967   4.244   9.269 -1.4332 -0.1451 -0.1967
  569TIP3   OH225901   2.281   2.408   2.366 -0.3366 -0.0617  0.8182
  569TIP3    H125902   2.257   2.318   2.387  1.4596 -0.8631 -0.3485
  569TIP3    H225903   2.277   2.412   2.270  1.6631  0.4557  0.7222
  570TIP3   OH225904   2.516   2.519   9.592 -0.0632 -0.0441 -0.5166
  570TIP3    H125905   2.474   2.597   9.629  1.7750  0.5797  0.3992
  570TIP3    H225906   2.516   2.456   9.664 -0.7176 -0.5776 -0.9704
  571TIP3   OH225907   4.249   1.088   9.274 -0.1976  0.1722  0.4540
  571TIP3    H125908   4.238   1.075   9.179  0.5515 -0.9682  0.4946
  571TIP3    H225909   4.218   1.177   9.290 -1.8535 -0.1656 -0.5979
  572TIP3   OH225910   2.893   1.543   1.605  0.4012 -0.5658 -0.2109
  572TIP3    H125911   2.821   1.500   1.650 -0.4953  0.4099 -0.6756
  572TIP3    H225912   2.970   1.522   1.659 -0.3164 -1.0793  0.6559
  573TIP3   OH225913   4.785   0.374   8.879 -0.2963 -0.2200  0.0091
  573TIP3    H125914   4.842   0.297   8.870  1.4028  0.9443  0.3823
  573TIP3    H225915   4.750   0.388   8.791 -2.6554 -2.8104  0.3562
  574TIP3   OH225916   0.428   4.984   8.556 -0.8025  0.0188  0.4683
  574TIP3    H125917   0.409   4.907   8.609 -2.0823  0.0970  0.1628
  574TIP3    H225918   0.465   4.950   8.475 -0.5700 -0.2154  0.6737
  575TIP3   OH225919   3.470   0.267   0.328 -0.0517  0.6595 -0.6581
  575TIP3    H125920   3.430   0.306   0.250  0.4898  1.2220 -0.6671
  575TIP3    H225921   3.523   0.338   0.365  0.1509  0.2238 -0.1008
  576TIP3   OH225922   3.313   3.386   0.099 -0.0180  0.0411 -0.0901
  576TIP3    H125923   3.268   3.319   0.048 -0.3481 -0.5649  0.9660
  576TIP3    H225924   3.304   3.466   0.047 -2.1624 -0.0911 -0.0113
  577TIP3   OH225925   1.441   3.777   9.668 -0.6810 -0.0147 -0.3561
  577TIP3    H125926   1.391   3.857   9.680  0.8378  1.5765 -3.4822
  577TIP3    H225927   1.383   3.707   9.699 -2.5633  2.1221  1.2463
  578TIP3   OH225928   3.637   3.349   0.989 -0.1288  0.6311  0.1663
  578TIP3    H125929   3.667   3.272   1.037  0.0667  0.4561 -0.2289
  578TIP3    H225930   3.543   3.355   1.007 -0.2312  0.0382 -0.1608
  579TIP3   OH225931   1.391   1.093   6.593 -0.0517  0.1812 -0.3742
  579TIP3    H125932   1.342   1.021   6.634  1.1433 -0.9346 -0.8167
  579TIP3    H225933   1.368   1.170   6.645  0.4896 -0.9492  1.6545
  580TIP3   OH225934   4.771   5.674   9.059 -0.2717 -0.1277  0.4156
  580TIP3    H125935   4.793   5.703   9.148 -1.5070  2.9851 -0.1652
  580TIP3    H225936   4.676   5.663   9.060 -0.2738 -0.2862 -0.4413
  581TIP3   OH225937   4.823   6.634   0.841 -0.1700 -0.0188 -0.4089
  581TIP3    H125938   4.783   6.548   0.857 -0.8616  0.3893  0.0751
  581TIP3    H225939   4.751   6.690   0.813 -0.0982  0.8923  1.0798
  582TIP3   OH225940   6.218   3.564   0.234  0.3066  0.4958  0.0036
  582TIP3    H125941   6.312   3.568   0.250  0.2530 -0.4097  0.5600
  582TIP3    H225942   6.197   3.471   0.233 -0.4256  0.6481 -1.1086
  583TIP3   OH225943   5.138   6.122   1.948  0.3479  0.6627  0.3412
  583TIP3    H125944   5.165   6.084   2.031 -0.9836  0.3385  0.6495
  583TIP3    H225945   5.162   6.056   1.883 -0.0378  0.2038  0.6539
  584TIP3   OH225946   0.353   0.710   1.181  0.3495 -0.4505 -0.0743
  584TIP3    H125947   0.329   0.629   1.137 -0.6286 -0.1443 -0.1331
  584TIP3    H225948   0.346   0.777   1.112 -1.3754  0.0601  0.5524
  585TIP3   OH225949   0.948   4.447   7.566 -0.3662 -0.5648 -0.1154
  585TIP3    H125950   0.947   4.353   7.581 -0.3679 -0.6790 -0.8050
  585TIP3    H225951   0.930   4.457   7.473 -0.5508  0.1266 -0.0150
  586TIP3   OH225952   2.358   4.596   9.986  0.7327 -0.1298  0.4866
  586TIP3    H125953   2.451   4.594  10.010  0.7488 -1.1188  0.3865
  586TIP3    H225954   2.357   4.583   9.892  0.4247 -2.7054  0.7645
  587TIP3   OH225955   3.162   5.789   0.136 -0.1877  0.3315 -0.5617
  587TIP3    H125956   3.190   5.698   0.145  0.6754  0.3438 -2.5738
  587TIP3    H225957   3.071   5.789   0.166 -0.6919 -1.5187 -1.9078
  588TIP3   OH225958   0.397   7.261   7.126  0.2962  0.5943 -0.5483
  588TIP3    H125959   0.437   7.183   7.088  2.1719  1.1412  0.1705
  588TIP3    H225960   0.311   7.233   7.155  0.9352 -1.2176 -0.2947
  589TIP3   OH225961   1.173   5.675   9.978  0.1174  0.0305  0.3841
  589TIP3    H125962   1.164   5.632  10.064 -1.5495  1.0380  0.7571
  589TIP3    H225963   1.265   5.697   9.972  0.5679 -1.4335  1.2284
  590TIP3   OH225964   5.848   4.785   0.775 -0.5734  0.2168  0.4262
  590TIP3    H125965   5.755   4.772   0.794 -0.6926 -0.6943 -0.6913
  590TIP3    H225966   5.849   4.852   0.707 -0.4346 -0.0711  0.1446
  591TIP3   OH225967   0.257   6.066   6.684 -0.1518 -0.1813  0.6068
  591TIP3    H125968   0.301   6.139   6.728  0.3565 -1.0968  1.6627
  591TIP3    H225969   0.251   6.093   6.592 -0.9229  1.6284  1.1582
  592TIP3   OH225970   6.872   3.993   7.377 -0.0654 -0.1875 -0.7257
  592TIP3    H125971   6.802   4.008   7.313  0.5022 -0.4530 -1.4108
  592TIP3    H225972   6.840   4.036   7.457 -2.1742 -2.4421 -0.2354
  593TIP3   OH225973   4.819   0.630   9.091  0.5283  0.6030  0.0452
  593TIP3    H125974   4.903   0.622   9.135  0.3058  0.1604  0.3881
  593TIP3    H225975   4.768   0.556   9.122  0.2611  0.4607 -0.7154
  594TIP3   OH225976   0.011   5.687   8.984  0.8191 -0.2473  0.4146
  594TIP3    H125977   0.102   5.671   8.959  0.6220 -0.8066  0.0448
  594TIP3    H225978  -0.037   5.689   8.902  0.3764 -0.7286  0.6568
  595TIP3   OH225979   3.405   6.189   9.499  0.2999  0.5674  0.7512
  595TIP3    H125980   3.476   6.250   9.478 -0.4184  1.6188  1.2745
  595TIP3    H225981   3.439   6.137   9.571  0.6321  0.9067  0.8460
  596TIP3   OH225982   3.927   0.190   8.934  0.0366 -0.0792 -0.1287
  596TIP3    H125983   3.847   0.237   8.959 -0.7548 -0.4449 -1.8545
  596TIP3    H225984   3.994   0.225   8.993 -1.3055  0.4797  1.1496
  597TIP3   OH225985   3.239   7.028   2.140 -0.2176  0.7151 -0.2538
  597TIP3    H125986   3.264   6.937   2.126 -1.0155  0.7653 -2.5816
  597TIP3    H225987   3.157   7.023   2.189 -0.2302  0.1863 -0.3238
  598TIP3   OH225988   5.359   3.397   7.741 -0.2515 -0.4564  0.6184
  598TIP3    H125989   5.368   3.324   7.680 -1.7496 -0.0607 -0.1294
  598TIP3    H225990   5.300   3.365   7.809 -1.1813  0.1326  0.1118
  599TIP3   OH225991   7.217   0.572   6.594  0.0837  0.1653 -0.3190
  599TIP3    H125992   7.229   0.500   6.655  0.8197 -0.3200 -1.0135
  599TIP3    H225993   7.129   0.604   6.612 -0.4802 -1.2775 -0.3713
  600TIP3   OH225994   3.211   0.007   1.161 -0.2407 -0.3350 -0.3480
  600TIP3    H125995   3.243   0.071   1.225  0.7004 -2.0808  1.0037
  600TIP3    H225996   3.128   0.043   1.131 -0.4149  0.8520  1.3880
  601TIP3   OH225997   2.857   3.724   1.956 -0.0408  0.2331  0.2273
  601TIP3    H125998   2.905   3.781   1.896  0.3477  0.3446  0.6312
  601TIP3    H225999   2.765   3.750   1.946  0.0024  0.1480 -0.4173
  602TIP3   OH226000   1.544   6.626   0.028 -0.3248 -0.2464  0.0208
  602TIP3    H126001   1.479   6.608  -0.040  0.1066  0.4320 -0.5840
  602TIP3    H226002   1.612   6.561   0.013 -0.2135 -0.0757 -0.2221
  603TIP3   OH226003   2.080   6.660   9.802  0.4037  0.7721  0.7359
  603TIP3    H126004   2.099   6.612   9.882  0.8500 -0.6160 -0.1765
  603TIP3    H226005   1.986   6.677   9.805  0.3692  0.4622  1.4027
  604TIP3   OH226006   4.038   0.073   8.491  0.3221  0.6942 -0.4148
  604TIP3    H126007   4.065   0.068   8.583 -1.1896 -0.1854  0.0256
  604TIP3    H226008   4.117   0.054   8.441  0.5400 -2.0343  0.7887
  605TIP3   OH226009   1.758   0.417   1.340  0.4352 -0.5068  0.1783
  605TIP3    H126010   1.823   0.348   1.356 -1.1305 -1.6167  2.1832
  605TIP3    H226011   1.765   0.474   1.417 -1.0342 -0.7406  0.5162
  606TIP3   OH226012   5.782   1.366   9.990  0.1909  0.3787  0.4901
  606TIP3    H126013   5.825   1.284  10.015  0.2035  0.7237  1.6528
  606TIP3    H226014   5.755   1.352   9.899  1.3912 -0.4119  0.2303
  607TIP3   OH226015   4.684   6.918   0.728 -0.2808  0.0560 -0.2194
  607TIP3    H126016   4.770   6.900   0.690  0.1010  0.3722  0.4678
  607TIP3    H226017   4.698   6.995   0.782 -1.0296  0.1765 -0.1929
  608TIP3   OH226018   2.758   6.171   1.070  0.3904  0.7899  0.1142
  608TIP3    H126019   2.777   6.205   1.157  0.1613  1.3023 -0.0294
  608TIP3    H226020   2.712   6.088   1.085 -0.6666  1.4255  0.5057
  609TIP3   OH226021   3.917   4.539   0.833  0.1222  0.0390  0.1600
  609TIP3    H126022   3.877   4.545   0.920 -0.0557 -0.9989  0.1580
  609TIP3    H226023   3.852   4.493   0.780  0.1511  0.8338 -0.5804
  610TIP3   OH226024   2.927   0.131   7.798  0.1533  0.2686  0.1308
  610TIP3    H126025   2.924   0.211   7.746 -1.8181 -0.5331 -1.1442
  610TIP3    H226026   2.846   0.085   7.775 -0.0213 -0.9238  2.7146
  611TIP3   OH226027   2.788   6.144   0.046  0.2201 -0.1404 -0.3115
  611TIP3    H126028   2.796   6.147   0.142  1.0160 -2.9061 -0.1974
  611TIP3    H226029   2.811   6.054   0.023  0.6084  0.5977 -3.1896
  612TIP3   OH226030   4.930   3.372   7.122  0.0816 -0.0017 -0.0795
  612TIP3    H126031   4.971   3.457   7.105  0.1019 -0.0875 -0.4836
  612TIP3    H226032   5.001   3.317   7.154 -0.1241  0.3927  1.0843
  613TIP3   OH226033   4.843   4.407   9.955 -0.5172 -0.1424  0.4114
  613TIP3    H126034   4.814   4.322   9.990  0.2805 -0.4870  0.2709
  613TIP3    H226035   4.906   4.384   9.887  1.9842  0.5625  2.3333
  614TIP3   OH226036   5.734   3.632   2.230 -0.1910  0.2310 -0.7423
  614TIP3    H126037   5.648   3.645   2.270 -1.2344 -0.2755 -2.7228
  614TIP3    H226038   5.782   3.713   2.249 -0.7785  0.2069  1.0536
  615TIP3   OH226039   3.825   3.255   2.255 -0.0817  0.1748  0.0561
  615TIP3    H126040   3.746   3.207   2.231  1.3260 -1.1420 -2.3135
  615TIP3    H226041   3.866   3.203   2.323 -1.1679  0.8213  1.2377
  616TIP3   OH226042   0.929   3.593   9.573  0.1015 -0.1347  0.3539
  616TIP3    H126043   0.944   3.500   9.554  0.4530 -0.0361  0.1335
  616TIP3    H226044   0.851   3.615   9.522 -0.1126 -0.3652  0.5821
  617TIP3   OH226045   6.808   2.392   0.342 -0.0333  0.5239 -0.0156
  617TIP3    H126046   6.771   2.366   0.258  0.6768 -2.8294  0.5864
  617TIP3    H226047   6.789   2.319   0.401 -1.0172  2.9646  2.9956
  618TIP3   OH226048   6.678   6.848   2.244 -0.0672  0.0115  0.3278
  618TIP3    H126049   6.634   6.767   2.271  1.7341 -0.6737  1.4644
  618TIP3    H226050   6.706   6.831   2.154 -0.5068 -0.2578  0.2362
  619TIP3   OH226051   6.189   1.947   0.078  0.1047  0.3800  0.6106
  619TIP3    H126052   6.214   1.856   0.064  1.4389  0.7426  0.5392
  619TIP3    H226053   6.259   1.998   0.037 -0.6571  1.4459  0.5904
  620TIP3   OH226054   3.349   6.235   2.358 -0.5635  0.1833 -0.4633
  620TIP3    H126055   3.347   6.279   2.273 -0.8321  0.6526 -0.2216
  620TIP3    H226056   3.282   6.167   2.352  0.0196 -0.3578 -0.9238
  621TIP3   OH226057   1.099   6.142   9.458  0.7266 -0.0261  0.2214
  621TIP3    H126058   1.021   6.151   9.512  0.1923 -0.5190 -0.4503
  621TIP3    H226059   1.102   6.221   9.404  0.8492  0.1241  0.4504
  622TIP3   OH226060   3.762   4.246   1.504 -0.4979 -0.0507 -0.1147
  622TIP3    H126061   3.761   4.154   1.529 -0.4290 -0.2717 -0.8871
  622TIP3    H226062   3.696   4.252   1.434 -1.4301  0.7504  0.7943
  623TIP3   OH226063   3.194   0.599   7.651  0.4880 -0.0521 -0.4357
  623TIP3    H126064   3.104   0.617   7.676 -0.4167 -2.9098 -1.2593
  623TIP3    H226065   3.236   0.567   7.731  0.7228  0.9800 -0.1294
  624TIP3   OH226066   4.799   5.102   2.695 -0.3113 -0.3761  0.1952
  624TIP3    H126067   4.793   5.028   2.754  2.9813 -0.6166  0.4119
  624TIP3    H226068   4.827   5.175   2.750 -0.5425  0.2708 -0.5210
  625TIP3   OH226069   0.852   2.433   7.294  0.3971  0.2500 -0.1482
  625TIP3    H126070   0.773   2.487   7.306 -0.8506 -1.6198  0.4608
  625TIP3    H226071   0.906   2.454   7.370 -0.0967  0.6121  0.1119
  626TIP3   OH226072   2.969   4.870   9.933  0.1219  0.7956 -0.3929
  626TIP3    H126073   2.895   4.879   9.872  0.4810  0.6394 -0.8629
  626TIP3    H226074   2.937   4.809  10.000  0.0079  0.2783 -0.9040
  627TIP3   OH226075   4.961   2.579   7.701 -0.1096 -0.1501 -0.0149
  627TIP3    H126076   4.918   2.592   7.786 -0.2286 -0.1518 -0.0744
  627TIP3    H226077   4.932   2.493   7.672 -0.5347  0.0899 -0.3257
  628TIP3   OH226078   2.820   2.498   8.114  0.0211  0.8253  0.2394
  628TIP3    H126079   2.815   2.404   8.096 -1.7118  1.0587 -0.6643
  628TIP3    H226080   2.732   2.531   8.095  0.5328  2.5997  0.7706
  629TIP3   OH226081   0.020   2.463   8.637 -0.6053 -0.1915 -0.3343
  629TIP3    H126082  -0.022   2.499   8.714 -0.0221 -0.8384  0.3031
  629TIP3    H226083   0.108   2.438   8.666 -0.8319 -1.7213 -0.8284
  630TIP3   OH226084   4.326   6.698   0.857 -0.2811 -0.3286 -0.3490
  630TIP3    H126085   4.264   6.630   0.830 -0.0660 -0.7301  0.1562
  630TIP3    H226086   4.280   6.745   0.926 -0.1140 -0.4766 -0.1374
  631TIP3   OH226087   0.114   4.093   1.347  0.7460 -0.1092  0.0854
  631TIP3    H126088   0.024   4.066   1.325  0.6601  1.3013 -1.4896
  631TIP3    H226089   0.161   4.089   1.264  2.1653 -0.8394  0.9045
  632TIP3   OH226090   0.701   6.028   9.491 -0.4877 -0.1522  0.1793
  632TIP3    H126091   0.642   6.098   9.520 -1.3173 -1.4716  1.8950
  632TIP3    H226092   0.643   5.955   9.469  0.3533 -0.3353 -1.6384
  633TIP3   OH226093   7.162   3.449   7.169  0.3734 -0.5927  0.2311
  633TIP3    H126094   7.195   3.533   7.136 -0.9765  0.3621  1.2113
  633TIP3    H226095   7.099   3.473   7.237 -1.6810 -2.3337 -0.9301
  634TIP3   OH226096   4.405   4.155   2.623 -0.0799  0.2196 -0.2610
  634TIP3    H126097   4.384   4.072   2.665  0.4325 -0.4450 -1.2691
  634TIP3    H226098   4.385   4.221   2.689 -1.0087 -0.6609  0.3721
  635TIP3   OH226099   1.586   5.838   9.677  0.1560  0.0466  0.0067
  635TIP3    H126100   1.623   5.926   9.676  0.8893 -0.2511 -0.9097
  635TIP3    H226101   1.551   5.825   9.589 -2.7772  0.5314  0.9771
  636TIP3   OH226102   6.835   6.229   9.005  0.2415 -0.2902  0.3443
  636TIP3    H126103   6.746   6.238   8.970  0.3000 -0.5440  0.1263
  636TIP3    H226104   6.892   6.262   8.935  0.2511  1.3214  1.0677
  637TIP3   OH226105   2.631   5.197   7.117  0.3663  0.5035 -0.1031
  637TIP3    H126106   2.564   5.215   7.183 -0.0894  1.0970 -0.7106
  637TIP3    H226107   2.588   5.217   7.034  0.2791 -2.1244 -0.7655
  638TIP3   OH226108   2.281   7.092   8.429 -0.0709  0.0494 -0.1883
  638TIP3    H126109   2.223   7.083   8.354 -0.7497  1.7454  0.0852
  638TIP3    H226110   2.311   7.183   8.426  0.3352 -0.0042  1.2530
  639TIP3   OH226111   0.304   3.410   8.965  0.0588  0.1076 -0.1270
  639TIP3    H126112   0.237   3.342   8.968 -2.1770  2.1119  3.9149
  639TIP3    H226113   0.269   3.475   8.902 -0.9663  0.3122  0.6258
  640TIP3   OH226114   4.800   2.218   1.347  0.4833 -0.2527  0.9769
  640TIP3    H126115   4.879   2.182   1.386  0.9916 -0.3806 -0.1232
  640TIP3    H226116   4.755   2.142   1.310  0.4750 -0.0285  0.5196
  641TIP3   OH226117   6.292   2.381   0.031  0.8195  0.1572 -0.1908
  641TIP3    H126118   6.317   2.450   0.093 -2.2148  1.0353  0.2569
  641TIP3    H226119   6.301   2.422  -0.055 -0.8255  1.1459  0.0656
  642TIP3   OH226120   5.865   2.837   7.310 -0.7175 -0.3651  0.2369
  642TIP3    H126121   5.800   2.876   7.250  1.5359  1.1387 -1.4085
  642TIP3    H226122   5.931   2.799   7.252  1.9811  1.8317  1.6258
  643TIP3   OH226123   0.781   1.946   0.639  0.2053  0.9120 -0.0941
  643TIP3    H126124   0.756   2.032   0.672 -0.9357  0.4730  0.2336
  643TIP3    H226125   0.876   1.952   0.625  0.3744  1.7620  1.2881
  644TIP3   OH226126   0.157   7.179   8.658  0.1013  0.0896 -0.3205
  644TIP3    H126127   0.223   7.110   8.659  0.8220  0.7600 -0.4019
  644TIP3    H226128   0.199   7.252   8.613 -1.1656  0.1015 -1.5415
  645TIP3   OH226129   1.302   0.137   0.610 -0.0086  0.0554  0.1935
  645TIP3    H126130   1.330   0.074   0.544  0.8608  3.3237 -2.8350
  645TIP3    H226131   1.224   0.097   0.649  0.4873 -2.8447 -1.5083
  646TIP3   OH226132   5.416   3.039   9.381 -0.4811  0.6415 -0.2562
  646TIP3    H126133   5.459   3.088   9.311 -0.7621  2.7793  0.9844
  646TIP3    H226134   5.327   3.023   9.349  0.6389 -2.6332 -2.2763
  647TIP3   OH226135   3.472   4.248   1.398 -0.0033 -0.3859 -0.3870
  647TIP3    H126136   3.465   4.342   1.417 -1.5460 -0.8801  1.8558
  647TIP3    H226137   3.425   4.237   1.316 -1.3229  0.6021  0.1885
  648TIP3   OH226138   7.241   2.379   2.973  0.4049  0.2926 -0.1333
  648TIP3    H126139   7.230   2.463   3.016  0.9061  0.2144  0.1668
  648TIP3    H226140   7.153   2.351   2.950  0.3706  1.8958 -2.1984
  649TIP3   OH226141   1.468   2.439   0.108  0.1341 -0.4254 -0.2172
  649TIP3    H126142   1.531   2.449   0.037 -0.4129 -0.5394 -0.7258
  649TIP3    H226143   1.392   2.491   0.080 -0.0391 -0.3783  0.3344
  650TIP3   OH226144   5.185   6.594   1.307 -0.0138 -0.1155 -0.6142
  650TIP3    H126145   5.160   6.505   1.329  1.2829 -0.0142  1.5232
  650TIP3    H226146   5.186   6.641   1.390  1.6375  1.2826 -1.3493
  651TIP3   OH226147   6.791   6.341   0.085 -0.0379  0.3505  0.5112
  651TIP3    H126148   6.796   6.357   0.179  2.8949  0.6480  0.3719
  651TIP3    H226149   6.766   6.249   0.078 -0.4108  0.3599  1.5389
  652TIP3   OH226150   4.022   5.124   9.889  0.0357 -0.0637  0.8916
  652TIP3    H126151   4.010   5.075   9.970 -1.9908 -0.5388  0.3794
  652TIP3    H226152   3.993   5.063   9.820  0.6016  0.7264 -0.0698
  653TIP3   OH226153   3.674   1.552   1.062 -0.2439  0.3137  0.3084
  653TIP3    H126154   3.684   1.635   1.108 -0.1091  0.3784  0.1634
  653TIP3    H226155   3.762   1.531   1.031  0.3300 -1.2847  2.7361
  654TIP3   OH226156   0.568   3.378   9.073 -0.3669  0.6606 -0.3384
  654TIP3    H126157   0.573   3.473   9.084  0.6588  0.7203 -1.2092
  654TIP3    H226158   0.487   3.364   9.024  0.4334  1.2701 -1.9078
  655TIP3   OH226159   2.347   5.528   1.276  0.1766 -1.2336  0.1295
  655TIP3    H126160   2.259   5.560   1.253  0.2938  0.1853  1.4243
  655TIP3    H226161   2.387   5.504   1.193 -0.4060  0.9203 -0.8405
  656TIP3   OH226162   0.148   1.016   9.266  0.3338 -0.3480 -0.1537
  656TIP3    H126163   0.208   1.053   9.201 -0.5183 -1.3600 -1.5706
  656TIP3    H226164   0.080   1.082   9.275 -0.0297 -0.5912 -1.0088
  657TIP3   OH226165   6.567   0.151   7.333  0.2717  0.0387 -0.3863
  657TIP3    H126166   6.658   0.127   7.349 -0.0267 -0.6062  0.4317
  657TIP3    H226167   6.571   0.236   7.290  1.2438  0.2519  0.1081
  658TIP3   OH226168   5.893   6.980   7.944 -0.1889  1.1239 -0.1998
  658TIP3    H126169   5.974   6.959   7.897  0.1727  1.3680  0.2916
  658TIP3    H226170   5.912   6.957   8.035 -0.6307  1.3057 -0.0581
  659TIP3   OH226171   6.959   0.039   2.985 -0.0720 -0.0184 -0.5957
  659TIP3    H126172   6.900   0.112   3.006  0.6112  0.3776  0.0223
  659TIP3    H226173   6.935  -0.029   3.048  0.8226  0.5399  0.3999
  660TIP3   OH226174   3.178   0.775   8.658 -0.2856  0.2803 -1.0048
  660TIP3    H126175   3.174   0.684   8.686  0.1211  0.4155 -0.4831
  660TIP3    H226176   3.168   0.772   8.563  1.5950 -0.4726 -1.2097
  661TIP3   OH226177   0.268   2.615   9.978  0.3560 -0.5855  0.0961
  661TIP3    H126178   0.174   2.637   9.983 -0.3785 -3.5692  2.1232
  661TIP3    H226179   0.310   2.675  10.038 -0.7358 -1.0287  1.3505
  662TIP3   OH226180   1.562   6.611   8.315  0.1652  0.2484 -0.1343
  662TIP3    H126181   1.623   6.587   8.246  0.4951  0.4886  0.0731
  662TIP3    H226182   1.526   6.527   8.345  0.8758  0.0479  0.1851
  663TIP3   OH226183   5.381   5.766   7.336  0.1319 -0.3564  0.2281
  663TIP3    H126184   5.455   5.824   7.354  0.1458 -0.7232  1.4254
  663TIP3    H226185   5.370   5.716   7.416 -1.1843 -0.5764 -0.0720
  664TIP3   OH226186   1.813   6.334   8.590 -0.7104 -0.6168 -0.2982
  664TIP3    H126187   1.751   6.368   8.655  0.7963 -1.1780  1.5318
  664TIP3    H226188   1.885   6.397   8.591 -0.3351 -1.0269 -0.9065
  665TIP3   OH226189   5.341   3.480   0.742 -0.0908 -0.5360 -0.8802
  665TIP3    H126190   5.273   3.414   0.751 -1.3608  1.0065  2.3977
  665TIP3    H226191   5.298   3.555   0.701 -0.6954  0.6613  1.7403
  666TIP3   OH226192   0.600   2.957   7.686  0.4140 -0.2232  0.2230
  666TIP3    H126193   0.513   2.917   7.685  0.3865 -0.2354  1.3911
  666TIP3    H226194   0.590   3.038   7.637 -1.0093  1.1869  2.6454
  667TIP3   OH226195   6.978   0.980   8.802 -0.3098 -0.1795  0.1185
  667TIP3    H126196   7.024   0.935   8.872  0.9806 -2.3336 -1.9848
  667TIP3    H226197   6.887   0.951   8.810 -0.1616 -0.4712  0.7966
  668TIP3   OH226198   6.363   3.901   2.388 -0.4336  0.5241 -0.2049
  668TIP3    H126199   6.327   3.956   2.458 -1.7393 -0.9403  0.3275
  668TIP3    H226200   6.296   3.902   2.320  0.2697  0.8960 -0.9154
  669TIP3   OH226201   6.220   1.182   2.134  0.3454  0.3259  0.0733
  669TIP3    H126202   6.264   1.115   2.082  0.6045  0.8380 -0.3687
  669TIP3    H226203   6.267   1.182   2.218  0.0500 -0.3610  0.2538
  670TIP3   OH226204   6.750   1.281   8.589  0.2526  0.0286 -0.2643
  670TIP3    H126205   6.740   1.187   8.602 -0.8049 -0.0767 -1.5805
  670TIP3    H226206   6.845   1.296   8.591  0.4080 -0.9776  0.4105
  671TIP3   OH226207   2.036   1.039   7.930 -0.0989 -0.0349  0.4389
  671TIP3    H126208   2.049   1.016   7.837 -0.0961  1.2960  0.0911
  671TIP3    H226209   1.974   0.974   7.962  1.5581 -1.8898  0.1067
  672TIP3   OH226210   2.527   0.011   7.844 -0.0010 -0.4489  0.0745
  672TIP3    H126211   2.520   0.088   7.900 -0.0791  0.2172 -0.8300
  672TIP3    H226212   2.488  -0.060   7.895  1.2181 -0.1809  1.4228
  673TIP3   OH226213   3.246   5.974   7.163 -0.3901 -0.1767 -0.3106
  673TIP3    H126214   3.291   6.041   7.112  0.6372 -1.1341 -0.7044
  673TIP3    H226215   3.304   5.957   7.237  0.6815 -2.4195 -1.5593
  674TIP3   OH226216   2.711   0.731   7.987  0.2130  0.1523 -0.4794
  674TIP3    H126217   2.687   0.685   7.906  1.6331  2.7960 -2.5754
  674TIP3    H226218   2.795   0.692   8.013 -0.0780 -0.4745 -0.4629
  675TIP3   OH226219   4.303   6.531   0.494 -0.1196  0.4813  0.1738
  675TIP3    H126220   4.273   6.527   0.403 -0.9654 -1.0983  0.4772
  675TIP3    H226221   4.245   6.595   0.536 -1.6428 -0.8430  0.2082
  676TIP3   OH226222   6.635   6.365   2.244  0.1100 -0.4369  0.4853
  676TIP3    H126223   6.701   6.327   2.302  0.1917  1.0446  1.4234
  676TIP3    H226224   6.554   6.320   2.267  0.2200 -0.1519  1.5195
  677TIP3   OH226225   2.310   3.614   0.042  0.4680 -0.7883  0.4276
  677TIP3    H126226   2.340   3.555   0.112 -1.7850 -1.8080  0.6081
  677TIP3    H226227   2.267   3.686   0.089 -0.4045 -1.1093  0.1482
  678TIP3   OH226228   5.939   1.034   2.105  0.0612  0.1754  0.2990
  678TIP3    H126229   5.964   1.127   2.106  1.5665 -0.2230  0.7912
  678TIP3    H226230   5.911   1.016   2.194  3.8935 -0.8745  1.4486
  679TIP3   OH226231   6.996   5.778   6.901 -0.1366  0.7329  0.3901
  679TIP3    H126232   7.022   5.726   6.825 -1.5641 -0.3448  0.6124
  679TIP3    H226233   6.901   5.782   6.896 -0.1098  3.8222  0.0940
  680TIP3   OH226234   1.717   1.090   7.650 -0.7165  0.4479  0.4162
  680TIP3    H126235   1.683   1.004   7.677  1.3338 -0.9372 -1.0665
  680TIP3    H226236   1.738   1.134   7.732  0.0387 -1.3040  1.2324
  681TIP3   OH226237   4.501   4.040   8.573 -0.0755 -0.2390  0.1847
  681TIP3    H126238   4.418   3.992   8.572 -1.5595  2.1355  0.8197
  681TIP3    H226239   4.548   4.005   8.649  0.1151 -2.4725 -0.8792
  682TIP3   OH226240   4.439   2.882   8.037  0.0325  0.3868  0.3153
  682TIP3    H126241   4.473   2.836   8.114 -2.4861  1.1566  2.0389
  682TIP3    H226242   4.422   2.814   7.973  2.3890 -0.2590  0.2600
  683TIP3   OH226243   7.151   6.651   7.020  0.0488 -0.1056 -0.4219
  683TIP3    H126244   7.148   6.600   6.939  3.3080 -1.8830  0.3921
  683TIP3    H226245   7.074   6.622   7.069  0.1508 -1.9973 -1.2765
  684TIP3   OH226246   7.101   5.318   7.967  0.1082  0.3133 -0.3733
  684TIP3    H126247   7.168   5.250   7.964 -1.0483 -0.9174  0.4147
  684TIP3    H226248   7.112   5.359   8.053  0.8084  1.1798 -0.8486
  685TIP3   OH226249   2.716   1.102   8.953  0.5211 -0.2866  0.5076
  685TIP3    H126250   2.808   1.086   8.974  1.0338  0.1792 -1.1544
  685TIP3    H226251   2.684   1.018   8.922  0.9927 -0.0096 -0.8154
  686TIP3   OH226252   4.067   0.339   7.744  0.1737 -0.2354 -0.1939
  686TIP3    H126253   4.035   0.263   7.696 -0.4137 -1.5590  2.1104
  686TIP3    H226254   3.989   0.390   7.764 -0.1316 -1.4387  2.0795
  687TIP3   OH226255   5.717   6.201   7.608  0.2387  0.2172 -0.0844
  687TIP3    H126256   5.760   6.286   7.617  2.7851 -1.1195  1.4501
  687TIP3    H226257   5.786   6.141   7.580 -1.4697 -1.3993 -1.0937
  688TIP3   OH226258   1.164   4.070   7.711  0.3091  0.5986 -0.0499
  688TIP3    H126259   1.232   4.003   7.710 -0.5454 -0.3029  0.4540
  688TIP3    H226260   1.096   4.035   7.769 -1.0396  1.0231 -1.2986
  689TIP3   OH226261   1.368   2.810   1.901 -0.1788  0.5517  0.2463
  689TIP3    H126262   1.460   2.816   1.876  0.0298  0.3502  0.9325
  689TIP3    H226263   1.352   2.888   1.955 -0.7193  1.1795 -0.7869
  690TIP3   OH226264   5.150   5.788   7.514 -0.4169 -0.1021 -0.0892
  690TIP3    H126265   5.068   5.800   7.561 -0.5018 -3.3823  0.8465
  690TIP3    H226266   5.124   5.750   7.430  0.0846  0.0572 -0.3209
  691TIP3   OH226267   0.395   2.892   9.908  0.1226  0.3605  0.1011
  691TIP3    H126268   0.420   2.980   9.882 -0.0129  0.6014  0.7643
  691TIP3    H226269   0.308   2.902   9.948 -0.0621 -0.1282 -0.1641
  692TIP3   OH226270   1.801   7.278   9.211 -0.3989 -0.1044  0.5541
  692TIP3    H126271   1.754   7.340   9.268 -1.3763 -0.0396 -0.2945
  692TIP3    H226272   1.751   7.278   9.130  0.2113 -1.2069  0.1621
  693TIP3   OH226273   4.843   2.684   7.919  0.2855  0.2878 -0.0605
  693TIP3    H126274   4.838   2.773   7.956 -1.1420  1.5334 -2.9777
  693TIP3    H226275   4.759   2.644   7.943  0.4121  0.1691  0.1885
  694TIP3   OH226276   5.229   4.877   9.345  0.2167 -0.1276  0.1780
  694TIP3    H126277   5.321   4.859   9.367 -0.1916 -0.2644  1.9441
  694TIP3    H226278   5.231   4.899   9.252  2.2423  1.1480  0.4373
  695TIP3   OH226279   1.950   4.530   8.415  0.3255  0.0618  0.0858
  695TIP3    H126280   1.906   4.606   8.379  0.1409 -0.2534 -0.3669
  695TIP3    H226281   2.043   4.547   8.400  0.3852  0.7963  1.1820
  696TIP3   OH226282   4.988   6.882   0.693  0.3439  0.3467  0.0949
  696TIP3    H126283   5.018   6.823   0.624 -0.7641 -0.6678  0.4438
  696TIP3    H226284   5.065   6.895   0.749  0.3724 -1.6414  0.5981
  697TIP3   OH226285   3.484   2.661   9.624 -0.0112  0.6019 -0.4063
  697TIP3    H126286   3.471   2.747   9.584  0.4449  0.7903 -0.1684
  697TIP3    H226287   3.576   2.641   9.606 -0.7021 -1.0112 -2.7076
  698TIP3   OH226288   3.624   1.618   9.633  0.0390  0.3279  0.0688
  698TIP3    H126289   3.620   1.693   9.692  1.7663 -0.5421  1.3565
  698TIP3    H226290   3.630   1.542   9.690  1.4305 -0.5728 -1.1870
  699TIP3   OH226291   0.638   0.313   0.727  0.1033  0.3159  0.1471
  699TIP3    H126292   0.597   0.226   0.730  0.2058  0.2861  0.7226
  699TIP3    H226293   0.629   0.340   0.635 -3.6296  1.4390  0.6693
  700TIP3   OH226294   6.516   3.895   0.191 -0.0339 -0.1447  0.1040
  700TIP3    H126295   6.539   3.988   0.196 -0.1402 -0.1163  0.0595
  700TIP3    H226296   6.495   3.871   0.281  1.6877 -0.5608  0.4385
  701TIP3   OH226297   0.386   5.821   1.792 -0.0186  0.1406 -0.2156
  701TIP3    H126298   0.412   5.807   1.701 -0.4566  1.0025 -0.4838
  701TIP3    H226299   0.303   5.774   1.800  1.0392 -1.7235  0.3495
  702TIP3   OH226300   5.788   7.128   1.341  0.0893 -0.0802 -0.0004
  702TIP3    H126301   5.749   7.199   1.290  0.5291  2.1754  2.5726
  702TIP3    H226302   5.721   7.105   1.405  0.6958 -0.6060  0.4539
  703TIP3   OH226303   0.799   1.817   1.354  0.3224 -0.3261 -0.0691
  703TIP3    H126304   0.861   1.795   1.424  0.3476 -2.1855 -0.6275
  703TIP3    H226305   0.730   1.868   1.398  2.7249  2.9014  0.3577
  704TIP3   OH226306   1.923   0.196   0.568 -0.0805  0.1985  0.1774
  704TIP3    H126307   1.851   0.245   0.527  0.8519  1.4358 -0.0163
  704TIP3    H226308   1.998   0.212   0.511  0.8440  0.6161  1.4813
  705TIP3   OH226309   4.386   5.768   0.558 -0.1475  0.0719  0.2871
  705TIP3    H126310   4.386   5.686   0.509 -2.2738 -0.1340  0.5299
  705TIP3    H226311   4.334   5.828   0.504 -0.8736  0.4230  1.3347
  706TIP3   OH226312   1.633   3.569   1.827 -0.3496 -0.0227  0.2326
  706TIP3    H126313   1.619   3.608   1.913  0.5824  1.3152 -0.1853
  706TIP3    H226314   1.713   3.517   1.837 -0.1368  0.2844  0.1265
  707TIP3   OH226315   3.309   3.399   2.408 -0.2672 -0.1086 -0.1040
  707TIP3    H126316   3.349   3.389   2.322  0.0616  0.1404  0.0154
  707TIP3    H226317   3.383   3.415   2.467 -0.5906  1.2286 -0.0157
  708TIP3   OH226318   1.026   3.045   2.927 -0.1925  0.2736  0.2797
  708TIP3    H126319   0.999   3.013   2.841 -1.4873  1.6814  0.1200
  708TIP3    H226320   1.102   3.100   2.910  0.2312 -0.3452  0.1770
  709TIP3   OH226321   0.087   3.924   2.604 -0.0514  0.3294 -0.2508
  709TIP3    H126322   0.173   3.924   2.645  0.1550 -0.4024 -0.6692
  709TIP3    H226323   0.026   3.899   2.673  0.4022 -1.8474 -0.5634
  710TIP3   OH226324   1.937   4.054   9.341  0.1499  0.7150  0.6759
  710TIP3    H126325   1.904   3.965   9.330 -1.8899  1.5332 -0.3405
  710TIP3    H226326   1.988   4.071   9.262  0.8016  0.3645  1.0135
  711TIP3   OH226327   6.693   3.378   0.998 -0.0245  0.3159 -0.0350
  711TIP3    H126328   6.728   3.346   1.082  0.0284 -1.0982 -0.5747
  711TIP3    H226329   6.763   3.360   0.935 -0.9760 -0.8515 -0.7981
  712TIP3   OH226330   1.890   0.580   7.735 -0.9891 -0.1158 -0.0386
  712TIP3    H126331   1.978   0.579   7.772 -1.6593 -1.3391  1.6792
  712TIP3    H226332   1.872   0.488   7.716 -2.4985 -0.1284  1.2575
  713TIP3   OH226333   6.504   0.016   8.175 -0.1333  0.0448 -0.2326
  713TIP3    H126334   6.578  -0.043   8.165 -0.1100 -0.0939  0.6470
  713TIP3    H226335   6.540   0.103   8.163  0.0260 -0.0634 -0.5386
  714TIP3   OH226336   1.526   0.621   9.658  0.2628 -0.5492 -0.2187
  714TIP3    H126337   1.431   0.621   9.648  0.3259  0.6407 -1.1056
  714TIP3    H226338   1.543   0.688   9.724  0.5392  0.3020 -1.1175
  715TIP3   OH226339   1.388   1.352   6.659 -0.4701 -0.5374 -0.1367
  715TIP3    H126340   1.444   1.353   6.737 -0.9756 -0.7440  0.2377
  715TIP3    H226341   1.440   1.395   6.591 -0.6309  1.1367  0.7488
  716TIP3   OH226342   3.314   6.025   2.924  0.0601  0.0850 -1.0812
  716TIP3    H126343   3.243   5.967   2.896  0.1908 -0.4219 -0.3886
  716TIP3    H226344   3.394   5.973   2.911  0.1376 -0.0913  0.0305
  717TIP3   OH226345   2.796   5.480   2.739 -0.7456 -0.2429 -0.1598
  717TIP3    H126346   2.737   5.491   2.665  0.3046 -0.8445 -1.1156
  717TIP3    H226347   2.853   5.557   2.736  1.7911 -2.0158 -2.3761
  718TIP3   OH226348   6.084   1.980   1.715  0.5237 -0.4016  0.0422
  718TIP3    H126349   6.092   1.885   1.706  0.7160 -0.3412 -0.4283
  718TIP3    H226350   6.104   1.997   1.807  1.9069 -0.6669 -0.1919
  719TIP3   OH226351   7.042   2.754   7.798 -0.1641 -0.2196  0.9654
  719TIP3    H126352   6.967   2.694   7.802 -0.6154 -0.1013 -2.5386
  719TIP3    H226353   7.105   2.710   7.741 -0.7375  2.6727 -2.2527
  720TIP3   OH226354   1.096   5.345   9.525 -0.2204 -0.5717  0.7094
  720TIP3    H126355   1.085   5.367   9.433  2.0411 -1.1737  0.2399
  720TIP3    H226356   1.087   5.429   9.571 -1.3517 -0.2679 -0.0490
  721TIP3   OH226357   6.375   1.038   1.477 -0.0320  0.6548  0.1183
  721TIP3    H126358   6.289   1.030   1.437  0.2132 -1.2069 -0.1256
  721TIP3    H226359   6.421   1.103   1.424 -1.2455  1.6572  0.2426
  722TIP3   OH226360   4.652   5.861   9.985 -0.1248 -0.2047 -0.3175
  722TIP3    H126361   4.727   5.880   9.927  0.1089 -1.6545 -0.5176
  722TIP3    H226362   4.691   5.817  10.060 -0.1381  3.3486  1.9928
  723TIP3   OH226363   5.019   7.035   8.890  0.3443  0.3288  0.4490
  723TIP3    H126364   4.994   6.955   8.844  0.0900  1.6530 -1.8575
  723TIP3    H226365   4.937   7.083   8.901  0.7672  1.2281 -0.1866
  724TIP3   OH226366   1.448   6.447   9.079  0.5331 -0.0311 -0.0724
  724TIP3    H126367   1.508   6.373   9.087 -0.8771 -1.1084  1.3172
  724TIP3    H226368   1.500   6.523   9.103  1.6125 -0.7868  0.0672
  725TIP3   OH226369   4.427   0.643   1.517 -0.1965 -0.2396 -0.5229
  725TIP3    H126370   4.475   0.686   1.446  0.3327 -0.3126 -0.2139
  725TIP3    H226371   4.452   0.690   1.596 -0.2747 -0.5734 -0.2959
  726TIP3   OH226372   3.636   6.258   6.534  0.0519 -0.2904  0.0518
  726TIP3    H126373   3.710   6.233   6.478  0.8355 -0.9937  1.3298
  726TIP3    H226374   3.646   6.352   6.546  0.1931 -0.2236 -0.5335
  727TIP3   OH226375   1.942   6.085   8.004  0.3302  0.8373  0.3067
  727TIP3    H126376   2.020   6.109   8.054 -0.1235  1.8265  0.5720
  727TIP3    H226377   1.909   6.168   7.971  0.5374  0.2147 -1.5382
  728TIP3   OH226378   2.632   3.670   0.125 -0.0680  0.0852 -0.3174
  728TIP3    H126379   2.592   3.709   0.202 -1.2297 -1.4062 -0.1163
  728TIP3    H226380   2.655   3.744   0.069  0.9662  1.2168  1.5048
  729TIP3   OH226381   1.466   4.217   9.256  0.6739  0.3972  0.1339
  729TIP3    H126382   1.451   4.172   9.173  1.8287 -0.0631  0.1554
  729TIP3    H226383   1.405   4.291   9.255 -1.5339 -1.3339  0.2598
  730TIP3   OH226384   0.874   2.741   1.645 -0.2006 -0.3319  0.2681
  730TIP3    H126385   0.946   2.802   1.627  0.8454 -1.0719  1.6674
  730TIP3    H226386   0.879   2.676   1.575 -1.0439  0.8976 -0.9855
  731TIP3   OH226387   7.073   0.595   7.286 -0.0949 -0.1583  0.3297
  731TIP3    H126388   7.011   0.552   7.226 -0.1852 -1.8168  1.5386
  731TIP3    H226389   7.019   0.654   7.338 -1.0385 -2.5725  2.3004
  732TIP3   OH226390   4.431   5.126   1.395 -0.1638  0.7276 -0.2332
  732TIP3    H126391   4.467   5.149   1.480  1.8372  0.6250 -1.0005
  732TIP3    H226392   4.336   5.137   1.405 -0.1886 -1.0437  2.5317
  733TIP3   OH226393   6.368   0.919   8.639 -0.5059  0.2292  0.0338
  733TIP3    H126394   6.284   0.963   8.629  0.3843  1.8495 -0.8432
  733TIP3    H226395   6.411   0.967   8.710 -0.0426 -0.1142 -0.0131
  734TIP3   OH226396   4.619   3.505   2.186  0.3033 -0.0810 -0.1385
  734TIP3    H126397   4.696   3.448   2.174 -0.6315 -1.3064 -0.5255
  734TIP3    H226398   4.616   3.521   2.280 -1.0606 -3.1529  0.4711
  735TIP3   OH226399   1.902   1.753   8.289 -0.3490  0.7409  0.2595
  735TIP3    H126400   1.967   1.739   8.221  0.3489 -1.4328  1.2708
  735TIP3    H226401   1.939   1.822   8.345 -0.1988  1.4086 -0.6489
  736TIP3   OH226402   0.332   5.536   1.944 -0.1728 -0.0087  0.3794
  736TIP3    H126403   0.259   5.582   1.903  0.7278  1.2257  0.1026
  736TIP3    H226404   0.381   5.604   1.990  0.2227 -0.9821  1.4389
  737TIP3   OH226405   5.492   3.184   8.993  0.3227  0.3094 -0.1196
  737TIP3    H126406   5.427   3.149   9.054  1.3243  1.2550  1.5701
  737TIP3    H226407   5.577   3.164   9.033  1.0105  1.4133 -0.9378
  738TIP3   OH226408   7.084   6.119   2.068  0.1509  0.1052  0.1625
  738TIP3    H126409   7.016   6.148   2.008  0.0549 -0.9522 -0.2563
  738TIP3    H226410   7.039   6.110   2.152  0.3152  1.7147  0.4502
  739TIP3   OH226411   4.393   5.288   9.412  0.3342  0.1046  0.1558
  739TIP3    H126412   4.447   5.358   9.450  1.6243 -1.8626  2.1458
  739TIP3    H226413   4.303   5.312   9.435  0.6576  1.5046  0.0787
  740TIP3   OH226414   2.937   0.848   1.112 -0.4355 -0.0653  0.2993
  740TIP3    H126415   2.904   0.936   1.098 -0.9142 -0.4541 -1.1736
  740TIP3    H226416   3.012   0.840   1.053 -0.6152 -0.7598  0.1520
  741TIP3   OH226417   0.865   5.171   0.401 -0.4796 -0.0426 -0.2709
  741TIP3    H126418   0.879   5.076   0.406  0.8109  0.0421 -1.5417
  741TIP3    H226419   0.862   5.200   0.492 -1.1532 -1.3269  0.1453
  742TIP3   OH226420   4.308   4.029   0.448 -0.3503 -0.1324  0.2910
  742TIP3    H126421   4.216   4.018   0.470 -0.5409 -0.7024 -0.7420
  742TIP3    H226422   4.310   4.030   0.353  0.6683  0.2857  0.3062
  743TIP3   OH226423   6.558   4.160   8.189 -0.2078  0.0658  0.3025
  743TIP3    H126424   6.626   4.223   8.212 -0.9120  0.1259  2.4909
  743TIP3    H226425   6.482   4.187   8.240 -1.3042 -1.1275 -0.6034
  744TIP3   OH226426   5.394   0.043   2.841 -0.8941 -0.3438 -0.4624
  744TIP3    H126427   5.467   0.002   2.886 -1.2610 -0.3419  0.1420
  744TIP3    H226428   5.395   0.134   2.872 -0.6276 -0.1175 -1.1139
  745TIP3   OH226429   3.914   1.865   9.807 -0.3797 -0.3604 -0.4490
  745TIP3    H126430   3.945   1.872   9.717 -0.5524 -0.5014 -0.5206
  745TIP3    H226431   3.818   1.865   9.800 -0.3955 -1.4908 -0.3608
  746TIP3   OH226432   1.269   0.476   7.244 -0.4791 -0.0289  0.4890
  746TIP3    H126433   1.206   0.525   7.192 -0.8813  0.4898  1.4313
  746TIP3    H226434   1.342   0.460   7.185 -0.3924  1.6043  0.0978
  747TIP3   OH226435   6.234   3.947   0.438  0.6477  0.3422  0.2654
  747TIP3    H126436   6.165   3.949   0.503 -0.4349  1.8870 -0.8568
  747TIP3    H226437   6.295   3.880   0.469 -1.3928 -1.1469  1.2300
  748TIP3   OH226438   3.230   5.820   2.551 -0.0239  0.3423  0.1580
  748TIP3    H126439   3.320   5.833   2.580 -0.0986  0.2600  0.4377
  748TIP3    H226440   3.234   5.818   2.456  0.4041 -0.6576  0.1913
  749TIP3   OH226441   3.087   3.242   8.608 -0.2063  0.1516  0.1318
  749TIP3    H126442   3.157   3.181   8.630  0.2643  0.0829 -1.4552
  749TIP3    H226443   3.118   3.288   8.530 -1.2052  1.3389  0.4053
  750TIP3   OH226444   6.413   3.604   2.045 -0.1433  0.1285  0.0428
  750TIP3    H126445   6.322   3.586   2.022  0.5101 -0.6444 -2.2440
  750TIP3    H226446   6.453   3.517   2.052  0.6776  0.4859 -0.1152
  751TIP3   OH226447   3.718   0.448   7.225 -0.5801 -0.9535 -0.1010
  751TIP3    H126448   3.726   0.501   7.145 -0.7763 -1.5320 -0.5058
  751TIP3    H226449   3.637   0.399   7.213 -0.1605 -1.6917  0.0758
  752TIP3   OH226450   4.144   4.801   9.914 -0.3787  0.0152  0.4892
  752TIP3    H126451   4.098   4.779   9.996  0.0750 -0.4868  0.6148
  752TIP3    H226452   4.081   4.779   9.845 -0.1462 -1.1664  0.6381
  753TIP3   OH226453   5.343   2.066   7.000  0.0074  0.2527 -0.4471
  753TIP3    H126454   5.327   2.090   6.909  1.4385  1.0316 -0.5138
  753TIP3    H226455   5.436   2.083   7.014  0.0319 -0.7816  0.8878
  754TIP3   OH226456   0.289   5.873   0.734 -0.3573 -0.5300 -0.1661
  754TIP3    H126457   0.250   5.953   0.699  2.5731  0.6134 -1.1075
  754TIP3    H226458   0.265   5.805   0.671 -1.2232  0.0130 -0.4327
  755TIP3   OH226459   1.050   5.542   9.137  0.5074  0.2141 -0.2260
  755TIP3    H126460   1.128   5.504   9.177  0.6084 -1.3093 -1.7328
  755TIP3    H226461   1.054   5.635   9.158  2.0834 -0.0382  0.7253
  756TIP3   OH226462   2.226   5.889   8.484 -0.2355  0.1278  0.5378
  756TIP3    H126463   2.233   5.830   8.409 -1.9461  0.2307  0.2475
  756TIP3    H226464   2.221   5.830   8.559  0.1039 -0.0260  0.4418
  757TIP3   OH226465   1.734   0.384   0.481  0.1163 -0.4631 -0.0883
  757TIP3    H126466   1.678   0.462   0.485  0.9620  0.2288 -1.1796
  757TIP3    H226467   1.761   0.380   0.389  2.2198 -0.5179  0.4928
  758TIP3   OH226468   0.582   5.271   9.293  0.0118 -0.1101  0.1366
  758TIP3    H126469   0.669   5.307   9.273  0.5808 -1.6896 -0.4507
  758TIP3    H226470   0.573   5.280   9.387  1.7400 -1.7395  0.5348
  759TIP3   OH226471   4.067   4.001   1.248  0.3774  0.1554  0.0783
  759TIP3    H126472   4.083   3.929   1.187 -0.3875 -1.0462  1.2573
  759TIP3    H226473   4.002   4.056   1.203 -0.1600 -0.7002 -0.2157
  760TIP3   OH226474   2.944   3.670   8.059 -0.2327  0.1590  0.0045
  760TIP3    H126475   3.018   3.705   8.009  0.8534 -1.5060  0.3799
  760TIP3    H226476   2.964   3.692   8.150 -0.2595 -0.2019  0.0976
  761TIP3   OH226477   3.835   6.036   6.707 -0.3145  0.3408  0.0388
  761TIP3    H126478   3.877   5.986   6.777 -1.5740 -1.7405 -0.6271
  761TIP3    H226479   3.894   6.110   6.692 -0.2899  1.2558  3.6908
  762TIP3   OH226480   6.622   3.842   7.354 -0.1900 -0.4785  0.5313
  762TIP3    H126481   6.621   3.748   7.339 -1.8382 -0.6204  1.3431
  762TIP3    H226482   6.560   3.877   7.290  2.1817  0.3818 -1.4196
  763TIP3   OH226483   0.650   1.032   9.636  0.8174  0.0990  0.0825
  763TIP3    H126484   0.559   1.054   9.618 -0.0654 -1.7515  1.7975
  763TIP3    H226485   0.682   0.991   9.555 -1.2322 -2.9656  0.6720
  764TIP3   OH226486   0.397   2.411   0.513  0.1395 -0.3239  0.1331
  764TIP3    H126487   0.419   2.462   0.435 -0.3880  0.2528  0.3580
  764TIP3    H226488   0.358   2.474   0.573  0.5935 -0.7521  0.8974
  765TIP3   OH226489   5.958   6.958   0.731  0.4186  0.3487  0.2511
  765TIP3    H126490   5.964   6.964   0.826  1.2434  0.2592  0.2154
  765TIP3    H226491   6.049   6.953   0.702  0.1588 -1.9862 -0.3873
  766TIP3   OH226492   6.537   6.614   8.390 -0.5578 -0.4042  0.0822
  766TIP3    H126493   6.446   6.597   8.365 -0.3947 -0.4079 -0.5044
  766TIP3    H226494   6.536   6.704   8.425 -1.0092 -0.8231  1.1980
  767TIP3   OH226495   6.873   3.490   9.759  0.5081  0.1363 -0.1413
  767TIP3    H126496   6.816   3.426   9.800 -1.1840  0.1845 -2.2264
  767TIP3    H226497   6.924   3.440   9.695 -0.2911  0.7195 -1.2627
  768TIP3   OH226498   0.003   1.303   9.849 -0.1749  0.3637  0.2634
  768TIP3    H126499  -0.084   1.322   9.816  0.2698  0.6825 -0.7736
  768TIP3    H226500   0.028   1.380   9.900 -1.1266 -0.4017  1.9651
  769TIP3   OH226501   6.588   6.405   7.746  0.0362  0.6753 -0.4181
  769TIP3    H126502   6.535   6.440   7.675  1.0523  1.1642 -0.9627
  769TIP3    H226503   6.587   6.473   7.813 -0.4248  0.4666 -0.2030
  770TIP3   OH226504   0.858   4.142   8.784  0.0050 -0.0460 -0.0671
  770TIP3    H126505   0.941   4.185   8.765 -0.5280  0.8275 -0.5336
  770TIP3    H226506   0.851   4.142   8.880  0.5752 -0.2123 -0.0246
  771TIP3   OH226507   7.276   5.360   9.999 -0.0581  0.9429  0.0197
  771TIP3    H126508   7.191   5.316  10.001  0.5040 -0.5884 -3.2777
  771TIP3    H226509   7.255   5.451   9.980 -0.9841  0.4000 -1.7730
  772TIP3   OH226510   2.780   3.163   8.894  0.3013  0.0818  0.5453
  772TIP3    H126511   2.798   3.069   8.890  0.5304  0.1023  1.0253
  772TIP3    H226512   2.706   3.176   8.834  0.7211 -0.2918 -0.0743
  773TIP3   OH226513   5.895   2.338   7.370 -0.3176 -0.3188 -0.6933
  773TIP3    H126514   5.879   2.429   7.344 -0.2780 -0.1755 -0.2214
  773TIP3    H226515   5.982   2.319   7.337  0.5186  0.4735  0.9293
  774TIP3   OH226516   5.576   4.711   6.649  0.4228 -0.1597 -0.3219
  774TIP3    H126517   5.554   4.779   6.585 -0.6079 -0.0888  0.1033
  774TIP3    H226518   5.670   4.696   6.636  0.6124  1.1536 -0.6017
  775TIP3   OH226519   3.573   5.065   1.284 -0.6567  0.4376 -0.2931
  775TIP3    H126520   3.531   4.999   1.229 -1.7076  0.9453 -0.1333
  775TIP3    H226521   3.565   5.031   1.373 -0.3966  0.3688 -0.2945
  776TIP3   OH226522   1.150   4.729   0.914  0.6786  0.0335  0.4391
  776TIP3    H126523   1.127   4.737   1.006 -1.3943  1.2551 -0.1183
  776TIP3    H226524   1.222   4.665   0.912 -0.2827 -1.2278  2.7377
  777TIP3   OH226525   5.463   5.045   9.140 -0.1680  0.2203 -0.0335
  777TIP3    H126526   5.422   5.069   9.057 -0.8898 -2.2310 -0.4740
  777TIP3    H226527   5.522   4.973   9.118 -1.2191 -1.2553  1.7183
  778TIP3   OH226528   5.821   1.824   1.975  0.0429 -0.1444  0.1025
  778TIP3    H126529   5.813   1.745   1.920 -0.3350 -0.9018  1.2102
  778TIP3    H226530   5.778   1.800   2.057  0.7560  0.9061  0.7964
  779TIP3   OH226531   0.610   2.542   7.364 -0.1618 -0.1108  0.5532
  779TIP3    H126532   0.631   2.624   7.409 -0.4844 -0.0137  0.5336
  779TIP3    H226533   0.530   2.511   7.407 -1.5461  0.9392 -1.1515
  780TIP3   OH226534   7.253   3.076   1.300 -0.2672 -0.6345  0.2815
  780TIP3    H126535   7.329   3.133   1.302 -0.1984 -0.7347  0.4911
  780TIP3    H226536   7.266   3.014   1.372 -0.0241 -1.3200 -0.3413
  781TIP3   OH226537   4.082   5.564   7.192 -0.1672 -0.3320 -0.7565
  781TIP3    H126538   4.077   5.613   7.110 -0.7078  1.2123  0.1607
  781TIP3    H226539   4.028   5.614   7.253 -1.8641 -2.7751 -0.0859
  782TIP3   OH226540   5.931   6.060   0.241 -0.3652  0.9421  0.2670
  782TIP3    H126541   5.952   5.991   0.178  0.5912  1.0843  0.4183
  782TIP3    H226542   5.927   6.015   0.326 -1.0712  0.8495  0.1870
  783TIP3   OH226543   5.783   0.332   6.910  0.0059 -0.4996 -0.4321
  783TIP3    H126544   5.725   0.372   6.975 -1.3147 -3.4866  0.3853
  783TIP3    H226545   5.735   0.338   6.827  0.9347  1.7319 -0.8887
  784TIP3   OH226546   2.326   5.010   7.739  0.1968  0.0568  0.6005
  784TIP3    H126547   2.364   4.963   7.665 -0.3339 -0.3798  0.5923
  784TIP3    H226548   2.333   5.102   7.716 -1.8302 -0.1181 -0.9738
  785TIP3   OH226549   4.719   6.314   0.669  0.1859 -0.0432  0.1560
  785TIP3    H126550   4.712   6.322   0.574 -0.8183  0.0692  0.2271
  785TIP3    H226551   4.773   6.236   0.682 -0.2118 -0.4395 -0.5074
  786TIP3   OH226552   6.067   2.599   8.234  0.6086 -0.2687 -0.0638
  786TIP3    H126553   6.016   2.538   8.288 -1.2155  1.2904  0.0566
  786TIP3    H226554   6.122   2.646   8.297 -0.5425  0.6175  0.3088
  787TIP3   OH226555   2.752   4.344   1.019  0.0199  0.1315 -0.5051
  787TIP3    H126556   2.808   4.393   1.079  2.1267 -2.8800  0.1824
  787TIP3    H226557   2.685   4.305   1.076  0.0402 -0.0621 -0.6140
  788TIP3   OH226558   3.019   2.017   8.764 -0.2029 -0.3430 -0.9237
  788TIP3    H126559   2.998   2.086   8.827  2.6145 -1.1982  1.1326
  788TIP3    H226560   2.946   2.019   8.702 -2.4819  1.4672  1.5667
  789TIP3   OH226561   7.233   4.333   2.320  0.6518  0.0487  0.6203
  789TIP3    H126562   7.191   4.418   2.303  0.2267 -0.3069 -0.1485
  789TIP3    H226563   7.321   4.356   2.349  0.4847  0.7573  0.6007
  790TIP3   OH226564   2.639   4.172   0.129 -0.1576  0.0953  0.6267
  790TIP3    H126565   2.601   4.178   0.041  0.0640 -0.9204  0.4523
  790TIP3    H226566   2.582   4.112   0.176  0.2171 -0.0426  0.9115
  791TIP3   OH226567   7.119   6.603   0.929 -0.2646  0.4324 -0.1306
  791TIP3    H126568   7.092   6.526   0.979 -1.3790  0.4245 -0.7116
  791TIP3    H226569   7.212   6.614   0.950 -0.6195  0.2434  1.6623
  792TIP3   OH226570   1.407   1.687   1.874 -0.4140  0.4594  0.2288
  792TIP3    H126571   1.378   1.605   1.914  0.8970  0.5240  1.4216
  792TIP3    H226572   1.479   1.662   1.817 -0.0541  0.7432  0.5424
  793TIP3   OH226573   4.102   2.310   9.706 -0.7147  0.2151 -0.5566
  793TIP3    H126574   4.094   2.228   9.658  0.9086  0.6759 -1.7121
  793TIP3    H226575   4.126   2.283   9.795 -0.4086 -0.5755 -0.8695
  794TIP3   OH226576   1.212   2.073   0.831 -0.0731 -0.2927  0.2061
  794TIP3    H126577   1.227   2.168   0.828 -1.3805 -0.0314  0.9925
  794TIP3    H226578   1.231   2.043   0.742  1.8338  0.4461  0.3126
  795TIP3   OH226579   7.274   5.458   1.527 -0.1895  0.3364  0.2296
  795TIP3    H126580   7.216   5.382   1.539  2.8936 -1.9911  1.8212
  795TIP3    H226581   7.268   5.506   1.610 -2.0637  1.9314 -0.7412
  796TIP3   OH226582   0.526   4.502   9.376 -0.1779  0.1173 -0.2430
  796TIP3    H126583   0.489   4.567   9.317  1.7475 -0.7449 -2.5615
  796TIP3    H226584   0.451   4.464   9.421 -1.4949  2.5224 -0.2656
  797TIP3   OH226585   6.625   2.221   8.353  0.1768 -0.3824  0.4451
  797TIP3    H126586   6.569   2.205   8.277 -0.4932 -0.6563  0.9830
  797TIP3    H226587   6.643   2.134   8.387 -0.6921 -0.2059  1.4104
  798TIP3   OH226588   5.704   5.804   8.894 -0.2577  0.4658 -0.5432
  798TIP3    H126589   5.615   5.799   8.928  0.5391  1.0850  1.8204
  798TIP3    H226590   5.720   5.718   8.855 -2.3843  0.8659 -2.5178
  799TIP3   OH226591   6.614   3.549   6.940  0.7614  0.1708 -0.6829
  799TIP3    H126592   6.620   3.455   6.921  2.5812  0.0453  0.3044
  799TIP3    H226593   6.539   3.556   6.999  2.3321 -1.1716  1.6617
  800TIP3   OH226594   0.352   2.075   2.331  0.3721  0.1347  0.3524
  800TIP3    H126595   0.347   1.979   2.330  0.2550  0.1439 -0.4225
  800TIP3    H226596   0.261   2.104   2.323  0.5413  0.3021 -1.2149
  801TIP3   OH226597   5.439   3.714   0.459  0.0122 -0.5104 -0.6856
  801TIP3    H126598   5.398   3.774   0.396  0.1647 -0.0561 -0.3548
  801TIP3    H226599   5.367   3.682   0.512  0.1855  1.1101  0.5952
  802TIP3   OH226600   5.164   3.875   7.271  0.2551 -0.0384  0.3857
  802TIP3    H126601   5.196   3.906   7.356 -2.7559 -0.0066  1.6048
  802TIP3    H226602   5.137   3.955   7.225  0.9463 -0.1511 -0.2489
  803TIP3   OH226603   0.670   6.095   2.310 -0.6414  0.2529  0.0278
  803TIP3    H126604   0.742   6.068   2.368  0.4312  2.1650 -0.3402
  803TIP3    H226605   0.679   6.038   2.233  0.3487  0.3050  0.0907
  804TIP3   OH226606   3.034   0.776   8.882  0.1381  0.5473 -0.1224
  804TIP3    H126607   3.107   0.775   8.820  2.1903 -0.9259  2.1727
  804TIP3    H226608   3.020   0.684   8.904 -1.3336  0.9479  0.7286
  805TIP3   OH226609   0.526   1.005   0.119 -0.3075  0.1257 -0.4657
  805TIP3    H126610   0.589   1.046   0.060  0.1616  1.2541  0.7604
  805TIP3    H226611   0.459   1.072   0.132  0.6764  0.7584  1.8944
  806TIP3   OH226612   4.064   4.358   0.952 -0.0563  0.2598 -1.0096
  806TIP3    H126613   4.026   4.416   0.885 -0.0831 -0.0428 -1.2602
  806TIP3    H226614   4.102   4.418   1.016  0.7464  0.5621 -1.7386
  807TIP3   OH226615   1.054   6.446   8.495 -0.1028  0.1675 -0.6579
  807TIP3    H126616   1.049   6.540   8.509  1.1606  0.3125 -1.0548
  807TIP3    H226617   0.963   6.417   8.488 -0.4855  1.4248 -1.0089
  808TIP3   OH226618   6.570   7.032   0.305  0.2536  0.0305  0.1077
  808TIP3    H126619   6.651   6.988   0.332 -0.8582 -2.3449 -0.1725
  808TIP3    H226620   6.506   7.006   0.371 -0.3890  1.6307  0.1556
  809TIP3   OH226621   4.877   0.574   1.547 -0.2456  0.3591 -0.1009
  809TIP3    H126622   4.850   0.657   1.509 -0.9272 -0.6160 -1.8927
  809TIP3    H226623   4.887   0.592   1.641 -0.2520  2.4544 -0.4549
  810TIP3   OH226624   4.995   1.166   9.017  0.4486 -0.2389 -0.6926
  810TIP3    H126625   4.978   1.257   9.043  0.6266 -0.3874 -0.0366
  810TIP3    H226626   4.931   1.115   9.066 -0.1532 -0.4031 -1.6446
  811TIP3   OH226627   2.184   1.751   9.499 -0.0569  0.0852 -0.3313
  811TIP3    H126628   2.194   1.707   9.414  2.5016  0.1882 -0.1612
  811TIP3    H226629   2.153   1.682   9.558  2.2891 -1.1784 -0.4521
  812TIP3   OH226630   0.520   3.008   9.017 -0.3907 -0.1679  0.4857
  812TIP3    H126631   0.449   3.033   9.077 -1.7996 -2.0985 -0.2861
  812TIP3    H226632   0.595   2.994   9.074 -0.8880  0.9122  1.4494
  813TIP3   OH226633   1.695   3.593   1.139 -0.6483  0.0775 -0.2056
  813TIP3    H126634   1.693   3.508   1.183 -1.3802  1.1322  1.9301
  813TIP3    H226635   1.614   3.595   1.088  0.9369 -1.8016 -3.1418
  814TIP3   OH226636   5.581   2.119   8.097  0.3694 -0.2827 -0.2540
  814TIP3    H126637   5.523   2.055   8.136 -0.4922  0.6632  0.0678
  814TIP3    H226638   5.523   2.191   8.070  1.3836  0.7686  0.2495
  815TIP3   OH226639   1.607   2.024   0.753 -0.4107 -0.2276  0.0360
  815TIP3    H126640   1.590   2.059   0.666 -0.9419 -0.5115  0.0204
  815TIP3    H226641   1.666   1.949   0.738 -0.7100 -0.4354 -0.1050
  816TIP3   OH226642   4.935   1.038   8.645  0.1642 -0.5537 -0.4143
  816TIP3    H126643   5.030   1.026   8.648  0.1378 -0.6910 -0.0567
  816TIP3    H226644   4.903   0.965   8.593 -0.0237 -2.2978  1.9784
  817TIP3   OH226645   0.139   3.274   1.242  0.0278  0.0612 -0.2637
  817TIP3    H126646   0.228   3.309   1.246  0.0959 -0.1186 -0.2287
  817TIP3    H226647   0.092   3.335   1.184  0.5741 -0.7475 -1.5986
  818TIP3   OH226648   5.956   3.413   0.826 -0.2259 -0.3481 -0.1260
  818TIP3    H126649   5.912   3.483   0.778 -2.0725 -1.2157  0.1877
  818TIP3    H226650   5.893   3.388   0.895  0.9620 -1.3625  0.6333
  819TIP3   OH226651   0.150   2.810   2.229 -0.2471 -0.2848  0.3917
  819TIP3    H126652   0.083   2.778   2.290 -1.7294  0.6130 -0.6995
  819TIP3    H226653   0.138   2.905   2.228  1.0072 -0.1103  0.1002
  820TIP3   OH226654   1.064   2.241   1.149  0.5500 -0.1878 -0.2892
  820TIP3    H126655   1.146   2.195   1.133  0.0865 -0.7164 -1.2213
  820TIP3    H226656   1.016   2.184   1.210  0.5955 -0.2063 -0.2708
  821TIP3   OH226657   2.749   4.049   1.329  0.5732  0.3107 -0.2151
  821TIP3    H126658   2.659   4.019   1.332  1.6989 -3.5257  0.5184
  821TIP3    H226659   2.780   4.023   1.242  1.4124  0.0805  0.1443
  822TIP3   OH226660   1.077   2.847   7.511 -0.6986 -0.6915 -0.3274
  822TIP3    H126661   1.036   2.888   7.435 -1.3924  0.2239  0.5094
  822TIP3    H226662   1.168   2.833   7.484 -0.9327 -0.4088 -1.3296
  823TIP3   OH226663   2.761   3.199   1.187 -0.2557  0.7996 -0.3194
  823TIP3    H126664   2.670   3.191   1.160 -0.0819 -0.6089 -0.6021
  823TIP3    H226665   2.805   3.239   1.112 -0.5157  0.8290 -0.4584
  824TIP3   OH226666   0.648   3.312   1.698  0.4788 -0.6668 -0.7682
  824TIP3    H126667   0.569   3.346   1.656 -1.0234 -4.2075 -1.1412
  824TIP3    H226668   0.625   3.307   1.791  1.1200  0.2798 -0.5395
  825TIP3   OH226669   3.129   3.075   0.674 -0.4443 -0.7251  0.1451
  825TIP3    H126670   3.036   3.095   0.664  0.0989  1.6507 -0.8811
  825TIP3    H226671   3.142   3.071   0.769 -1.3558  0.3142  0.3451
  826TIP3   OH226672   0.310   1.311   9.277 -0.5276 -1.1170  0.1829
  826TIP3    H126673   0.271   1.301   9.191 -1.9687  1.3895  0.4352
  826TIP3    H226674   0.345   1.401   9.277  0.1665 -1.3390  1.9421
  827TIP3   OH226675   4.188   2.549   7.320  0.2347 -0.0987 -0.0878
  827TIP3    H126676   4.171   2.483   7.388  2.0844 -1.2041 -0.6386
  827TIP3    H226677   4.106   2.555   7.272 -0.4431 -0.8880  0.9161
  828TIP3   OH226678   1.622   6.095   0.584  0.6406  0.1421 -0.4866
  828TIP3    H126679   1.631   6.000   0.595  0.1808 -0.0724 -1.7732
  828TIP3    H226680   1.563   6.104   0.509  0.1560  1.4512  0.0451
  829TIP3   OH226681   6.970   1.225   9.896 -0.8081  0.1393 -0.0556
  829TIP3    H126682   6.987   1.312   9.861 -0.3026 -0.0455 -0.2718
  829TIP3    H226683   6.891   1.237   9.950 -0.1722  0.9475  0.7338
  830TIP3   OH226684   2.730   6.243   6.675 -0.1263  0.0101  0.8257
  830TIP3    H126685   2.638   6.218   6.672 -0.4300  1.0709  0.7439
  830TIP3    H226686   2.765   6.218   6.590 -0.1150 -1.1651  1.1604
  831TIP3   OH226687   1.408   6.498   1.506 -0.0352  0.2527  0.5030
  831TIP3    H126688   1.412   6.474   1.598 -0.1282 -0.5524  0.3052
  831TIP3    H226689   1.332   6.452   1.472 -0.0917  0.6664  0.0568
  832TIP3   OH226690   1.274   3.620   7.188 -0.3301 -0.0159  0.0414
  832TIP3    H126691   1.220   3.589   7.115  0.3475 -0.7364 -0.1631
  832TIP3    H226692   1.238   3.577   7.265  1.0991 -2.0166 -0.3404
  833TIP3   OH226693   3.037   1.327   8.551 -0.6532  0.2386 -0.2131
  833TIP3    H126694   3.036   1.330   8.647 -0.7771  0.0171 -0.2063
  833TIP3    H226695   3.040   1.233   8.530 -0.5558  0.2889 -0.4252
  834TIP3   OH226696   5.771   0.219   0.471  0.4315 -0.0978  0.9367
  834TIP3    H126697   5.764   0.174   0.555  1.1009  1.0523  1.6369
  834TIP3    H226698   5.818   0.300   0.491  0.3241  0.3463 -0.4933
  835TIP3   OH226699   1.927   1.370   2.413 -0.0286 -0.0447 -0.2087
  835TIP3    H126700   1.957   1.322   2.490  0.6453 -0.2573 -0.5917
  835TIP3    H226701   1.993   1.438   2.400  0.0435 -0.2157 -0.7766
  836TIP3   OH226702   0.333   0.791   7.688 -0.4804  0.0682  0.4255
  836TIP3    H126703   0.320   0.763   7.779  2.1808 -0.4659  0.7303
  836TIP3    H226704   0.415   0.749   7.662 -0.3169  1.5521 -1.6835
  837TIP3   OH226705   2.814   6.992   8.237 -0.1112 -0.2809 -0.6610
  837TIP3    H126706   2.891   7.030   8.194  2.1833 -1.5351  1.9993
  837TIP3    H226707   2.816   6.900   8.212  0.3784 -0.7028  0.8138
  838TIP3   OH226708   1.472   7.029   9.377 -0.5803 -0.0171  0.4039
  838TIP3    H126709   1.534   7.085   9.424 -1.1062  0.1400  0.9246
  838TIP3    H226710   1.492   7.043   9.285  0.4770 -0.3286  0.5697
  839TIP3   OH226711   3.159   4.717   8.522 -0.0574  0.0666  0.0029
  839TIP3    H126712   3.195   4.636   8.485 -0.1686  0.0137  0.0078
  839TIP3    H226713   3.149   4.775   8.447 -0.2609 -0.0323 -0.0485
  840TIP3   OH226714   5.738   4.411   3.111 -0.1353  0.5583  0.4007
  840TIP3    H126715   5.832   4.409   3.131  0.2988 -0.3905 -1.5210
  840TIP3    H226716   5.733   4.455   3.026 -0.9881 -2.7318 -1.4022
  841TIP3   OH226717   1.275   6.959   8.669  0.0367 -0.0047  0.0628
  841TIP3    H126718   1.296   6.923   8.583 -1.1456  0.8051 -0.5988
  841TIP3    H226719   1.197   7.012   8.654  0.1252  0.5888  1.5404
  842TIP3   OH226720   1.942   0.910   7.237 -0.3037  0.2839 -0.1048
  842TIP3    H126721   1.875   0.904   7.305  0.5081 -1.7636  0.6050
  842TIP3    H226722   1.900   0.874   7.158 -0.9125  1.7047 -0.4687
  843TIP3   OH226723   2.876   4.472   1.784  0.0446 -0.0854 -0.7226
  843TIP3    H126724   2.896   4.514   1.868  1.3064  0.2144 -1.1508
  843TIP3    H226725   2.782   4.484   1.773 -0.1127 -0.0112  0.5849
  844TIP3   OH226726   4.591   6.069   1.870 -0.2353 -0.2814 -0.3886
  844TIP3    H126727   4.588   6.163   1.850 -0.2169 -0.1279  0.2926
  844TIP3    H226728   4.684   6.047   1.869 -0.1300  0.0499  0.9307
  845TIP3   OH226729   1.175   0.073   8.588 -0.4580 -0.1589 -0.6307
  845TIP3    H126730   1.245   0.075   8.653  1.0899 -0.1597 -2.2012
  845TIP3    H226731   1.143  -0.017   8.589 -0.3106 -0.2076 -0.0324
  846TIP3   OH226732   2.033   3.133   1.526 -0.0078  0.1676 -0.4123
  846TIP3    H126733   2.113   3.101   1.569 -0.6206 -0.2130  0.4666
  846TIP3    H226734   2.039   3.097   1.437  1.5286  1.3898 -0.8573
  847TIP3   OH226735   0.610   2.996   8.003 -0.1768 -0.5028 -0.4248
  847TIP3    H126736   0.674   2.931   7.973  0.0862 -0.4990  0.1040
  847TIP3    H226737   0.599   3.055   7.929  0.1812 -0.6985 -0.6395
  848TIP3   OH226738   6.286   1.888   7.610  0.0576  0.1024  0.4105
  848TIP3    H126739   6.281   1.872   7.516  0.4335  0.1170  0.3876
  848TIP3    H226740   6.348   1.822   7.642  1.7825  1.6019  0.2899
  849TIP3   OH226741   5.282   0.023   0.683  0.5019  0.1877  0.6986
  849TIP3    H126742   5.358   0.062   0.727  1.3787 -0.9262  0.2175
  849TIP3    H226743   5.299  -0.071   0.684 -0.2039  0.0192 -0.6246
  850TIP3   OH226744   6.709   6.327   9.748 -0.2154  0.2828 -0.3254
  850TIP3    H126745   6.734   6.334   9.840  0.9137  0.9009 -0.6640
  850TIP3    H226746   6.790   6.343   9.700 -0.4494 -1.5523 -1.4200
  851TIP3   OH226747   5.975   5.146   2.862  0.0116 -0.1209 -0.6436
  851TIP3    H126748   5.977   5.224   2.918 -1.7499 -1.1165  0.9345
  851TIP3    H226749   6.046   5.091   2.895 -0.7976 -0.5527  0.4516
  852TIP3   OH226750   4.350   5.882   1.396 -0.0277 -0.3363 -0.7969
  852TIP3    H126751   4.301   5.800   1.385  1.0767 -1.1061 -0.1156
  852TIP3    H226752   4.416   5.861   1.461  0.4716  1.0272 -0.8534
  853TIP3   OH226753   2.888   2.818   9.116 -0.3159 -0.4254 -0.5974
  853TIP3    H126754   2.963   2.763   9.141  0.5829 -0.4744 -3.1136
  853TIP3    H226755   2.863   2.862   9.197  2.8786  0.0865  0.2663
  854TIP3   OH226756   4.102   2.865   2.433 -0.3640  0.0059 -0.4923
  854TIP3    H126757   4.101   2.773   2.407 -0.8717  0.0875 -0.7816
  854TIP3    H226758   4.184   2.876   2.481 -0.8105 -0.8554  0.5004
  855TIP3   OH226759   5.235   0.819   8.279  0.5027 -0.0884  0.2501
  855TIP3    H126760   5.203   0.803   8.191  1.0353  4.0616 -0.8635
  855TIP3    H226761   5.328   0.839   8.268  0.4664  1.0090  1.6665
  856TIP3   OH226762   4.395   4.391   7.168 -0.1577 -0.7285  0.3143
  856TIP3    H126763   4.483   4.382   7.132 -0.7574 -2.3189 -0.9054
  856TIP3    H226764   4.350   4.451   7.108 -0.3424 -1.1438  0.0335
  857TIP3   OH226765   1.709   3.581   7.214 -0.2478 -0.5679 -0.0615
  857TIP3    H126766   1.725   3.576   7.120 -2.0482  0.3539 -0.4684
  857TIP3    H226767   1.738   3.496   7.248  3.3570  0.1821 -0.8883
  858TIP3   OH226768   4.920   2.648   1.166 -0.3126 -0.1945  0.1253
  858TIP3    H126769   4.834   2.610   1.188 -0.2636 -0.7314 -0.5780
  858TIP3    H226770   4.920   2.733   1.210 -1.7335  0.3856 -0.8937
  859TIP3   OH226771   4.066   3.098   0.163 -0.0661  0.2876  0.2288
  859TIP3    H126772   4.124   3.023   0.147 -3.2382 -2.1166 -0.8787
  859TIP3    H226773   4.012   3.073   0.237  0.7220  2.8450  1.8126
  860TIP3   OH226774   4.962   7.048   8.455  0.0234  0.0906  0.4164
  860TIP3    H126775   4.905   7.062   8.379 -0.7406  0.1122  0.9760
  860TIP3    H226776   5.034   6.995   8.422  0.4717  1.2959 -0.6582
  861TIP3   OH226777   5.866   1.749   2.506  0.3397 -0.0157  0.6920
  861TIP3    H126778   5.830   1.818   2.561 -0.6510 -0.3131  0.4237
  861TIP3    H226779   5.961   1.753   2.523  0.3998  1.8499  0.1749
  862TIP3   OH226780   0.486   5.453   2.968  0.4534  0.2131  0.6223
  862TIP3    H126781   0.439   5.369   2.969 -0.4650  0.7189  1.0214
  862TIP3    H226782   0.484   5.482   3.059  1.6946  0.1734  0.6724
  863TIP3   OH226783   5.429   6.799   9.335  0.3207 -0.7705 -0.0553
  863TIP3    H126784   5.426   6.794   9.239  1.2819  0.4631 -0.1795
  863TIP3    H226785   5.499   6.738   9.360  0.8041 -0.2963 -0.2339
  864TIP3   OH226786   2.835   5.662   0.829 -0.1292  0.3324  0.8954
  864TIP3    H126787   2.899   5.626   0.768 -0.4378  0.6862  0.3514
  864TIP3    H226788   2.813   5.748   0.792 -2.2904 -0.5150  0.0281
  865TIP3   OH226789   3.583   3.667   1.658  0.0531  0.1656  0.0626
  865TIP3    H126790   3.607   3.652   1.566 -0.3418 -0.9073  0.1095
  865TIP3    H226791   3.587   3.762   1.669 -0.3622  0.3557 -1.2032
  866TIP3   OH226792   4.551   0.725   7.763 -0.5170  0.1350 -0.0745
  866TIP3    H126793   4.578   0.790   7.827  1.3618 -0.4050 -0.2438
  866TIP3    H226794   4.498   0.774   7.700  0.7475  1.5068 -0.1326
  867TIP3   OH226795   4.053   0.343   6.539  0.3476  0.1681 -0.6044
  867TIP3    H126796   4.059   0.433   6.507  0.0776 -0.3949 -2.3165
  867TIP3    H226797   3.975   0.342   6.594  0.1503  0.8899 -0.8617
  868TIP3   OH226798   4.648   4.642   1.769  0.4299 -0.9078  0.0583
  868TIP3    H126799   4.605   4.693   1.700  0.3002  1.0346  1.5108
  868TIP3    H226800   4.742   4.650   1.749  0.4615  0.6107  0.6952
  869TIP3   OH226801   2.483   1.401   9.190 -0.1784  0.0396  0.0640
  869TIP3    H126802   2.464   1.376   9.099  0.5263  1.4628 -0.4990
  869TIP3    H226803   2.576   1.426   9.188 -0.0179 -0.4248  1.3032
  870TIP3   OH226804   2.145   0.790   9.402  0.2268  0.0671 -0.5794
  870TIP3    H126805   2.077   0.722   9.410  1.3098 -0.8726  1.1294
  870TIP3    H226806   2.096   0.870   9.384 -1.5704 -0.1987  2.4021
  871TIP3   OH226807   0.171   2.401   1.421 -0.1526 -0.3312  0.1943
  871TIP3    H126808   0.211   2.414   1.336 -1.6150 -2.2085 -0.8611
  871TIP3    H226809   0.235   2.349   1.470  1.0644  1.4782  0.6124
  872TIP3   OH226810   6.179   6.170   7.063  0.6323  0.9000  0.1995
  872TIP3    H126811   6.107   6.210   7.014 -1.2312 -1.0188  1.1811
  872TIP3    H226812   6.224   6.116   6.999  1.1965  2.0680 -0.4130
  873TIP3   OH226813   2.191   3.139   1.934 -0.5469  0.3324 -0.1455
  873TIP3    H126814   2.134   3.212   1.911 -1.9110 -1.3714 -2.8035
  873TIP3    H226815   2.245   3.127   1.856  0.0942 -1.0576  0.4876
  874TIP3   OH226816   6.417   3.791   8.413  0.5109  0.5778 -0.1014
  874TIP3    H126817   6.488   3.728   8.397  0.5837  0.8799 -1.0287
  874TIP3    H226818   6.431   3.860   8.348 -1.9077 -0.4263 -1.8427
  875TIP3   OH226819   1.842   1.842   7.611 -0.7744  0.7757 -0.2924
  875TIP3    H126820   1.925   1.826   7.656 -1.0544 -0.6645 -0.2475
  875TIP3    H226821   1.832   1.937   7.612  0.0992  0.8748  1.0983
  876TIP3   OH226822   2.711   4.861   1.348 -0.6266  0.0882  0.1658
  876TIP3    H126823   2.733   4.778   1.304 -1.2699 -0.0867  0.1480
  876TIP3    H226824   2.664   4.833   1.427 -1.1389  0.4397 -0.0108
  877TIP3   OH226825   5.119   6.514   9.969  0.1329  0.6604  0.0411
  877TIP3    H126826   5.150   6.489  10.056  0.9629 -1.8295 -0.8677
  877TIP3    H226827   5.034   6.554   9.984  0.6659  1.1437  2.0515
  878TIP3   OH226828   1.810   1.598   0.356  0.2116  0.0268  0.3206
  878TIP3    H126829   1.791   1.555   0.272  0.7279  0.8951 -0.2540
  878TIP3    H226830   1.731   1.649   0.374 -1.2131 -2.5198  1.9534
  879TIP3   OH226831   2.653   1.329   2.042 -0.4135 -0.1069  0.0854
  879TIP3    H126832   2.716   1.303   2.110 -1.1796  2.0625  1.7254
  879TIP3    H226833   2.576   1.274   2.059  0.0774 -0.9464 -0.3111
  880TIP3   OH226834   2.573   6.743   9.040 -0.4601  0.1869  0.3309
  880TIP3    H126835   2.504   6.807   9.061 -0.2725  0.6669 -0.4860
  880TIP3    H226836   2.601   6.710   9.125 -0.7001  1.0454  0.7567
  881TIP3   OH226837   0.207   0.041   7.379 -0.1469  0.2563 -0.0827
  881TIP3    H126838   0.166   0.006   7.300  0.9154  0.2331 -0.6429
  881TIP3    H226839   0.263   0.112   7.347  0.4633  0.1042  0.6334
  882TIP3   OH226840   6.726   0.822   8.778  0.1284 -0.1146 -0.0843
  882TIP3    H126841   6.652   0.767   8.751  1.3846 -2.5004  1.0130
  882TIP3    H226842   6.781   0.763   8.830  2.8213  1.5553 -0.8890
  883TIP3   OH226843   1.655   2.853   1.877 -0.0530  0.8977  0.1416
  883TIP3    H126844   1.728   2.885   1.824 -0.7039  1.0854 -0.6621
  883TIP3    H226845   1.658   2.758   1.868 -0.0892  0.9219 -0.1466
  884TIP3   OH226846   3.559   5.807   2.183  0.4187 -0.4554 -0.1218
  884TIP3    H126847   3.650   5.814   2.152  0.5180  0.5120  0.3433
  884TIP3    H226848   3.557   5.860   2.263 -0.3802 -1.0769  0.2880
  885TIP3   OH226849   1.795   0.370   9.153  0.3361  0.4187  0.1762
  885TIP3    H126850   1.841   0.322   9.221 -0.8444 -0.8903  0.1040
  885TIP3    H226851   1.801   0.462   9.179 -0.1568 -0.0580  2.0907
  886TIP3   OH226852   6.914   0.702   2.536  0.5008 -0.7583  0.3743
  886TIP3    H126853   6.984   0.767   2.534  1.0323 -1.3181  0.4876
  886TIP3    H226854   6.836   0.751   2.559  0.0969  0.5855 -3.2021
  887TIP3   OH226855   6.649   1.292   9.525  0.3729  0.1228 -0.2004
  887TIP3    H126856   6.612   1.253   9.446  0.7322 -0.2792 -0.1757
  887TIP3    H226857   6.710   1.226   9.558 -1.0044 -0.4576  1.3507
  888TIP3   OH226858   4.574   3.944   0.779  0.1081  0.2815 -0.4716
  888TIP3    H126859   4.598   3.963   0.689  2.2430  0.2269  0.0297
  888TIP3    H226860   4.634   3.996   0.832 -1.2683  0.5081  0.9372
  889TIP3   OH226861   6.676   4.973   2.266 -0.6315 -0.1499 -0.3161
  889TIP3    H126862   6.748   5.000   2.209 -0.5153 -0.0600 -0.1277
  889TIP3    H226863   6.649   5.053   2.311 -0.1358 -0.3795  0.4140
  890TIP3   OH226864   2.187   1.645   0.669 -0.0977 -0.0435  0.0894
  890TIP3    H126865   2.143   1.620   0.587  1.1409  2.8334 -1.6264
  890TIP3    H226866   2.116   1.671   0.727 -0.9188  0.8166 -1.2278
  891TIP3   OH226867   7.172   1.649   0.341  0.4031 -0.4481  0.0138
  891TIP3    H126868   7.098   1.595   0.368  1.5571 -0.5175  3.5460
  891TIP3    H226869   7.140   1.739   0.348  0.1266 -0.5299 -0.2172
  892TIP3   OH226870   2.061   2.475   1.556  0.3161 -0.6388 -0.6909
  892TIP3    H126871   2.115   2.399   1.533  1.8962 -0.3138  1.6895
  892TIP3    H226872   1.980   2.436   1.591  0.5544 -1.1911 -0.7362
  893TIP3   OH226873   2.445   6.371   2.832 -0.2312 -0.1214  0.1002
  893TIP3    H126874   2.509   6.300   2.839 -1.0747 -0.8013  1.2641
  893TIP3    H226875   2.370   6.341   2.883 -0.8073  1.4077  0.2077
  894TIP3   OH226876   4.868   0.745   6.988  0.0996 -0.7414  0.4630
  894TIP3    H126877   4.775   0.723   6.987  0.0530 -0.5533  0.6684
  894TIP3    H226878   4.909   0.677   6.935 -0.2130 -0.5561 -0.0191
  895TIP3   OH226879   6.040   5.415   2.784  0.0906  0.7353  0.4828
  895TIP3    H126880   6.126   5.377   2.799  0.1694  0.7616  0.1069
  895TIP3    H226881   6.056   5.510   2.783 -0.2677  0.8681  2.5039
  896TIP3   OH226882   2.783   1.443   8.460 -0.4426 -0.7268  0.1181
  896TIP3    H126883   2.812   1.417   8.372 -0.7966  0.4419 -0.3579
  896TIP3    H226884   2.862   1.438   8.514  0.2032  0.3588 -0.6926
  897TIP3   OH226885   1.378   7.274   8.759  0.1393 -0.0767 -0.2294
  897TIP3    H126886   1.435   7.199   8.749  0.5292 -0.0295  1.4173
  897TIP3    H226887   1.427   7.335   8.815  0.3764  1.9911 -2.4915
  898TIP3   OH226888   4.728   6.798   0.388  0.4315  0.2502  0.0213
  898TIP3    H126889   4.819   6.773   0.401  0.3494  0.7552  1.7309
  898TIP3    H226890   4.679   6.716   0.398  0.6943 -0.0982 -1.3077
  899TIP3   OH226891   4.011   6.532   0.573 -0.0845 -0.0006  0.2323
  899TIP3    H126892   3.990   6.619   0.541 -2.4185 -0.2738  0.8365
  899TIP3    H226893   4.039   6.545   0.663 -2.1128  0.0484  0.9098
  900TIP3   OH226894   7.117   1.143   1.668  0.3628 -0.0379 -0.7196
  900TIP3    H126895   7.046   1.087   1.636  0.6122 -0.4438 -0.5616
  900TIP3    H226896   7.072   1.220   1.702 -0.1208 -0.8988  0.6647
  901TIP3   OH226897   1.089   4.718   1.601  0.4687  0.5413  0.2212
  901TIP3    H126898   1.020   4.672   1.648  2.1246  0.1521  2.4620
  901TIP3    H226899   1.065   4.810   1.608 -1.1912  0.2917 -1.4650
  902TIP3   OH226900   6.844   3.960   3.271  0.0210 -0.0629 -0.4138
  902TIP3    H126901   6.898   3.971   3.349  0.1801  2.3819 -0.8097
  902TIP3    H226902   6.774   4.024   3.280 -0.2394 -0.0642 -2.0511
  903TIP3   OH226903   5.881   4.663   0.043  0.1760 -0.1361 -0.6216
  903TIP3    H126904   5.858   4.692   0.131  1.2756 -0.2617 -0.2768
  903TIP3    H226905   5.975   4.682   0.036  0.3183 -1.0863 -1.3899
  904TIP3   OH226906   2.881   2.520   9.613 -0.4047 -0.4678 -0.8690
  904TIP3    H126907   2.874   2.500   9.706 -1.5019  1.6874 -0.4261
  904TIP3    H226908   2.973   2.503   9.592 -0.5078 -2.5667  0.1606
  905TIP3   OH226909   1.092   0.605   0.713 -0.1349  0.4255 -0.1528
  905TIP3    H126910   1.124   0.686   0.754  1.7667 -0.5824  0.4661
  905TIP3    H226911   1.075   0.547   0.786  1.1924 -0.6487 -0.6502
  906TIP3   OH226912   0.627   3.051   9.985  0.3617  0.8773 -0.0027
  906TIP3    H126913   0.614   3.135   9.941 -1.1973  1.1523  0.9254
  906TIP3    H226914   0.557   3.047  10.050  0.5334 -1.0561  0.1047
  907TIP3   OH226915   2.895   1.292   8.254  0.1626  0.0069  0.6929
  907TIP3    H126916   2.927   1.357   8.191  1.2872  0.6169  1.8569
  907TIP3    H226917   2.967   1.230   8.263  0.5168  0.6100  2.2856
  908TIP3   OH226918   1.654   2.325   1.831  0.4943 -0.6651 -0.3695
  908TIP3    H126919   1.695   2.240   1.847  2.0436  0.1601  0.2363
  908TIP3    H226920   1.636   2.326   1.737  0.8626 -1.4930 -0.4559
  909TIP3   OH226921   2.813   4.937   2.277  0.0458  0.1362 -0.8669
  909TIP3    H126922   2.906   4.945   2.252  0.0605 -0.1423 -0.9015
  909TIP3    H226923   2.815   4.925   2.372  0.1615 -1.7580 -1.0633
  910TIP3   OH226924   7.256   6.248   7.677 -0.2833 -0.2743 -0.0596
  910TIP3    H126925   7.257   6.271   7.770 -0.4300 -1.4354  0.2406
  910TIP3    H226926   7.328   6.298   7.640 -0.3969  0.4189  0.6229
  911TIP3   OH226927   0.474   4.121   1.330 -0.1314  0.1543 -0.0810
  911TIP3    H126928   0.498   4.145   1.241  0.0892 -0.4353 -0.1843
  911TIP3    H226929   0.557   4.118   1.378 -0.2247  0.2434  0.0888
  912TIP3   OH226930   6.372   4.739   0.058 -0.2331  0.3519 -0.3514
  912TIP3    H126931   6.449   4.793   0.075  0.5197 -0.7823  0.0134
  912TIP3    H226932   6.398   4.682  -0.014  0.2424 -1.7864  1.3993
  913TIP3   OH226933   2.544   4.209   0.527 -0.2218 -0.2018 -0.0723
  913TIP3    H126934   2.558   4.268   0.453 -1.9017 -0.0646 -0.3214
  913TIP3    H226935   2.623   4.154   0.529  1.1931  1.7292 -0.0993
  914TIP3   OH226936   2.080   1.232   0.997 -0.4617  0.1779  0.0317
  914TIP3    H126937   2.119   1.287   1.065  0.5401  0.3378 -0.6519
  914TIP3    H226938   2.123   1.259   0.916  0.5657 -2.0515 -0.2341
  915TIP3   OH226939   0.422   2.380   7.611  0.2929  0.0728  0.0089
  915TIP3    H126940   0.504   2.381   7.661  0.9283 -3.5632 -0.6704
  915TIP3    H226941   0.415   2.290   7.578 -2.3364  1.1023 -2.7396
  916TIP3   OH226942   5.771   6.675   7.620 -0.2560 -0.5802 -0.2953
  916TIP3    H126943   5.772   6.704   7.711 -0.1879 -1.8589  0.1288
  916TIP3    H226944   5.857   6.636   7.605  0.0399  0.3572 -1.1725
  917TIP3   OH226945   3.017   3.079   9.351 -0.3585 -0.2322  0.3847
  917TIP3    H126946   2.979   3.004   9.396 -0.8686 -0.4403 -0.3718
  917TIP3    H226947   3.014   3.150   9.415 -0.9645 -0.5517  0.7139
  918TIP3   OH226948   7.030   3.301   8.906 -0.1108 -0.2630  0.7243
  918TIP3    H126949   7.022   3.234   8.974 -0.1171 -0.1163  0.8691
  918TIP3    H226950   6.950   3.353   8.914  0.3302  0.3498  1.2525
  919TIP3   OH226951   0.308   2.606   2.135 -0.2569 -0.1773  0.5468
  919TIP3    H126952   0.394   2.639   2.108  0.3498 -0.1088  2.3967
  919TIP3    H226953   0.259   2.684   2.160 -0.9345 -0.2038 -0.6492
  920TIP3   OH226954   4.515   4.732   7.069 -0.2758 -0.2737 -0.3315
  920TIP3    H126955   4.469   4.667   7.015  1.5140 -0.8568 -1.2287
  920TIP3    H226956   4.602   4.738   7.030 -0.0506  1.9247  0.3789
  921TIP3   OH226957   3.720   2.566   8.201 -0.5042  0.0391 -0.1237
  921TIP3    H126958   3.770   2.636   8.160 -0.8347  1.0109  1.0650
  921TIP3    H226959   3.786   2.508   8.238 -0.2265  0.4601  0.0546
  922TIP3   OH226960   4.405   0.717   2.714  0.2619 -0.3258  0.1598
  922TIP3    H126961   4.424   0.662   2.791 -1.1633  0.3784  1.0713
  922TIP3    H226962   4.487   0.764   2.697  0.7898 -0.9639  0.8687
  923TIP3   OH226963   6.148   3.260   8.509 -0.3802 -0.2566 -0.3497
  923TIP3    H126964   6.142   3.164   8.514  0.1443 -0.2650  0.3042
  923TIP3    H226965   6.117   3.282   8.422 -0.3676 -1.0395 -0.5560
  924TIP3   OH226966   5.511   4.617   7.910 -0.5976  0.6310 -0.0165
  924TIP3    H126967   5.463   4.537   7.887  0.7176 -0.1560 -0.1209
  924TIP3    H226968   5.489   4.633   8.002 -0.3730 -0.2133  0.1892
  925TIP3   OH226969   3.349   2.532   1.435  0.5874  0.0423 -0.0033
  925TIP3    H126970   3.421   2.505   1.493  2.2246  1.1509 -1.4164
  925TIP3    H226971   3.285   2.573   1.494  1.6369  0.0543  1.1772
  926TIP3   OH226972   6.317   6.286   7.397  0.6081 -0.6226 -0.1302
  926TIP3    H126973   6.224   6.269   7.384  0.0501  2.2608 -0.5134
  926TIP3    H226974   6.322   6.336   7.479  1.6749  0.1146 -0.6132
  927TIP3   OH226975   3.726   2.392   9.656 -0.2376 -0.7522 -0.6236
  927TIP3    H126976   3.637   2.416   9.683 -0.2050  0.2120 -1.3297
  927TIP3    H226977   3.778   2.401   9.736 -0.3340  1.0462 -0.7222
  928TIP3   OH226978   4.640   1.890   8.391  0.0364 -0.5760 -0.0572
  928TIP3    H126979   4.705   1.945   8.433 -1.3334  0.1855  1.1652
  928TIP3    H226980   4.558   1.938   8.400 -0.5708 -1.0482 -2.4089
  929TIP3   OH226981   4.400   0.123   1.153 -0.3471 -0.2630 -0.6836
  929TIP3    H126982   4.447   0.039   1.148  0.1663 -0.1101  1.0187
  929TIP3    H226983   4.347   0.116   1.232 -1.8342  0.2815 -1.6045
  930TIP3   OH226984   2.996   6.394   2.611  0.0428  0.1207 -0.4363
  930TIP3    H126985   3.060   6.439   2.556 -0.0826  0.7353 -0.0889
  930TIP3    H226986   2.921   6.378   2.553  0.9749 -1.7847 -1.2184
  931TIP3   OH226987   6.269   1.459   0.233 -0.4677 -0.5050 -0.5411
  931TIP3    H126988   6.179   1.487   0.217 -0.1904 -0.5256 -2.2826
  931TIP3    H226989   6.308   1.451   0.146  1.6905  1.0398  0.1951
  932TIP3   OH226990   2.981   1.819   9.511 -0.3584 -0.4168 -0.5750
  932TIP3    H126991   2.942   1.906   9.522 -0.5035 -0.5248 -0.2259
  932TIP3    H226992   2.930   1.762   9.570  0.4507 -0.5184  0.0419
  933TIP3   OH226993   2.931   6.753   0.716  0.2466  0.0126  0.2962
  933TIP3    H126994   3.017   6.767   0.676  0.9792 -1.0037  1.4518
  933TIP3    H226995   2.932   6.807   0.795 -0.1419 -0.0913  0.3743
  934TIP3   OH226996   4.250   2.577   0.958 -0.1623  0.2866  0.4162
  934TIP3    H126997   4.290   2.626   1.031 -1.0842 -0.8080  1.6930
  934TIP3    H226998   4.268   2.485   0.978 -1.5719 -0.1101 -0.0130
  935TIP3   OH226999   6.186   1.706   9.867 -0.4329 -0.0633  0.3792
  935TIP3    H127000   6.198   1.647   9.793 -0.4660  0.7375 -0.2826
  935TIP3    H227001   6.133   1.778   9.832 -0.4761  0.3128  1.1913
  936TIP3   OH227002   6.610   3.983   8.919  0.0215 -0.2269  0.4059
  936TIP3    H127003   6.583   4.045   8.852  3.2106 -0.6024 -1.4450
  936TIP3    H227004   6.569   3.900   8.894  1.2865 -0.3978 -1.2931
  937TIP3   OH227005   1.052   5.036   2.185 -0.8455  0.3350 -0.6158
  937TIP3    H127006   1.123   4.986   2.226 -1.6453  0.5384  1.1044
  937TIP3    H227007   1.043   4.997   2.098  0.0945 -0.9729 -0.1660
  938TIP3   OH227008   0.601   1.340   0.060 -0.3541 -0.4644 -0.3854
  938TIP3    H127009   0.689   1.372   0.043 -0.4702  0.4950  0.7190
  938TIP3    H227010   0.590   1.265   0.000  0.9292 -0.1495 -1.0320
  939TIP3   OH227011   3.773   4.747   8.894 -0.2683 -0.1105 -0.4229
  939TIP3    H127012   3.777   4.663   8.849 -0.1212 -0.1275 -0.3754
  939TIP3    H227013   3.685   4.781   8.872  0.1425  0.3117 -1.4977
  940TIP3   OH227014   0.994   3.941   2.767 -0.5749  0.2601  0.2693
  940TIP3    H127015   0.986   4.029   2.804  0.8629  0.2676  0.6054
  940TIP3    H227016   0.926   3.938   2.700 -1.0526  1.4101  0.6635
  941TIP3   OH227017   2.901   7.270   8.566  0.1904  0.7012  0.0232
  941TIP3    H127018   2.933   7.191   8.609  0.7862  1.2093  0.5375
  941TIP3    H227019   2.960   7.282   8.492 -0.2781  0.3315 -0.4179
  942TIP3   OH227020   1.412   2.253   8.399  0.4464  0.0163  0.4922
  942TIP3    H127021   1.366   2.183   8.353  1.3601  0.1850 -0.7042
  942TIP3    H227022   1.479   2.208   8.451  0.2238 -0.0791  0.7006
  943TIP3   OH227023   1.613   6.697   7.931  0.5039 -0.1953  0.2255
  943TIP3    H127024   1.534   6.648   7.956  0.8173 -1.7180 -1.5765
  943TIP3    H227025   1.581   6.786   7.914 -0.7040 -0.6158  0.1715
  944TIP3   OH227026   1.619   7.264   0.712  0.3135 -0.0730 -0.2030
  944TIP3    H127027   1.703   7.287   0.751 -0.7145  2.0012  0.9159
  944TIP3    H227028   1.565   7.233   0.785 -1.2361  2.7263 -0.0131
  945TIP3   OH227029   4.935   2.506   1.823  0.3515 -0.9535 -0.0388
  945TIP3    H127030   4.933   2.488   1.917  0.2825  0.6999  0.2956
  945TIP3    H227031   4.979   2.590   1.816  0.3055 -1.0339 -1.4986
  946TIP3   OH227032   6.123   5.632   9.994  0.1863  0.4039  0.4125
  946TIP3    H127033   6.188   5.591  10.051  0.3108 -0.5505 -0.3930
  946TIP3    H227034   6.083   5.559   9.947 -2.4712  0.8152  1.8893
  947TIP3   OH227035   0.943   3.295   2.378  0.0461 -0.1056 -0.0886
  947TIP3    H127036   0.975   3.323   2.463  1.4029 -0.1821 -0.5547
  947TIP3    H227037   0.940   3.376   2.326  0.2987 -0.2345 -0.3023
  948TIP3   OH227038   4.627   3.270   0.067 -0.6859 -0.1297  0.6644
  948TIP3    H127039   4.700   3.247   0.124  0.7854 -0.5199 -1.3048
  948TIP3    H227040   4.584   3.187   0.048  1.5052 -0.7263 -2.2612
  949TIP3   OH227041   3.057   5.240   1.127  0.5109 -0.5002  0.1558
  949TIP3    H127042   3.021   5.328   1.116 -0.1921 -0.9245 -1.2398
  949TIP3    H227043   2.981   5.187   1.151  0.6971 -0.9509 -0.2514
  950TIP3   OH227044   2.723   0.431   1.806  0.3709 -0.2076  0.3856
  950TIP3    H127045   2.775   0.451   1.728  1.2688 -0.3624  0.9249
  950TIP3    H227046   2.721   0.513   1.855  0.7716 -0.4025  0.7371
  951TIP3   OH227047   4.102   1.929   7.445 -0.2511  0.2261  0.1645
  951TIP3    H127048   4.128   1.940   7.353  0.4608  0.8484  0.4304
  951TIP3    H227049   4.038   1.998   7.460 -0.8839 -0.3037 -0.0443
  952TIP3   OH227050   2.877   6.898   6.830  0.4114  0.2559 -0.4688
  952TIP3    H127051   2.885   6.851   6.747 -1.2567  0.3217 -0.7029
  952TIP3    H227052   2.925   6.980   6.815  1.3326 -0.3400 -0.8634
  953TIP3   OH227053   0.127   4.433   2.710  0.4501 -0.2331  0.0365
  953TIP3    H127054   0.069   4.383   2.767 -0.3896  1.1813  0.4750
  953TIP3    H227055   0.152   4.509   2.763  1.7959 -0.2327 -0.5606
  954TIP3   OH227056   4.781   4.609   9.258  0.5385 -0.3711 -0.0229
  954TIP3    H127057   4.697   4.621   9.302 -0.1801  0.2807 -1.5225
  954TIP3    H227058   4.841   4.668   9.304  0.7048 -2.1285  2.2465
  955TIP3   OH227059   7.060   0.710   9.111  0.0633  0.9187 -0.1240
  955TIP3    H127060   7.109   0.629   9.098  1.3471  1.4002  1.4413
  955TIP3    H227061   7.119   0.779   9.081 -0.8802  1.3096 -1.1117
  956TIP3   OH227062   4.139   2.476   1.333  0.6255  0.0402 -0.2445
  956TIP3    H127063   4.181   2.535   1.396 -0.8351  1.1576 -0.2514
  956TIP3    H227064   4.107   2.534   1.264 -1.4590 -0.6484  0.0882
  957TIP3   OH227065   5.010   4.555   9.102  0.0491 -0.0415  0.0221
  957TIP3    H127066   5.054   4.506   9.172  0.2262  0.6026  0.3639
  957TIP3    H227067   4.921   4.570   9.136 -0.2726 -0.8362 -0.4284
  958TIP3   OH227068   1.906   0.171   1.906  0.1808 -0.1084 -0.3957
  958TIP3    H127069   1.967   0.162   1.978  1.2109 -1.3122 -1.3698
  958TIP3    H227070   1.888   0.265   1.900  1.5866  0.2110  0.1827
  959TIP3   OH227071   3.849   0.536   9.172 -0.0369  0.0059  0.1602
  959TIP3    H127072   3.889   0.614   9.211 -0.5156 -0.0729  0.8387
  959TIP3    H227073   3.903   0.516   9.097  1.1520 -0.0570  1.0097
  960TIP3   OH227074   1.910   0.895   1.190  0.4891  0.1037 -0.0020
  960TIP3    H127075   1.827   0.910   1.236  0.9811  0.4811  0.7813
  960TIP3    H227076   1.893   0.819   1.134 -0.6591  0.7335 -0.5419
  961TIP3   OH227077   0.894   5.410   0.546 -0.4225 -0.2275 -0.2478
  961TIP3    H127078   0.824   5.436   0.486  0.4471 -0.3618 -1.3360
  961TIP3    H227079   0.964   5.473   0.530 -0.2250 -0.1757  0.7406
  962TIP3   OH227080   3.606   6.104   0.059 -0.6123 -0.2815  0.7661
  962TIP3    H127081   3.672   6.093  -0.010 -1.5376  1.2947 -0.4467
  962TIP3    H227082   3.640   6.174   0.114  0.9251 -2.6226  3.0302
  963TIP3   OH227083   0.697   2.272   9.139  0.4337 -0.4843 -0.0154
  963TIP3    H127084   0.781   2.307   9.109  0.3135 -1.4997 -1.6407
  963TIP3    H227085   0.659   2.230   9.062 -1.2556 -0.6670  0.8642
  964TIP3   OH227086   0.401   3.411   7.666  0.4070  0.1450  0.1731
  964TIP3    H127087   0.382   3.416   7.759  0.1525  3.4688  0.0322
  964TIP3    H227088   0.481   3.358   7.661  0.5402  0.0631  2.2675
  965TIP3   OH227089   3.076   1.097   0.739 -0.1419 -0.1102  0.2482
  965TIP3    H127090   3.062   1.007   0.709  1.3002  0.3200 -1.9470
  965TIP3    H227091   3.170   1.103   0.751  0.3537  2.0104 -3.2346
  966TIP3   OH227092   5.085   5.478   1.023  0.0401 -0.1437 -0.5030
  966TIP3    H127093   4.998   5.454   1.057  0.6277 -1.2241  0.2857
  966TIP3    H227094   5.136   5.398   1.029  1.3691  0.7022 -0.1507
  967TIP3   OH227095   5.455   4.305   8.123 -0.2133  0.4996 -0.3756
  967TIP3    H127096   5.399   4.231   8.101 -0.9175  0.8549  0.1797
  967TIP3    H227097   5.522   4.269   8.182 -0.7372  0.3638  0.1394
  968TIP3   OH227098   4.672   3.463   9.856  0.2297  0.2212 -0.1041
  968TIP3    H127099   4.628   3.394   9.906  0.5352  0.4781  0.5298
  968TIP3    H227100   4.754   3.478   9.903  1.1814 -0.5093 -1.4823
  969TIP3   OH227101   6.834   5.888   7.670 -0.2523 -0.3029  0.0366
  969TIP3    H127102   6.842   5.795   7.648 -0.4814 -0.1505 -0.6953
  969TIP3    H227103   6.925   5.919   7.674 -0.1970  0.0649 -2.4680
  970TIP3   OH227104   2.812   4.977   8.556  0.1502 -0.4302 -0.1794
  970TIP3    H127105   2.888   5.004   8.504  1.2873 -1.2567  0.9771
  970TIP3    H227106   2.828   4.885   8.576  0.0931 -0.0010  2.1075
  971TIP3   OH227107   4.454   6.698   2.553 -0.5728 -0.4694  0.2406
  971TIP3    H127108   4.412   6.620   2.591 -2.4617  0.4049  0.0491
  971TIP3    H227109   4.381   6.752   2.524  0.7481  0.7598 -0.8953
  972TIP3   OH227110   0.701   6.195   1.186 -0.2999  0.6309  0.1463
  972TIP3    H127111   0.721   6.223   1.096 -0.2604 -2.3425 -0.9033
  972TIP3    H227112   0.787   6.181   1.226 -0.3145  0.9177  0.2778
  973TIP3   OH227113   3.885   1.240   1.606  0.4965  0.1045  0.2107
  973TIP3    H127114   3.915   1.160   1.563 -1.0315 -1.2188  1.4830
  973TIP3    H227115   3.902   1.225   1.699 -2.5020 -0.0908  0.8342
  974TIP3   OH227116   3.454   1.281   9.081  0.6358  0.3225 -0.9397
  974TIP3    H127117   3.370   1.238   9.061  1.9472 -2.2506 -1.3993
  974TIP3    H227118   3.520   1.225   9.038  2.6596  1.7664  0.1352
  975TIP3   OH227119   5.730   6.565   1.002  0.0574 -0.6361  0.0125
  975TIP3    H127120   5.660   6.628   1.019 -0.6477 -1.5297  0.5563
  975TIP3    H227121   5.803   6.595   1.056 -0.5743 -0.7630  0.9826
  976TIP3   OH227122   1.606   6.827   0.990 -0.8067 -0.1250 -0.0293
  976TIP3    H127123   1.639   6.894   0.931 -2.5331  0.4359 -0.4256
  976TIP3    H227124   1.581   6.874   1.070 -1.2868 -0.4042 -0.0082
  977TIP3   OH227125   1.029   3.278   0.133 -0.5717 -0.0455 -0.0421
  977TIP3    H127126   1.123   3.273   0.147 -0.2819  0.0618 -1.7887
  977TIP3    H227127   0.991   3.269   0.221  1.0785  0.8884  0.8082
  978TIP3   OH227128   1.136   3.797   7.462  0.5189  0.0394 -0.1778
  978TIP3    H127129   1.046   3.797   7.430  0.2793  0.1190  0.4820
  978TIP3    H227130   1.159   3.704   7.470  0.0389 -0.0052  0.8831
  979TIP3   OH227131   1.806   2.895   9.575 -0.0999 -0.3548  0.3450
  979TIP3    H127132   1.781   2.921   9.486 -0.2823 -0.7709  0.2785
  979TIP3    H227133   1.848   2.974   9.611  0.9399 -0.5071 -0.4791
  980TIP3   OH227134   3.001   1.061   8.442  0.2250  0.7925  0.4219
  980TIP3    H127135   3.066   0.991   8.438 -0.0273  0.5478  0.5337
  980TIP3    H227136   2.936   1.037   8.377 -0.6458  0.1072  1.5030
  981TIP3   OH227137   1.453   6.468   7.913  0.0844 -0.0144  0.1003
  981TIP3    H127138   1.485   6.408   7.980  0.2078  0.2132  0.2459
  981TIP3    H227139   1.498   6.440   7.833  1.2456  0.7761  0.4527
  982TIP3   OH227140   4.161   4.876   7.380  0.0337 -0.1012 -0.0381
  982TIP3    H127141   4.174   4.948   7.319  0.6668 -0.1740  0.0032
  982TIP3    H227142   4.213   4.804   7.344  0.7000 -0.0380  0.7624
  983TIP3   OH227143   0.798   7.080   8.928  0.0956 -0.1113  0.2468
  983TIP3    H127144   0.706   7.081   8.900  0.0504 -0.7656  0.3564
  983TIP3    H227145   0.814   7.169   8.960 -0.7068 -0.1705  0.8627
  984TIP3   OH227146   1.691   5.557   2.087 -0.5319 -0.1042 -0.5856
  984TIP3    H127147   1.684   5.653   2.087  1.4045  0.0734 -0.0914
  984TIP3    H227148   1.653   5.530   2.171 -0.5147  0.2835 -0.4510
  985TIP3   OH227149   6.871   2.751   2.917  0.5302  0.2214  0.5788
  985TIP3    H127150   6.782   2.766   2.949  0.0537 -0.9203 -0.1377
  985TIP3    H227151   6.920   2.722   2.994 -0.4085 -1.7539  0.5082
  986TIP3   OH227152   5.546   0.202   7.469 -0.0240 -0.1818 -0.2664
  986TIP3    H127153   5.620   0.251   7.506 -0.4632 -0.5611  1.2140
  986TIP3    H227154   5.560   0.112   7.497 -2.2930  0.1252  2.3531
  987TIP3   OH227155   1.208   2.567   8.140 -0.0521  0.0112  0.3192
  987TIP3    H127156   1.178   2.635   8.199  0.3733 -0.2500  0.8445
  987TIP3    H227157   1.290   2.536   8.178 -0.5622 -1.2554  0.4516
  988TIP3   OH227158   5.345   0.351   0.894  0.6265  0.1069 -0.1988
  988TIP3    H127159   5.392   0.286   0.843  1.1974 -0.4290  0.9623
  988TIP3    H227160   5.253   0.330   0.881  0.6991  0.6512 -1.8318
  989TIP3   OH227161   3.076   3.645   2.128 -0.0604  0.1564  0.2485
  989TIP3    H127162   2.988   3.610   2.116  0.1687 -0.6091  0.7001
  989TIP3    H227163   3.064   3.740   2.132 -1.0009  0.0180  1.2904
  990TIP3   OH227164   2.986   4.921   1.801  0.5715  0.3235  0.9030
  990TIP3    H127165   3.037   4.973   1.863  1.8090 -0.0859  0.2665
  990TIP3    H227166   3.052   4.877   1.748 -0.3945 -2.1505  1.6091
  991TIP3   OH227167   5.256   3.594   1.915  0.6945  0.8624  0.0797
  991TIP3    H127168   5.252   3.682   1.877 -1.0904  1.3869  1.3893
  991TIP3    H227169   5.345   3.587   1.949  2.3989  0.4177 -3.8571
  992TIP3   OH227170   3.709   5.446   1.906  0.1486  0.4679  0.0440
  992TIP3    H127171   3.725   5.389   1.831  2.2987  1.2191 -0.1247
  992TIP3    H227172   3.697   5.534   1.868  3.3579  1.2508  0.5919
  993TIP3   OH227173   0.469   1.591   0.084 -0.4805  0.0662  0.2385
  993TIP3    H127174   0.466   1.618  -0.008 -0.0241  0.8674  0.4490
  993TIP3    H227175   0.505   1.503   0.082  0.0697  0.2953 -0.3102
  994TIP3   OH227176   6.460   0.808   9.022 -0.0995 -0.5886  0.0908
  994TIP3    H127177   6.483   0.727   9.068 -0.8550  0.0316  1.6052
  994TIP3    H227178   6.534   0.867   9.039  0.1375 -0.7282 -0.4426
  995TIP3   OH227179   0.090   6.932   9.781 -0.4326 -0.2050  0.1766
  995TIP3    H127180   0.068   6.843   9.810 -1.5768  0.3419  1.0589
  995TIP3    H227181   0.112   6.978   9.862 -0.5968  0.5212 -0.1866
  996TIP3   OH227182   4.489   5.780   1.160 -0.1970  0.0797  0.1517
  996TIP3    H127183   4.544   5.766   1.083  1.9455 -0.5927  1.7263
  996TIP3    H227184   4.545   5.828   1.221 -0.7784 -1.9665  2.4237
  997TIP3   OH227185   6.023   6.932   9.686 -0.0528  0.7446  0.4700
  997TIP3    H127186   5.931   6.910   9.701  0.1614 -0.0306  0.6793
  997TIP3    H227187   6.055   6.960   9.772 -0.1361  1.1745  0.3608
  998TIP3   OH227188   1.627   2.858   8.944 -0.2710  0.0369  0.4159
  998TIP3    H127189   1.658   2.910   8.869 -1.9343 -0.4649 -0.6753
  998TIP3    H227190   1.546   2.900   8.971 -1.0786 -1.3026  0.2084
  999TIP3   OH227191   2.492   0.546   9.018  0.5717  0.5659  0.4399
  999TIP3    H127192   2.523   0.479   8.957  0.4049  1.1122 -0.2613
  999TIP3    H227193   2.465   0.497   9.096  0.4924 -0.1739 -0.0449
 1000TIP3   OH227194   6.496   7.207   9.587 -0.1013  0.0291  0.2454
 1000TIP3    H127195   6.494   7.118   9.552 -2.7649 -0.1739  0.6457
 1000TIP3    H227196   6.484   7.264   9.511 -1.1925 -0.1601  0.2485
 1001TIP3   OH227197   4.712   0.101   1.105  0.2599 -0.2819 -0.6186
 1001TIP3    H127198   4.759   0.033   1.154  0.4607  1.0094  1.0680
 1001TIP3    H227199   4.781   0.161   1.076  0.1767 -1.1497 -2.7987
 1002TIP3   OH227200   1.408   1.181   0.105  0.1231  0.0902  0.1951
 1002TIP3    H127201   1.347   1.249   0.132 -0.2689  0.9831 -2.5747
 1002TIP3    H227202   1.455   1.219   0.031  3.3725 -0.9398  1.5218
 1003TIP3   OH227203   4.882   3.847   0.666  0.2586 -0.1134  0.7489
 1003TIP3    H127204   4.966   3.840   0.713  0.0964  2.3608  1.5603
 1003TIP3    H227205   4.858   3.939   0.675 -2.1446 -0.5905 -0.2099
 1004TIP3   OH227206   3.433   0.836   1.334 -0.2662 -0.6615  0.4011
 1004TIP3    H127207   3.451   0.778   1.408  0.6639  0.8462  1.4080
 1004TIP3    H227208   3.338   0.845   1.333 -0.3766 -1.6567  0.6333
 1005TIP3   OH227209   2.729   4.803   7.530 -0.5471  0.0826 -0.8738
 1005TIP3    H127210   2.753   4.820   7.439 -1.1761  1.0660 -0.8685
 1005TIP3    H227211   2.671   4.727   7.525 -1.2798  0.6599 -1.4046
 1006TIP3   OH227212   5.297   4.398   7.812 -0.3540  0.4289 -0.0340
 1006TIP3    H127213   5.313   4.304   7.798  0.8634  0.6835 -0.4651
 1006TIP3    H227214   5.241   4.424   7.739 -1.8129 -0.2258  0.8152
 1007TIP3   OH227215   7.044   1.219   1.140 -0.0146  0.0420  0.0547
 1007TIP3    H127216   6.954   1.231   1.169 -0.0953 -0.3128 -0.0347
 1007TIP3    H227217   7.077   1.307   1.126 -1.1305  0.1651 -2.2835
 1008TIP3   OH227218   1.921   5.178   0.175 -0.2515  0.4433 -0.0033
 1008TIP3    H127219   1.921   5.253   0.116  1.0137  0.5373  0.1006
 1008TIP3    H227220   1.830   5.170   0.202 -0.7511  0.7877 -1.4634
 1009TIP3   OH227221   3.540   4.600   2.945  0.3769  0.4676  0.3325
 1009TIP3    H127222   3.617   4.567   2.899  0.1097 -1.1059  0.9697
 1009TIP3    H227223   3.574   4.666   3.005  1.0569  0.6628 -0.2504
 1010TIP3   OH227224   3.461   6.022   9.774  0.1145  0.0991  0.1060
 1010TIP3    H127225   3.413   6.006   9.855  0.5708  0.1711  0.3943
 1010TIP3    H227226   3.535   6.077   9.800 -0.1113  0.6941 -0.4745
 1011TIP3   OH227227   1.165   3.024   0.658 -0.1368  0.2435  0.4750
 1011TIP3    H127228   1.238   2.965   0.678 -0.9723 -1.2340 -0.5712
 1011TIP3    H227229   1.105   2.970   0.606 -1.4474  1.7429  0.3610
 1012TIP3   OH227230   2.987   0.972   7.933 -0.2305 -0.1345  0.4170
 1012TIP3    H127231   3.032   1.017   8.004  0.6029 -0.7407  0.2799
 1012TIP3    H227232   3.049   0.973   7.860 -0.3103 -1.2537  0.3217
 1013TIP3   OH227233   5.965   1.530   1.097  0.6003 -0.0361  0.2489
 1013TIP3    H127234   5.920   1.524   1.012  1.0029  1.6128 -0.1249
 1013TIP3    H227235   5.959   1.442   1.134 -2.8304  0.0511  0.1867
 1014TIP3   OH227236   1.087   1.284   1.602  0.0007  0.1075 -0.0828
 1014TIP3    H127237   1.053   1.224   1.669 -1.0195  0.6529 -0.0950
 1014TIP3    H227238   1.059   1.246   1.519 -0.1813  0.3131 -0.1166
 1015TIP3   OH227239   0.307   0.788   8.504  0.1768  0.0931 -0.5047
 1015TIP3    H127240   0.342   0.737   8.431 -1.0531  0.9801 -1.7678
 1015TIP3    H227241   0.298   0.725   8.575  1.4887 -0.7737 -1.0680
 1016TIP3   OH227242   1.685   3.740   8.639  0.1384 -0.5208  0.5273
 1016TIP3    H127243   1.606   3.776   8.679 -0.4322 -2.1671  0.9580
 1016TIP3    H227244   1.737   3.708   8.713  1.9790  1.8974  0.3833
 1017TIP3   OH227245   0.095   3.129   1.671 -0.4536  0.0125 -0.1085
 1017TIP3    H127246   0.146   3.188   1.615  0.1142  0.5879  0.9768
 1017TIP3    H227247   0.087   3.049   1.619  0.1652  0.4748 -0.9601
 1018TIP3   OH227248   1.916   4.548   0.688 -1.0275 -0.2129  0.0082
 1018TIP3    H127249   1.860   4.484   0.645 -3.2751  1.6054  0.0475
 1018TIP3    H227250   1.874   4.566   0.772 -1.7414  2.7862 -0.8415
 1019TIP3   OH227251   3.309   0.997   7.344 -0.0326  0.3174 -0.3617
 1019TIP3    H127252   3.319   1.027   7.253 -1.1389  1.4209 -0.1504
 1019TIP3    H227253   3.387   1.030   7.388  0.3612  0.0418 -0.8375
 1020TIP3   OH227254   4.742   1.423   1.685  0.9941  0.2673  0.1635
 1020TIP3    H127255   4.726   1.437   1.778  0.4757  0.6941  0.0108
 1020TIP3    H227256   4.709   1.502   1.642  1.2044  0.0635 -0.3871
 1021TIP3   OH227257   0.626   4.029   1.524  0.0584 -0.0272  0.0387
 1021TIP3    H127258   0.628   3.933   1.517  3.0422 -0.0940  0.5723
 1021TIP3    H227259   0.644   4.047   1.616 -0.5383  1.0777 -0.0398
 1022TIP3   OH227260   0.397   5.115   0.075 -0.2336 -0.1717  0.4324
 1022TIP3    H127261   0.310   5.107   0.035 -0.1628  3.3129 -0.7858
 1022TIP3    H227262   0.380   5.116   0.169 -1.6300  0.9060  0.2051
 1023TIP3   OH227263   4.697   6.155   9.271 -0.0835  0.0320  0.6601
 1023TIP3    H127264   4.675   6.181   9.182 -0.0956  0.0872  0.6786
 1023TIP3    H227265   4.632   6.088   9.293 -0.0487 -0.0183  0.6085
 1024TIP3   OH227266   1.327   4.910   7.267  0.1037  0.1772  0.1767
 1024TIP3    H127267   1.282   4.841   7.219  0.2120  0.1550  0.1076
 1024TIP3    H227268   1.379   4.863   7.333  1.1068  0.1149 -0.6253
 1025TIP3   OH227269   1.315   6.469   8.190  0.2662 -0.0921  0.6304
 1025TIP3    H127270   1.328   6.421   8.272 -0.7184 -1.2213  0.1499
 1025TIP3    H227271   1.374   6.427   8.127  0.3254  0.1536  0.5201
 1026TIP3   OH227272   1.429   2.841   7.659 -0.1118  0.7335 -0.4797
 1026TIP3    H127273   1.395   2.922   7.696 -0.8504  0.8516 -1.3963
 1026TIP3    H227274   1.422   2.852   7.564  0.3580 -0.1528 -0.6348
 1027TIP3   OH227275   6.768   4.149   0.004  0.5427  0.3769  0.1296
 1027TIP3    H127276   6.769   4.088  -0.070  2.4328 -2.2624  2.1404
 1027TIP3    H227277   6.697   4.117   0.060  1.3320  0.2191  1.0579
 1028TIP3   OH227278   6.627   6.921   8.240  0.0136 -0.6234 -0.0530
 1028TIP3    H127279   6.662   7.010   8.249 -0.0584 -0.4468 -1.2570
 1028TIP3    H227280   6.604   6.895   8.329 -1.3726  1.1558  0.1830
 1029TIP3   OH227281   2.109   0.197   8.654  0.1856 -0.0078  0.0253
 1029TIP3    H127282   2.055   0.234   8.724 -1.3716 -0.7181 -0.7438
 1029TIP3    H227283   2.052   0.132   8.612  1.0061  0.4945 -1.9743
 1030TIP3   OH227284   2.665   3.606   7.985  0.6110 -0.4338  1.0916
 1030TIP3    H127285   2.668   3.511   7.998 -0.6502 -0.7464 -0.5504
 1030TIP3    H227286   2.756   3.634   7.982  1.0571 -1.9349 -0.5131
 1031TIP3   OH227287   1.711   0.534   8.299 -0.2175  0.3489 -0.2444
 1031TIP3    H127288   1.638   0.475   8.318 -1.0887  1.4730  0.0614
 1031TIP3    H227289   1.779   0.510   8.362 -0.1729 -0.9379 -0.7521
 1032TIP3   OH227290   1.552   2.273   0.850 -0.5682  0.0058  0.0669
 1032TIP3    H127291   1.553   2.195   0.794  1.1510  1.3061 -1.9215
 1032TIP3    H227292   1.460   2.297   0.856 -1.1970 -2.3583  1.0947
 1033TIP3   OH227293   6.177   0.028   7.194  0.4363 -0.2150  0.2391
 1033TIP3    H127294   6.122   0.091   7.148  0.4333 -0.7038 -0.4392
 1033TIP3    H227295   6.126  -0.053   7.193  1.0345 -0.5869 -0.1115
 1034TIP3   OH227296   4.577   4.848   0.780 -0.0337  0.1547  0.3088
 1034TIP3    H127297   4.628   4.767   0.774  2.9158  1.9185 -0.9872
 1034TIP3    H227298   4.517   4.845   0.706  0.2283 -0.7348  0.1210
 1035TIP3   OH227299   3.428   5.775   0.458  0.1923 -0.5035 -0.1441
 1035TIP3    H127300   3.404   5.710   0.523 -2.0833  0.5702  0.2114
 1035TIP3    H227301   3.365   5.762   0.387  0.0277  0.9174 -0.2950
 1036TIP3   OH227302   3.638   3.729   7.244 -0.4262 -0.7648  0.2298
 1036TIP3    H127303   3.666   3.647   7.286  0.2051 -0.4524  0.4248
 1036TIP3    H227304   3.719   3.768   7.211 -0.7308 -0.2423  0.0969
 1037TIP3   OH227305   0.308   0.011   0.490  0.0398 -0.4245 -0.2703
 1037TIP3    H127306   0.317  -0.031   0.576  0.4523  0.7994  0.3135
 1037TIP3    H227307   0.303  -0.061   0.428 -0.0085 -1.3300  0.7652
 1038TIP3   OH227308   4.850   4.969   0.341  0.1923  0.0778  0.1873
 1038TIP3    H127309   4.860   4.911   0.266 -0.8766  1.0951 -0.7944
 1038TIP3    H227310   4.884   5.053   0.311  2.1639 -0.0954  1.7391
 1039TIP3   OH227311   0.683   6.491   9.949  0.1398  0.1440  0.3893
 1039TIP3    H127312   0.608   6.533   9.906  0.5557  0.5977  0.0959
 1039TIP3    H227313   0.645   6.415   9.994 -0.3794 -0.0722 -0.3846
 1040TIP3   OH227314   6.922   5.922   9.309 -0.1114  0.4211  0.1001
 1040TIP3    H127315   6.928   5.830   9.282  2.1621  0.4139  0.4116
 1040TIP3    H227316   6.933   5.920   9.404  0.1718  1.0133  0.0836
 1041TIP3   OH227317   5.423   1.594   8.004  0.4018 -1.2702 -0.0145
 1041TIP3    H127318   5.331   1.575   7.984  0.5553 -1.7815 -0.2591
 1041TIP3    H227319   5.456   1.513   8.043  1.1968 -1.6915 -1.4828
 1042TIP3   OH227320   3.806   6.404   8.226  0.1129 -0.2964 -0.3295
 1042TIP3    H127321   3.804   6.489   8.182  0.7227  0.0492  0.2910
 1042TIP3    H227322   3.756   6.418   8.307  3.8514  0.8208  2.0370
 1043TIP3   OH227323   2.785   5.389   3.152  0.3312  0.7068 -0.0084
 1043TIP3    H127324   2.761   5.482   3.154 -0.6290  0.4651  0.9858
 1043TIP3    H227325   2.826   5.374   3.237  0.5452  0.2386 -0.1941
 1044TIP3   OH227326   0.789   4.764   8.760 -0.1799 -0.4243 -0.2957
 1044TIP3    H127327   0.814   4.844   8.807 -0.7643  0.6808 -1.7716
 1044TIP3    H227328   0.806   4.694   8.822  1.8119  0.6897  0.5232
 1045TIP3   OH227329   0.460   3.371   1.175  0.3797  0.1399  0.3579
 1045TIP3    H127330   0.474   3.355   1.268 -0.3264 -0.3651  0.3836
 1045TIP3    H227331   0.505   3.299   1.131  2.1710  1.2802  0.2099
 1046TIP3   OH227332   3.665   1.753   8.610  0.6383  0.5606 -0.2222
 1046TIP3    H127333   3.700   1.698   8.540  0.3354  2.0252 -1.5841
 1046TIP3    H227334   3.741   1.779   8.661  1.1221  0.9565 -1.1275
 1047TIP3   OH227335   5.675   0.446   0.216  0.3571  0.1581  0.3523
 1047TIP3    H127336   5.626   0.528   0.218 -0.0638  0.1779 -3.4582
 1047TIP3    H227337   5.608   0.378   0.203  0.9787 -0.3549 -0.2176
 1048TIP3   OH227338   2.853   6.367   1.630  0.4992 -0.0938  0.4954
 1048TIP3    H127339   2.803   6.400   1.705  0.8214 -0.8749  1.0608
 1048TIP3    H227340   2.825   6.276   1.620  0.4647  0.0024 -0.3339
 1049TIP3   OH227341   4.576   4.920   0.092  0.2251  0.4646  0.4135
 1049TIP3    H127342   4.621   5.002   0.110  1.1541  0.3861 -1.3902
 1049TIP3    H227343   4.508   4.943   0.028 -1.2110  0.2532  1.7797
 1050TIP3   OH227344   4.033   2.289   2.627 -0.0372  0.0168  0.3715
 1050TIP3    H127345   4.020   2.363   2.567 -1.4747 -0.0189  0.5927
 1050TIP3    H227346   3.957   2.233   2.611  0.6750 -1.0723  0.7135
 1051TIP3   OH227347   4.411   7.062   1.987 -0.3205 -0.6116 -1.0402
 1051TIP3    H127348   4.323   7.026   2.000 -0.3476  0.2638  2.1571
 1051TIP3    H227349   4.469   6.992   2.018 -0.0417 -0.2396 -0.7200
 1052TIP3   OH227350   1.589   4.780   1.750 -0.1281  0.0824  0.2788
 1052TIP3    H127351   1.572   4.829   1.831  0.5475  1.0956 -0.1742
 1052TIP3    H227352   1.508   4.791   1.699 -0.2947  0.0208  0.5264
 1053TIP3   OH227353   2.771   1.189   2.254  0.3168  0.4484  0.1588
 1053TIP3    H127354   2.864   1.186   2.232  0.0923 -0.2596 -0.7363
 1053TIP3    H227355   2.761   1.269   2.305  1.5797  0.0846  1.0431
 1054TIP3   OH227356   6.689   5.629   9.452  0.2913 -0.4432 -0.1494
 1054TIP3    H127357   6.748   5.612   9.379  0.7576  1.5054 -0.2947
 1054TIP3    H227358   6.622   5.688   9.417  0.6712  0.7441  1.0001
 1055TIP3   OH227359   4.538   1.407   0.476 -0.3238 -0.4656 -0.1603
 1055TIP3    H127360   4.522   1.436   0.566 -0.1180 -0.3852 -0.1489
 1055TIP3    H227361   4.580   1.482   0.433 -1.7687  0.0489 -0.7525
 1056TIP3   OH227362   7.035   6.245   0.232  0.2701  0.0692 -0.4999
 1056TIP3    H127363   7.000   6.165   0.193  0.3331  0.2381 -0.9060
 1056TIP3    H227364   7.051   6.303   0.158 -0.8980  0.9126 -0.1276
 1057TIP3   OH227365   1.080   0.255   7.626 -0.0248 -0.2163 -0.4012
 1057TIP3    H127366   1.175   0.250   7.638 -0.0907 -0.0264  0.2024
 1057TIP3    H227367   1.068   0.239   7.532  0.6354  0.1501 -0.5616
 1058TIP3   OH227368   5.761   4.037   0.329 -0.0562  0.1439 -0.0728
 1058TIP3    H127369   5.759   4.090   0.249 -0.4752 -0.3024 -0.3618
 1058TIP3    H227370   5.737   3.949   0.301  1.8652 -0.5081  0.1931
 1059TIP3   OH227371   6.655   0.835   2.611 -0.2890  0.5863 -0.5208
 1059TIP3    H127372   6.597   0.763   2.587 -0.3501  0.5481 -0.2549
 1059TIP3    H227373   6.629   0.859   2.700  0.5943  0.0682 -0.1082
 1060TIP3   OH227374   4.771   5.965   0.477  0.0620  0.0313  0.6149
 1060TIP3    H127375   4.840   5.998   0.535  0.1631  1.5550 -0.3234
 1060TIP3    H227376   4.699   5.942   0.537  0.6225  0.3681  1.4391
 1061TIP3   OH227377   5.641   3.694   7.574 -0.2613  0.6756  0.0462
 1061TIP3    H127378   5.546   3.703   7.582 -0.1358  1.3274  0.9984
 1061TIP3    H227379   5.676   3.757   7.637  0.7874 -0.8909  1.1014
 1062TIP3   OH227380   3.882   1.841   8.770  0.2514 -0.0818  0.8034
 1062TIP3    H127381   3.883   1.929   8.807  0.4213  0.2882 -0.0441
 1062TIP3    H227382   3.892   1.782   8.845 -1.0287  0.5705  1.5055
 1063TIP3   OH227383   6.271   1.469   0.867 -0.2151 -0.5933 -0.4811
 1063TIP3    H127384   6.326   1.439   0.794 -0.0598 -0.8838 -0.2495
 1063TIP3    H227385   6.285   1.564   0.871 -0.9994 -0.4167 -1.4639
 1064TIP3   OH227386   3.857   6.264   1.203  0.3559 -0.1026 -0.6602
 1064TIP3    H127387   3.935   6.231   1.248 -0.1364 -1.1500 -0.5476
 1064TIP3    H227388   3.805   6.306   1.272  1.1468  1.2862 -0.8650
 1065TIP3   OH227389   0.552   1.562   8.301 -0.2730  0.2268  0.0500
 1065TIP3    H127390   0.471   1.584   8.255  1.1698  1.7554 -1.9696
 1065TIP3    H227391   0.549   1.616   8.380 -0.1390  2.3424 -1.2872
 1066TIP3   OH227392   1.034   4.404   9.605 -0.3171  0.1315 -0.3450
 1066TIP3    H127393   1.011   4.324   9.651 -1.7925 -0.0090 -1.2639
 1066TIP3    H227394   0.952   4.433   9.563  0.6710  0.8920 -1.8710
 1067TIP3   OH227395   6.344   5.197   1.298  0.1811 -0.4492  0.4129
 1067TIP3    H127396   6.304   5.111   1.289 -0.2990 -0.2915  0.9734
 1067TIP3    H227397   6.321   5.243   1.218  0.7399 -0.9565 -0.0479
 1068TIP3   OH227398   3.002   6.426   7.343  0.3922  0.1801  0.1677
 1068TIP3    H127399   3.008   6.457   7.433  2.0288 -0.8674  0.4584
 1068TIP3    H227400   2.931   6.362   7.344  2.2516 -1.9962  1.4438
 1069TIP3   OH227401   6.651   5.451   0.078  0.1936  0.2306 -0.0811
 1069TIP3    H127402   6.668   5.471  -0.014 -2.3650  1.9206 -0.2964
 1069TIP3    H227403   6.623   5.535   0.116  0.2683 -0.6264  2.0038
 1070TIP3   OH227404   1.287   4.463   2.541  0.4873 -0.0302  0.0691
 1070TIP3    H127405   1.231   4.490   2.469  1.1014  1.8039  0.2301
 1070TIP3    H227406   1.349   4.535   2.552  1.7588 -1.2179  1.0396
 1071TIP3   OH227407   3.229   3.169   7.727 -0.5728 -0.4552  0.1560
 1071TIP3    H127408   3.216   3.241   7.665 -0.4427 -0.6245 -0.0665
 1071TIP3    H227409   3.313   3.130   7.701 -0.3699 -0.3375  0.6248
 1072TIP3   OH227410   4.659   2.868   1.152  0.1402  0.1324 -0.2702
 1072TIP3    H127411   4.740   2.848   1.198  0.0226 -3.1178 -1.2143
 1072TIP3    H227412   4.651   2.963   1.156  2.9326  0.3811  1.5730
 1073TIP3   OH227413   6.374   1.893   8.168  0.0332  0.1038 -0.4127
 1073TIP3    H127414   6.366   1.830   8.240 -1.5865 -0.3347 -0.9273
 1073TIP3    H227415   6.416   1.842   8.097  1.4305  0.4762  0.1071
 1074TIP3   OH227416   1.043   5.406   8.414 -0.0363  0.0322 -0.2553
 1074TIP3    H127417   1.124   5.457   8.414  0.2506 -0.4143 -0.8726
 1074TIP3    H227418   0.998   5.434   8.334 -0.2843 -0.0487 -0.1449
 1075TIP3   OH227419   5.438   5.705   2.683  0.3575  0.3415 -0.2878
 1075TIP3    H127420   5.376   5.778   2.689 -0.3989 -0.4111  2.1392
 1075TIP3    H227421   5.425   5.655   2.764  0.4718 -2.8105 -2.0378
 1076TIP3   OH227422   7.025   7.023   7.224 -0.3862  0.3224  0.6044
 1076TIP3    H127423   7.099   6.966   7.248 -2.6642 -2.2868  2.1154
 1076TIP3    H227424   6.997   7.061   7.307 -1.6444  0.0235  0.3378
 1077TIP3   OH227425   3.516   1.056   9.990 -0.0920  0.0656 -0.3275
 1077TIP3    H127426   3.524   0.968   9.954  0.6533 -0.1428  0.3168
 1077TIP3    H227427   3.573   1.110   9.936 -0.4278  0.1262 -0.6249
 1078TIP3   OH227428   6.568   3.505   0.607 -0.2327  0.1193  0.3157
 1078TIP3    H127429   6.505   3.464   0.666 -0.3933 -1.4125 -0.8459
 1078TIP3    H227430   6.624   3.433   0.579  2.5123  1.5304  1.7967
 1079TIP3   OH227431   5.098   1.150   1.394  0.1003  0.5083  0.5491
 1079TIP3    H127432   5.076   1.178   1.482 -1.1393 -0.1469  0.4802
 1079TIP3    H227433   5.178   1.098   1.404  1.0945  2.0721  0.9833
 1080TIP3   OH227434   6.243   4.140   0.960 -0.7563 -0.5236 -1.1158
 1080TIP3    H127435   6.177   4.184   0.906  1.1287  1.2783 -2.0817
 1080TIP3    H227436   6.326   4.172   0.926  0.5716  0.2449  2.4995
 1081TIP3   OH227437   6.352   7.079   0.830 -0.1887  0.0523 -0.4947
 1081TIP3    H127438   6.288   7.091   0.900  0.0498 -0.1492 -0.2418
 1081TIP3    H227439   6.429   7.042   0.873 -0.2233 -0.5682 -0.9398
 1082TIP3   OH227440   1.148   1.128   9.439 -0.4805  0.1441  0.2306
 1082TIP3    H127441   1.207   1.057   9.465 -0.0284  0.3356 -0.2487
 1082TIP3    H227442   1.092   1.142   9.515 -0.4486 -0.5996  0.3962
 1083TIP3   OH227443   1.850   5.087   9.812 -0.0472 -0.2874  0.2131
 1083TIP3    H127444   1.800   5.163   9.783 -0.2024 -0.9254 -1.3036
 1083TIP3    H227445   1.806   5.058   9.892 -0.1674  1.0102  0.6466
 1084TIP3   OH227446   4.188   0.406   9.803 -0.4757 -0.3463 -0.0146
 1084TIP3    H127447   4.178   0.322   9.757  0.4218 -0.5531  0.1406
 1084TIP3    H227448   4.100   0.443   9.805 -0.6311 -0.5730 -1.4548
 1085TIP3   OH227449   1.333   0.982   0.487  0.5087  0.4195  0.1952
 1085TIP3    H127450   1.408   0.922   0.484  1.1332  1.1200  1.0469
 1085TIP3    H227451   1.258   0.928   0.464  1.0369 -0.7241  1.0531
 1086TIP3   OH227452   5.359   6.051   8.987  0.2502  0.0232  0.5507
 1086TIP3    H127453   5.430   6.025   9.046  1.2781  1.0563 -0.1901
 1086TIP3    H227454   5.399   6.115   8.928 -0.9080 -0.4880 -0.8571
 1087TIP3   OH227455   0.868   4.451   7.310 -0.4675  0.0227 -0.4429
 1087TIP3    H127456   0.783   4.410   7.291 -0.8256  0.4051  0.2750
 1087TIP3    H227457   0.924   4.425   7.237 -0.4201 -2.4233  0.3666
 1088TIP3   OH227458   4.970   1.076   1.146 -0.3440 -0.2375  0.7407
 1088TIP3    H127459   4.902   1.136   1.116  1.0942  0.7348 -0.7571
 1088TIP3    H227460   4.983   1.098   1.238 -0.2731  1.3314  0.3705
 1089TIP3   OH227461   2.524   4.339   2.087  0.5371  0.2080 -0.8231
 1089TIP3    H127462   2.444   4.366   2.041  0.4581 -2.2934 -2.3107
 1089TIP3    H227463   2.523   4.390   2.168 -2.6042  0.2558 -0.7774
 1090TIP3   OH227464   3.134   1.129   8.164  0.0594 -0.1734  0.2655
 1090TIP3    H127465   3.183   1.168   8.092 -0.2019  2.5751  1.4515
 1090TIP3    H227466   3.201   1.113   8.231  0.0918 -1.4238 -0.0467
 1091TIP3   OH227467   2.288   5.419   2.897  0.6042 -0.0425  0.0291
 1091TIP3    H127468   2.230   5.351   2.931  0.6569  0.6141  1.4956
 1091TIP3    H227469   2.277   5.415   2.802  0.0902 -1.6244  0.1328
 1092TIP3   OH227470   0.426   2.267   7.287 -0.5089  0.1098 -0.2174
 1092TIP3    H127471   0.393   2.212   7.216 -0.3766 -0.5412  0.2120
 1092TIP3    H227472   0.507   2.305   7.253  0.5616 -1.6739  0.2212
 1093TIP3   OH227473   1.384   0.521   7.934  0.5438 -0.2310 -0.3352
 1093TIP3    H127474   1.384   0.591   8.000  3.1159 -0.5716  0.1298
 1093TIP3    H227475   1.298   0.480   7.943  0.0048  1.1250  1.2916
 1094TIP3   OH227476   3.905   6.472   0.251  0.7632  0.1808  0.3575
 1094TIP3    H127477   3.982   6.528   0.254  0.5343  0.5201 -0.0167
 1094TIP3    H227478   3.854   6.496   0.329  2.3084 -1.9205  2.1177
 1095TIP3   OH227479   3.259   5.666   8.984  0.3710  0.2326 -0.3683
 1095TIP3    H127480   3.309   5.682   9.064 -2.1254 -1.1439  1.6415
 1095TIP3    H227481   3.294   5.584   8.949  0.6421  0.1711  0.0414
 1096TIP3   OH227482   6.545   0.578   2.795  0.1636  0.1496 -0.0012
 1096TIP3    H127483   6.478   0.600   2.859 -0.4520 -0.7425 -0.3144
 1096TIP3    H227484   6.501   0.589   2.710  0.7480  0.6249 -0.2469
 1097TIP3   OH227485   4.122   6.762   9.233  0.0117 -0.1856  0.7882
 1097TIP3    H127486   4.117   6.706   9.311 -0.5713 -0.6083  0.4553
 1097TIP3    H227487   4.089   6.706   9.162  1.8392 -0.3027 -0.0299
 1098TIP3   OH227488   4.557   0.117   9.564 -0.0884  0.5203  0.0039
 1098TIP3    H127489   4.538   0.031   9.602 -0.2666  0.6758  0.2730
 1098TIP3    H227490   4.489   0.130   9.498  0.0949  0.3408 -0.2205
 1099TIP3   OH227491   5.919   4.536   7.902  0.5740 -0.1696 -0.8416
 1099TIP3    H127492   5.857   4.583   7.847  0.2040 -0.5534 -0.7586
 1099TIP3    H227493   5.925   4.449   7.862 -0.3967 -0.7541  0.2378
 1100TIP3   OH227494   3.283   1.000   8.917  1.0613  0.4098  0.1619
 1100TIP3    H127495   3.311   0.982   9.007 -0.7221  0.7150  0.8148
 1100TIP3    H227496   3.296   0.917   8.871  0.9781 -0.0591  0.9610
 1101TIP3   OH227497   6.435   3.159   8.169 -0.0353 -0.9193  0.0112
 1101TIP3    H127498   6.502   3.214   8.129 -0.7571  0.7214  0.9183
 1101TIP3    H227499   6.454   3.070   8.139  2.2791 -0.4511 -0.0705
 1102TIP3   OH227500   2.249   4.427   1.946  0.5583 -0.3775  0.5161
 1102TIP3    H127501   2.178   4.367   1.968  0.7853 -0.4910  0.9457
 1102TIP3    H227502   2.209   4.513   1.943  0.0954 -0.6160 -0.7270
 1103TIP3   OH227503   2.888   2.889   8.856  0.6360  0.1872 -0.2935
 1103TIP3    H127504   2.905   2.864   8.947  0.5420  1.5277  0.1095
 1103TIP3    H227505   2.818   2.830   8.827 -0.0332  0.4203  0.8235
 1104TIP3   OH227506   6.135   6.749   9.913  0.1290 -0.0142 -0.5099
 1104TIP3    H127507   6.157   6.671   9.963  2.3097  1.9100  1.8410
 1104TIP3    H227508   6.068   6.793   9.966 -0.1154  0.3558 -1.1176
 1105TIP3   OH227509   0.626   0.948   1.264  0.0220  0.0434  0.1131
 1105TIP3    H127510   0.575   1.016   1.220 -1.2166 -0.8154  0.1932
 1105TIP3    H227511   0.715   0.959   1.229 -0.7493 -0.1195 -2.0423
 1106TIP3   OH227512   0.196   4.296   7.503 -0.4159 -0.4625 -0.1100
 1106TIP3    H127513   0.231   4.230   7.444 -0.7473 -0.7499  0.0067
 1106TIP3    H227514   0.177   4.247   7.584  2.2609  0.3336  1.1159
 1107TIP3   OH227515   4.949   4.380   1.966  0.5469  0.0803  0.8030
 1107TIP3    H127516   4.981   4.470   1.962  1.1020 -0.1710 -1.8982
 1107TIP3    H227517   4.854   4.388   1.969  0.5013  0.7950 -1.2245
 1108TIP3   OH227518   4.088   4.825   7.992  0.1260  0.5109 -0.2134
 1108TIP3    H127519   4.154   4.836   7.924  0.3289  2.5732  0.2594
 1108TIP3    H227520   4.082   4.730   8.004  2.3095  0.2195 -0.9308
 1109TIP3   OH227521   4.184   1.629   8.542  0.3144  0.1095  0.0376
 1109TIP3    H127522   4.264   1.678   8.562 -0.1531  0.9720 -0.1608
 1109TIP3    H227523   4.113   1.688   8.566 -0.2619 -0.3754 -0.4389
 1110TIP3   OH227524   2.367   5.484   1.908  0.3166  0.0416  0.0207
 1110TIP3    H127525   2.395   5.398   1.937 -0.3070  0.9751  3.9322
 1110TIP3    H227526   2.273   5.486   1.927  0.0089  1.1131 -1.4162
 1111TIP3   OH227527   3.505   7.166   8.974  0.3988 -0.0605 -0.3980
 1111TIP3    H127528   3.425   7.218   8.974  0.8957  0.8604 -2.9380
 1111TIP3    H227529   3.569   7.220   8.927  1.4573 -2.1653 -1.5435
 1112TIP3   OH227530   2.406   1.354   7.424 -0.2513  0.0189 -0.1495
 1112TIP3    H127531   2.311   1.341   7.431 -0.1134 -0.8866  0.1640
 1112TIP3    H227532   2.419   1.388   7.335 -0.7959 -0.5966 -0.4735
 1113TIP3   OH227533   2.629   2.390   0.407  0.0635 -0.0814  0.0465
 1113TIP3    H127534   2.600   2.300   0.425 -0.4539  0.1935  0.6197
 1113TIP3    H227535   2.723   2.389   0.428 -0.5295  0.2701  3.1160
 1114TIP3   OH227536   2.329   6.114   1.574 -0.0626 -0.3756 -0.3321
 1114TIP3    H127537   2.268   6.045   1.546  0.5656 -0.4309 -1.6068
 1114TIP3    H227538   2.276   6.193   1.580  0.0534  0.0873 -3.5700
 1115TIP3   OH227539   0.326   6.890   9.395  0.0450 -0.4939 -0.1915
 1115TIP3    H127540   0.325   6.915   9.302  1.2768 -1.7824 -0.5758
 1115TIP3    H227541   0.336   6.795   9.394 -0.6620 -0.6085  1.2734
 1116TIP3   OH227542   3.709   3.470   7.996 -0.4784  0.3146 -0.1570
 1116TIP3    H127543   3.652   3.546   7.985 -1.9057 -1.1036 -5.4164
 1116TIP3    H227544   3.796   3.501   7.969 -0.4498  0.6586  0.3148
 1117TIP3   OH227545   6.139   4.548   8.402  0.6737  0.1793  0.0129
 1117TIP3    H127546   6.072   4.616   8.394  0.6804  0.2707  0.6885
 1117TIP3    H227547   6.212   4.580   8.349  0.9590  1.0673  0.9158
 1118TIP3   OH227548   2.944   0.643   7.735 -0.1808  0.2098  0.1380
 1118TIP3    H127549   2.926   0.628   7.828 -0.0248 -0.3249  0.0840
 1118TIP3    H227550   2.860   0.673   7.700 -0.2188  0.4995  0.4673
 1119TIP3   OH227551   2.975   6.550   9.814  0.1818 -0.1470 -1.0394
 1119TIP3    H127552   2.957   6.629   9.865  0.2707 -1.1259  0.5650
 1119TIP3    H227553   2.904   6.547   9.749 -0.2321  0.8504 -0.6652
 1120TIP3   OH227554   3.516   6.610   2.373  0.4592 -0.3404  0.3217
 1120TIP3    H127555   3.450   6.565   2.426  0.5583 -0.1555  0.6008
 1120TIP3    H227556   3.471   6.629   2.290  0.2452 -0.4551  0.4113
 1121TIP3   OH227557   0.154   3.590   1.492 -0.4188 -0.6666  0.2340
 1121TIP3    H127558   0.075   3.633   1.460 -0.3626 -1.5534 -1.1500
 1121TIP3    H227559   0.221   3.611   1.428  0.5147  0.1304  1.4282
 1122TIP3   OH227560   6.221   6.721   8.060  0.3658 -0.3403  0.0851
 1122TIP3    H127561   6.213   6.728   8.155 -0.3001 -1.4623  0.1234
 1122TIP3    H227562   6.305   6.764   8.040  0.5977 -0.2503  1.1892
 1123TIP3   OH227563   6.636   2.761   3.038  0.6751 -0.1950  0.0415
 1123TIP3    H127564   6.586   2.831   3.079  0.3262 -0.3633 -0.0969
 1123TIP3    H227565   6.570   2.700   3.005  0.7109  1.6204 -3.9501
 1124TIP3   OH227566   0.563   4.129   2.102  0.6241  0.0276  0.5964
 1124TIP3    H127567   0.595   4.126   2.192  0.8306 -0.4871  0.5069
 1124TIP3    H227568   0.469   4.147   2.110  0.6216 -0.1305  0.9150
 1125TIP3   OH227569   2.971   4.599   0.052  0.2896  0.1607 -0.0586
 1125TIP3    H127570   3.053   4.595   0.003  0.7063 -0.3391  0.6687
 1125TIP3    H227571   2.937   4.510   0.050 -0.6854  0.5250 -1.0737
 1126TIP3   OH227572   2.942   5.748   2.646  0.6280 -0.4602 -0.1250
 1126TIP3    H127573   3.010   5.801   2.605  0.8744 -1.5101 -1.1289
 1126TIP3    H227574   2.893   5.710   2.573  0.2476 -1.3260  0.5568
 1127TIP3   OH227575   6.191   0.894   1.179  0.3451  0.1248 -0.0814
 1127TIP3    H127576   6.177   0.856   1.092  1.3646  1.5683 -0.9148
 1127TIP3    H227577   6.180   0.820   1.239 -0.6446 -0.8522 -1.3980
 1128TIP3   OH227578   5.639   3.775   8.442  0.2972  0.0344 -0.7070
 1128TIP3    H127579   5.719   3.818   8.471 -0.4652 -0.0076  1.7691
 1128TIP3    H227580   5.636   3.789   8.348  2.7536  0.7685 -0.7463
 1129TIP3   OH227581   6.669   1.195   0.406  0.1013 -0.1114  0.7879
 1129TIP3    H127582   6.740   1.163   0.461 -0.3707 -2.2697  0.2381
 1129TIP3    H227583   6.591   1.147   0.436 -0.9762  1.5808  0.8290
 1130TIP3   OH227584   0.299   2.027   9.109 -0.4960  0.1863 -0.0463
 1130TIP3    H127585   0.342   2.110   9.128  0.6951 -0.6488  1.0985
 1130TIP3    H227586   0.208   2.040   9.136 -0.5459  1.3769 -0.7101
 1131TIP3   OH227587   4.777   6.156   6.791  0.0053  0.0255  0.3699
 1131TIP3    H127588   4.813   6.069   6.774 -0.2476 -0.0131  0.0123
 1131TIP3    H227589   4.789   6.203   6.709 -3.7152 -1.0184 -1.0239
 1132TIP3   OH227590   3.426   6.974   3.011 -0.6371 -0.4144  0.2680
 1132TIP3    H127591   3.403   6.926   2.931 -0.4131 -0.1937  0.0717
 1132TIP3    H227592   3.405   7.065   2.992 -0.3852 -0.3310  0.3884
 1133TIP3   OH227593   4.980   0.916   8.326 -0.0993  0.6549  0.2403
 1133TIP3    H127594   4.935   0.866   8.258  0.7104  0.8660 -0.4755
 1133TIP3    H227595   5.070   0.885   8.323 -0.1883  0.1965  1.6934
 1134TIP3   OH227596   3.268   4.812   1.635  0.9640 -0.2226 -0.4456
 1134TIP3    H127597   3.187   4.777   1.598  1.4468  0.5513 -2.3621
 1134TIP3    H227598   3.272   4.776   1.723 -0.5425 -1.7477 -0.9474
 1135TIP3   OH227599   0.082   6.404   1.152 -0.0878  0.3874  0.2553
 1135TIP3    H127600  -0.006   6.387   1.119  0.9019 -0.4149 -2.2394
 1135TIP3    H227601   0.135   6.331   1.118  1.6924  1.2749  0.9773
 1136TIP3   OH227602   5.808   2.111   9.167 -0.6990  0.0539 -0.0984
 1136TIP3    H127603   5.863   2.054   9.114  0.4278  0.8831  0.1643
 1136TIP3    H227604   5.757   2.161   9.104 -0.2549  0.1648 -0.3680
 1137TIP3   OH227605   4.653   2.948   0.563  0.5218 -0.0857 -0.1110
 1137TIP3    H127606   4.667   3.041   0.580  2.3419 -0.2251 -0.5515
 1137TIP3    H227607   4.678   2.905   0.645 -1.0148 -0.1655  0.3357
 1138TIP3   OH227608   6.238   0.768   8.138  0.3553 -0.1964  0.5929
 1138TIP3    H127609   6.312   0.782   8.079  1.2723 -0.8679  1.5421
 1138TIP3    H227610   6.234   0.847   8.191 -0.5672  0.4757 -0.4206
 1139TIP3   OH227611   4.600   3.058   9.456 -0.1858 -0.2279 -0.2816
 1139TIP3    H127612   4.557   3.012   9.384 -0.8837  0.9409 -0.6271
 1139TIP3    H227613   4.551   3.139   9.465  0.6343  0.1679  0.7437
 1140TIP3   OH227614   4.196   5.137   1.686  0.8690 -0.0711 -0.4854
 1140TIP3    H127615   4.155   5.214   1.727  1.9718  0.1512  0.2367
 1140TIP3    H227616   4.189   5.069   1.752  0.8965 -0.2716 -0.6903
 1141TIP3   OH227617   2.708   3.892   9.223 -0.5652  0.2578  0.5318
 1141TIP3    H127618   2.688   3.982   9.248 -1.6977 -0.0619  0.8667
 1141TIP3    H227619   2.671   3.884   9.135  0.2506  0.3499  0.1783
 1142TIP3   OH227620   5.149   4.029   0.879  0.2919  0.3747  0.0064
 1142TIP3    H127621   5.212   4.087   0.923  2.1734 -1.0430 -0.6731
 1142TIP3    H227622   5.078   4.019   0.942  0.1152  2.9874  0.3428
 1143TIP3   OH227623   4.121   6.134   1.774  0.3041 -0.6164  0.1056
 1143TIP3    H127624   4.191   6.146   1.838  0.4219 -0.6522 -0.0160
 1143TIP3    H227625   4.140   6.050   1.733  0.0479 -0.7461  0.2474
 1144TIP3   OH227626   1.232   5.078   8.627  0.1054  0.4049 -0.4264
 1144TIP3    H127627   1.170   5.099   8.696  2.5863  1.2038  1.7570
 1144TIP3    H227628   1.292   5.152   8.626  1.9227 -0.9916 -1.2577
 1145TIP3   OH227629   0.543   2.265   0.158  0.3283  0.1133  0.2024
 1145TIP3    H127630   0.599   2.250   0.234  0.2977 -0.2151  0.1595
 1145TIP3    H227631   0.590   2.331   0.107  0.9488 -0.5615 -0.1145
 1146TIP3   OH227632   3.503   6.912   9.059 -0.1085  0.3495 -0.1939
 1146TIP3    H127633   3.476   7.000   9.034 -0.8602  0.2733  0.3280
 1146TIP3    H227634   3.473   6.902   9.150  1.6738  0.2605  0.4358
 1147TIP3   OH227635   5.408   5.192   1.834  0.2952 -0.1121 -0.4021
 1147TIP3    H127636   5.499   5.167   1.853  0.1932  1.0583  1.9874
 1147TIP3    H227637   5.412   5.287   1.820 -0.8161  0.4231  2.2929
 1148TIP3   OH227638   6.824   7.267   9.949  0.5298  0.4343 -0.6419
 1148TIP3    H127639   6.743   7.272   9.998  0.4406 -1.7055 -0.4924
 1148TIP3    H227640   6.808   7.319   9.870 -0.7217  0.5852 -0.2960
 1149TIP3   OH227641   5.362   6.816   8.103  0.1844  0.0776 -0.1261
 1149TIP3    H127642   5.407   6.736   8.073  1.4625  0.6223  0.2470
 1149TIP3    H227643   5.422   6.854   8.168  0.9009  2.7036 -2.1333
 1150TIP3   OH227644   0.452   3.694   7.884  0.1697  0.4962  0.3477
 1150TIP3    H127645   0.495   3.668   7.803 -1.3105  1.1803 -0.6820
 1150TIP3    H227646   0.408   3.776   7.864 -2.8491 -0.8660  0.8892
 1151TIP3   OH227647   6.239   4.191   9.399  0.0233  0.6198 -0.4685
 1151TIP3    H127648   6.324   4.229   9.374  1.0827 -1.1821  0.1963
 1151TIP3    H227649   6.175   4.256   9.371  1.6535  2.3239 -0.4451
 1152TIP3   OH227650   6.095   2.406   8.482 -0.4960 -0.1893  0.2252
 1152TIP3    H127651   6.071   2.342   8.549 -1.2484  0.3993  0.5287
 1152TIP3    H227652   6.097   2.355   8.401 -2.8391 -0.2971  0.1777
 1153TIP3   OH227653   5.019   3.480   7.876  0.6261 -0.0020  0.0815
 1153TIP3    H127654   5.108   3.488   7.911  0.6736 -2.0826  0.5335
 1153TIP3    H227655   5.032   3.461   7.783  0.6185  0.3430  0.0065
 1154TIP3   OH227656   6.722   2.670   8.937  0.0059  0.8221 -0.2725
 1154TIP3    H127657   6.664   2.634   9.004  0.1404  1.7406  0.3713
 1154TIP3    H227658   6.766   2.743   8.981  2.8550 -0.7719 -0.2154
 1155TIP3   OH227659   3.763   1.115   7.099  0.0266  0.6581 -0.2016
 1155TIP3    H127660   3.851   1.149   7.118  0.6086  0.5802 -2.4724
 1155TIP3    H227661   3.706   1.190   7.114  0.3969  0.6217  1.6242
 1156TIP3   OH227662   3.834   3.925   9.814  0.7166  0.2247  0.3682
 1156TIP3    H127663   3.892   3.952   9.742  1.2459  0.5029  0.8896
 1156TIP3    H227664   3.894   3.904   9.886  0.1535  1.3191  1.1918
 1157TIP3   OH227665   1.954   5.995   7.299  0.3182 -0.0516  0.5962
 1157TIP3    H127666   1.948   6.071   7.357 -0.3725 -0.7319  1.4538
 1157TIP3    H227667   1.880   6.005   7.238  0.0417 -0.1784  0.9041
 1158TIP3   OH227668   6.818   2.713   1.788 -0.2308  0.6188 -0.0409
 1158TIP3    H127669   6.777   2.626   1.793 -0.5226  0.6643 -1.3338
 1158TIP3    H227670   6.867   2.721   1.870  1.4309 -1.6016 -0.7112
 1159TIP3   OH227671   1.348   3.650   7.634 -0.1921  0.1746 -0.2851
 1159TIP3    H127672   1.422   3.618   7.582 -1.3180 -1.3233 -1.0498
 1159TIP3    H227673   1.303   3.711   7.575  1.2523  2.3572  0.7359
 1160TIP3   OH227674   2.112   6.234   1.774  0.6027  0.3006  0.3978
 1160TIP3    H127675   2.203   6.220   1.798  0.3659  0.3933  1.4394
 1160TIP3    H227676   2.071   6.148   1.782  0.6129  0.2400 -0.1596
 1161TIP3   OH227677   4.588   5.190   1.626  0.2354  0.5055 -0.0687
 1161TIP3    H127678   4.675   5.226   1.606  1.4168 -1.2462  1.6088
 1161TIP3    H227679   4.542   5.261   1.671  0.5864  1.5998 -1.3584
 1162TIP3   OH227680   5.297   0.964   1.357 -0.6496  0.9913 -0.1758
 1162TIP3    H127681   5.368   1.021   1.326 -0.1081 -0.4084 -1.6536
 1162TIP3    H227682   5.337   0.912   1.427 -0.8466  1.6721  0.4534
 1163TIP3   OH227683   6.261   5.967   0.309  0.5209 -0.2339 -0.2729
 1163TIP3    H127684   6.293   5.986   0.397  0.1397  0.4554 -0.2776
 1163TIP3    H227685   6.259   6.051   0.264  0.0101 -0.4624 -0.7055
 1164TIP3   OH227686   4.903   5.648   8.814 -0.5142  0.0390 -0.0693
 1164TIP3    H127687   4.920   5.555   8.796  1.6616  0.4147 -0.2650
 1164TIP3    H227688   4.855   5.649   8.896 -1.4461 -1.2884 -0.5676
 1165TIP3   OH227689   2.122   0.319   0.337 -0.5599  0.1176  0.5401
 1165TIP3    H127690   2.160   0.261   0.270 -0.7833 -0.3213  0.7854
 1165TIP3    H227691   2.193   0.380   0.358 -0.9008  1.1077 -1.0379
 1166TIP3   OH227692   2.593   6.265   9.599  0.0170  0.1033 -0.2008
 1166TIP3    H127693   2.523   6.211   9.563  0.8568 -1.4183  0.3458
 1166TIP3    H227694   2.577   6.265   9.694  0.6046 -0.0523 -0.0983
 1167TIP3   OH227695   1.036   6.055   2.662  0.2330  0.6570 -0.0923
 1167TIP3    H127696   0.961   6.040   2.718 -0.0910 -0.5767 -0.8273
 1167TIP3    H227697   1.065   6.144   2.684  0.9677 -0.2232  2.9706
 1168TIP3   OH227698   4.084   6.743   6.867 -0.2408  0.5494  0.2641
 1168TIP3    H127699   4.043   6.821   6.904 -0.1639  0.4632  0.5287
 1168TIP3    H227700   4.056   6.671   6.923  0.9846  0.6113  0.9858
 1169TIP3   OH227701   4.029   3.971   6.906  0.1433  0.4069  0.2219
 1169TIP3    H127702   3.956   4.032   6.898  0.5147  1.3462  2.9294
 1169TIP3    H227703   4.095   4.005   6.846 -0.2880  1.7270  0.4516
 1170TIP3   OH227704   3.334   6.168   1.653  0.3183  0.0342  0.3121
 1170TIP3    H127705   3.266   6.219   1.607 -0.0223 -0.7106 -0.0356
 1170TIP3    H227706   3.412   6.179   1.599 -0.4224 -1.9877 -1.3153
 1171TIP3   OH227707   1.735   7.155   2.396  0.2706  0.0408 -0.3558
 1171TIP3    H127708   1.792   7.165   2.472 -0.6718 -0.5515  0.4488
 1171TIP3    H227709   1.784   7.196   2.324  1.8316 -0.7258  0.2288
 1172TIP3   OH227710   6.624   5.596   9.842  0.0767  0.0575 -0.7347
 1172TIP3    H127711   6.546   5.613   9.895  1.4538  2.6711  0.6345
 1172TIP3    H227712   6.590   5.591   9.752 -1.8218 -0.4440 -0.0455
 1173TIP3   OH227713   4.338   6.270   7.511  0.1763 -0.1912  0.0278
 1173TIP3    H127714   4.382   6.207   7.454  1.4989  2.2394 -1.8334
 1173TIP3    H227715   4.403   6.290   7.578  0.6821  0.8324 -0.7302
 1174TIP3   OH227716   5.533   1.801   9.501 -0.3042 -0.7102  0.2339
 1174TIP3    H127717   5.460   1.862   9.510 -1.1970 -2.0014  3.2725
 1174TIP3    H227718   5.605   1.854   9.467 -1.7090  1.4167  0.3722
 1175TIP3   OH227719   1.701   2.589   1.851 -0.1568 -0.0273 -0.4288
 1175TIP3    H127720   1.671   2.501   1.872  1.2650 -0.4100  0.0574
 1175TIP3    H227721   1.795   2.587   1.864 -0.1098  1.6128 -0.2671
 1176TIP3   OH227722   0.702   1.016   1.534 -0.0668 -0.2661 -0.0852
 1176TIP3    H127723   0.700   0.951   1.464  1.6808  0.3911 -0.8085
 1176TIP3    H227724   0.618   1.007   1.578 -0.6204 -1.6954 -1.3581
 1177TIP3   OH227725   6.355   1.667   7.162 -0.1799  0.0584  0.3327
 1177TIP3    H127726   6.419   1.616   7.212 -0.2868 -0.9345 -0.5227
 1177TIP3    H227727   6.371   1.643   7.071 -1.0976  0.5737  0.0245
 1178TIP3   OH227728   6.550   5.234   1.453  0.7873  0.1431 -0.2436
 1178TIP3    H127729   6.527   5.158   1.507 -1.7317  0.6082 -0.5307
 1178TIP3    H227730   6.482   5.237   1.385  1.6319  1.8417 -1.0807
 1179TIP3   OH227731   0.517   0.457   1.842  0.0524 -0.4581  0.0018
 1179TIP3    H127732   0.603   0.430   1.811  0.8561  2.7290 -0.8702
 1179TIP3    H227733   0.479   0.504   1.769 -1.8040 -0.4394  0.9217
 1180TIP3   OH227734   3.203   5.828   0.664 -0.0108  0.0564  0.1988
 1180TIP3    H127735   3.256   5.908   0.661  0.0477  0.0952  1.6391
 1180TIP3    H227736   3.266   5.759   0.685 -0.5760  0.2036  2.6187
 1181TIP3   OH227737   5.424   4.919   1.793  0.2595  0.2428 -0.7948
 1181TIP3    H127738   5.411   5.013   1.785 -1.6005  0.3024  1.7785
 1181TIP3    H227739   5.485   4.909   1.866  0.6345 -0.5485 -1.2078
 1182TIP3   OH227740   0.435   4.805   8.837 -0.2056 -0.0183 -0.2416
 1182TIP3    H127741   0.410   4.759   8.757 -0.4017  0.4092 -0.4287
 1182TIP3    H227742   0.360   4.860   8.858  0.3235  0.8049 -0.4633
 1183TIP3   OH227743   5.160   7.124   8.656  0.5278  0.3023 -0.1371
 1183TIP3    H127744   5.104   7.148   8.731  1.3406 -0.6897  0.8212
 1183TIP3    H227745   5.098   7.113   8.583 -0.5042 -0.4022  0.8006
 1184TIP3   OH227746   6.531   4.544   1.000 -0.0487 -0.5332 -0.6456
 1184TIP3    H127747   6.437   4.563   1.000 -0.3662 -1.6201  2.2106
 1184TIP3    H227748   6.571   4.624   0.965 -1.9919 -0.0400 -1.9196
 1185TIP3   OH227749   2.670   6.637   1.662  0.7767 -0.5616  0.0032
 1185TIP3    H127750   2.650   6.634   1.569  0.3503  0.0574  0.0653
 1185TIP3    H227751   2.728   6.713   1.672  1.2126 -0.9149  0.1717
 1186TIP3   OH227752   1.361   0.237   1.070  0.2060 -0.1098 -0.1841
 1186TIP3    H127753   1.332   0.227   1.161  0.4424  1.2629  0.0555
 1186TIP3    H227754   1.456   0.229   1.074  0.2110 -0.1239 -0.3225
 1187TIP3   OH227755   6.758   3.153   6.635 -0.0351  0.2990  0.3343
 1187TIP3    H127756   6.826   3.170   6.570 -1.3412  1.7556 -0.7208
 1187TIP3    H227757   6.700   3.089   6.594 -0.0812  0.1243  0.6627
 1188TIP3   OH227758   0.737   1.422   1.602 -0.5748 -0.1519 -0.5979
 1188TIP3    H127759   0.657   1.471   1.580 -0.3232  0.0697 -1.0366
 1188TIP3    H227760   0.718   1.383   1.687 -0.3485  1.7084  0.3633
 1189TIP3   OH227761   2.112   5.615   0.050 -0.1201 -0.0350  0.3679
 1189TIP3    H127762   2.077   5.661   0.127 -2.4724 -1.2063  0.0950
 1189TIP3    H227763   2.193   5.661   0.029  0.7014  0.2538  3.6096
 1190TIP3   OH227764   3.569   1.416   1.282 -0.1870  0.4096 -0.2632
 1190TIP3    H127765   3.593   1.460   1.201  1.1956  0.9589  0.4097
 1190TIP3    H227766   3.639   1.352   1.296 -0.0138  0.8136  0.8522
 1191TIP3   OH227767   5.303   2.143   7.918  0.4194  0.0956  0.1201
 1191TIP3    H127768   5.381   2.105   7.877  0.3549  2.8083 -2.8712
 1191TIP3    H227769   5.247   2.169   7.845 -0.9329  2.9612  1.9899
 1192TIP3   OH227770   1.974   6.245   7.428  0.5919 -0.1430 -0.4688
 1192TIP3    H127771   1.889   6.286   7.412  0.6049  0.1485  0.1688
 1192TIP3    H227772   1.969   6.215   7.519  1.1407 -0.1967 -0.4524
 1193TIP3   OH227773   3.731   0.046   1.796  0.1624  0.0349 -0.0650
 1193TIP3    H127774   3.637   0.036   1.810  0.0421  1.0098 -0.1400
 1193TIP3    H227775   3.763   0.086   1.877  0.5634 -0.5743  0.0814
 1194TIP3   OH227776   1.006   5.471   8.155 -0.0502 -0.5812  0.1568
 1194TIP3    H127777   1.070   5.532   8.118 -0.4031  0.4928  1.2364
 1194TIP3    H227778   0.936   5.468   8.090 -0.1310  0.3613  0.1754
 1195TIP3   OH227779   3.577   6.206   7.531  0.0628  0.1149  0.1947
 1195TIP3    H127780   3.555   6.288   7.486 -0.6928 -0.7089 -1.0224
 1195TIP3    H227781   3.594   6.145   7.460 -0.6804 -1.1166  1.0460
 1196TIP3   OH227782   4.723   0.734   8.838 -0.4604 -0.4931  0.3749
 1196TIP3    H127783   4.631   0.709   8.833  0.2752 -3.5352  0.1522
 1196TIP3    H227784   4.751   0.704   8.925  0.6380 -0.9747 -0.1241
 1197TIP3   OH227785   4.255   4.204   8.428  0.7809  0.1183  0.1460
 1197TIP3    H127786   4.308   4.167   8.358  1.3787  0.8365  0.2022
 1197TIP3    H227787   4.232   4.292   8.398 -1.2431 -0.5207 -0.3119
 1198TIP3   OH227788   0.996   3.337   9.489 -0.1140 -0.2902 -0.0189
 1198TIP3    H127789   0.939   3.334   9.412  1.6373 -2.0875 -1.3595
 1198TIP3    H227790   0.962   3.269   9.547  0.0270 -0.6347 -0.3372
 1199TIP3   OH227791   3.790   7.258   7.874  0.0247  0.6046  0.3522
 1199TIP3    H127792   3.876   7.271   7.914  0.7654 -0.8415 -0.6983
 1199TIP3    H227793   3.759   7.175   7.909 -0.5737  0.6840  0.0380
 1200TIP3   OH227794   6.491   0.669   0.802 -0.1772  0.4643 -0.3398
 1200TIP3    H127795   6.402   0.659   0.769  0.0046 -1.1033 -0.4484
 1200TIP3    H227796   6.542   0.606   0.751  1.0702  1.6166 -0.5454
 1201TIP3   OH227797   3.418   1.920   9.986 -0.1880 -0.1547 -0.1614
 1201TIP3    H127798   3.382   2.008   9.977 -1.3378 -0.6419 -0.5853
 1201TIP3    H227799   3.341   1.863   9.988  0.5587 -1.2590 -1.2537
 1202TIP3   OH227800   5.850   3.733   2.659 -0.1913 -0.1280  0.5454
 1202TIP3    H127801   5.838   3.823   2.630 -0.4581 -0.5236 -0.6217
 1202TIP3    H227802   5.943   3.715   2.644 -0.2012 -0.1477  0.5083
 1203TIP3   OH227803   2.722   3.021   9.227  0.8332  0.4231  0.7357
 1203TIP3    H127804   2.746   3.001   9.137  0.1555 -1.0365  0.8572
 1203TIP3    H227805   2.756   3.109   9.242 -0.0773  1.1648 -1.3045
 1204TIP3   OH227806   2.449   4.369   3.019  0.1350 -0.0457  0.6742
 1204TIP3    H127807   2.492   4.299   2.970  0.9267  0.3113  0.8545
 1204TIP3    H227808   2.397   4.323   3.086 -1.5580 -0.5755 -0.9289
 1205TIP3   OH227809   2.272   5.798   2.631  0.3518  0.2825  0.3410
 1205TIP3    H127810   2.201   5.855   2.603 -0.2529 -0.2543  0.7508
 1205TIP3    H227811   2.232   5.740   2.697  0.9437 -0.6107 -0.0651
 1206TIP3   OH227812   1.553   3.137   7.388 -0.2613 -0.3036  0.0251
 1206TIP3    H127813   1.607   3.118   7.464 -1.6645 -1.3064  0.8084
 1206TIP3    H227814   1.554   3.056   7.337  0.0036  0.0929 -0.6099
 1207TIP3   OH227815   3.718   4.045   8.702 -0.0961  0.1908 -0.3786
 1207TIP3    H127816   3.703   4.029   8.609 -0.6604  2.5942 -0.7583
 1207TIP3    H227817   3.813   4.043   8.712  0.0826  1.9193 -1.4414
 1208TIP3   OH227818   5.295   7.009   9.795  0.1830  0.0614 -0.1678
 1208TIP3    H127819   5.368   6.984   9.852  0.2941  1.0291  0.1295
 1208TIP3    H227820   5.330   6.997   9.706  0.7416  0.5881 -0.0291
 1209TIP3   OH227821   6.229   0.396   8.653 -0.0889 -0.6595  0.0660
 1209TIP3    H127822   6.255   0.309   8.622  1.5230 -1.0791  2.3786
 1209TIP3    H227823   6.265   0.402   8.742  0.2376  2.5493 -0.1689
 1210TIP3   OH227824   0.204   5.991   9.888 -0.0602  0.4785 -0.4727
 1210TIP3    H127825   0.163   5.954   9.810 -0.1144 -0.2666 -0.0995
 1210TIP3    H227826   0.156   5.952   9.961 -0.2551  1.4589 -0.0664
 1211TIP3   OH227827   6.373   0.233   8.963 -0.3291  0.1461 -0.0370
 1211TIP3    H127828   6.392   0.161   8.903 -0.9786  0.0169 -0.0953
 1211TIP3    H227829   6.428   0.305   8.932 -0.8938  0.1815 -0.9887
 1212TIP3   OH227830   2.974   1.258   0.927  0.0612  0.3028  0.4528
 1212TIP3    H127831   2.975   1.352   0.908 -0.3234  0.3068  0.4527
 1212TIP3    H227832   3.021   1.218   0.854 -0.2893  0.4398  0.1480
 1213TIP3   OH227833   7.066   1.638   0.027 -0.0507 -0.3893 -0.1266
 1213TIP3    H127834   7.064   1.732   0.045  0.7243 -0.1564 -1.1713
 1213TIP3    H227835   7.155   1.610   0.051 -0.0163 -0.6884 -0.5816
 1214TIP3   OH227836   5.167   5.778   0.363 -0.2412 -0.1456 -1.1727
 1214TIP3    H127837   5.092   5.809   0.312 -0.2948 -1.3073 -1.8275
 1214TIP3    H227838   5.192   5.695   0.322 -0.6654 -1.4494  1.0329
 1215TIP3   OH227839   5.262   5.642   0.934  0.0317  0.0009 -0.3390
 1215TIP3    H127840   5.262   5.649   0.839  0.7563  1.6563 -0.2569
 1215TIP3    H227841   5.186   5.588   0.954 -0.6545  0.3565 -1.8214
 1216TIP3   OH227842   3.047   4.396   0.321 -0.0857  0.4427  0.4424
 1216TIP3    H127843   2.977   4.338   0.351 -0.2583  1.8935  3.1933
 1216TIP3    H227844   3.013   4.484   0.338  1.1242  1.3068 -1.3097
 1217TIP3   OH227845   5.369   1.861   0.183  0.4544  0.0799 -0.5104
 1217TIP3    H127846   5.356   1.836   0.274  3.8049 -2.2126 -0.5114
 1217TIP3    H227847   5.419   1.943   0.188 -0.9917  1.0069 -0.4110
 1218TIP3   OH227848   1.834   3.439   0.390 -0.3813 -0.6025 -0.1285
 1218TIP3    H127849   1.928   3.453   0.379 -0.2427 -1.2488  0.1561
 1218TIP3    H227850   1.803   3.518   0.435  0.3488 -1.1249  1.3579
 1219TIP3   OH227851   2.386   1.646   9.978  0.1261  0.4991  0.1720
 1219TIP3    H127852   2.302   1.690   9.961  0.3233  0.3675 -1.2682
 1219TIP3    H227853   2.380   1.618  10.069 -1.6589 -0.0574 -0.0700
 1220TIP3   OH227854   5.366   3.940   1.272  0.0950 -0.2790  0.1838
 1220TIP3    H127855   5.295   3.992   1.233  0.1415 -0.0104  0.4496
 1220TIP3    H227856   5.345   3.850   1.250  1.6792  0.0129 -3.1132
 1221TIP3   OH227857   5.771   1.172   8.170 -0.5476  0.2046  0.0442
 1221TIP3    H127858   5.719   1.138   8.242 -0.9646 -0.4817 -0.5664
 1221TIP3    H227859   5.756   1.110   8.098 -0.1877  0.8985 -0.6443
 1222TIP3   OH227860   4.343   4.459   8.276  0.1974 -0.2125  0.1165
 1222TIP3    H127861   4.429   4.428   8.304  0.4634 -1.0573 -1.5402
 1222TIP3    H227862   4.337   4.548   8.311  2.5841  0.6230 -1.3864
 1223TIP3   OH227863   3.804   4.366   0.504  0.3972 -0.8200  0.4444
 1223TIP3    H127864   3.861   4.334   0.574  0.1913 -1.2565  0.4220
 1223TIP3    H227865   3.790   4.289   0.448 -2.0893 -1.4316  1.7171
 1224TIP3   OH227866   1.265   1.862   8.421  0.1646  0.0747  0.0272
 1224TIP3    H127867   1.217   1.784   8.451 -0.5517 -0.3665 -2.0841
 1224TIP3    H227868   1.354   1.831   8.405 -0.2999 -0.5434 -1.5254
 1225TIP3   OH227869   0.245   1.209   9.892 -0.1445 -0.3469  0.0349
 1225TIP3    H127870   0.256   1.213   9.986  0.1034 -0.9344  0.0335
 1225TIP3    H227871   0.153   1.231   9.877  0.0161  0.5804  0.3425
 1226TIP3   OH227872   5.255   4.523   1.011  0.2874  0.7766 -0.3469
 1226TIP3    H127873   5.178   4.515   1.067  0.4186  1.0277 -0.1280
 1226TIP3    H227874   5.292   4.608   1.033  2.4954 -0.6369  1.9738
 1227TIP3   OH227875   4.973   1.077   0.308 -0.1805 -0.6783 -0.1459
 1227TIP3    H127876   4.941   1.154   0.263 -1.9564 -1.1453  0.2255
 1227TIP3    H227877   4.903   1.012   0.297  1.1305 -2.1322 -0.1970
 1228TIP3   OH227878   1.167   1.314   2.385 -0.4269 -0.4323 -0.2632
 1228TIP3    H127879   1.222   1.371   2.440  0.2155 -0.5486 -0.7653
 1228TIP3    H227880   1.088   1.365   2.369 -1.0594 -0.7927  1.5870
 1229TIP3   OH227881   0.654   0.949   7.103 -0.1327 -0.5482 -0.1446
 1229TIP3    H127882   0.699   0.990   7.030  0.4364  0.0152  0.5077
 1229TIP3    H227883   0.594   1.016   7.136  1.3978  0.1164  1.4509
 1230TIP3   OH227884   5.759   7.232   9.880 -0.0272 -0.3142 -0.8521
 1230TIP3    H127885   5.852   7.219   9.902  0.0007 -0.1966 -0.8981
 1230TIP3    H227886   5.733   7.309   9.931  0.1998  0.3296 -1.6867
 1231TIP3   OH227887   6.264   1.359   0.542 -0.1204 -0.0952  0.3322
 1231TIP3    H127888   6.345   1.382   0.587  0.2565  1.0604 -0.8766
 1231TIP3    H227889   6.251   1.429   0.478 -2.3219 -0.0140  0.7852
 1232TIP3   OH227890   3.604   0.603   8.198  0.1245  0.0684 -0.3771
 1232TIP3    H127891   3.565   0.556   8.271 -1.4542  0.1453 -1.1217
 1232TIP3    H227892   3.663   0.667   8.239 -0.5701 -0.0223  0.8141
 1233TIP3   OH227893   2.597   3.406   0.971 -0.0894  0.1799 -0.0214
 1233TIP3    H127894   2.548   3.329   1.000 -0.7313  0.1186 -1.1904
 1233TIP3    H227895   2.666   3.370   0.915 -0.8126  0.4666 -1.1377
 1234TIP3   OH227896   0.772   2.533   1.055  0.1718  0.5216 -0.6443
 1234TIP3    H127897   0.685   2.570   1.072 -0.1213 -0.9718  1.4790
 1234TIP3    H227898   0.832   2.587   1.105  0.2603  0.5321 -0.7601
 1235TIP3   OH227899   5.738   6.934   7.534  0.4281  0.4183 -0.2079
 1235TIP3    H127900   5.764   6.844   7.552  0.5755  0.0312 -2.1353
 1235TIP3    H227901   5.758   6.947   7.441 -3.8151  0.9270 -1.2729
 1236TIP3   OH227902   3.065   6.399   8.375 -0.4826 -0.4881  0.2184
 1236TIP3    H127903   3.063   6.485   8.332 -0.4609 -0.3833  0.4279
 1236TIP3    H227904   3.088   6.338   8.305  0.0577 -0.2515  0.1864
 1237TIP3   OH227905   6.437   0.631   8.665 -0.1654  0.1498  0.6120
 1237TIP3    H127906   6.399   0.719   8.667  0.0725  0.3661 -1.3761
 1237TIP3    H227907   6.430   0.605   8.573  1.6679 -1.0560  0.7548
 1238TIP3   OH227908   4.114   5.647   8.681  0.5137 -0.6623 -0.5444
 1238TIP3    H127909   4.206   5.625   8.670  0.5559 -0.4095 -0.6966
 1238TIP3    H227910   4.083   5.662   8.592  0.8222  1.2961 -0.3592
 1239TIP3   OH227911   1.872   3.610   7.564 -0.0644  0.3103  0.0718
 1239TIP3    H127912   1.917   3.527   7.578 -2.0533 -0.5139  2.0815
 1239TIP3    H227913   1.922   3.652   7.493  0.5271 -2.9109 -1.6157
 1240TIP3   OH227914   3.252   6.372   7.574 -0.0508  0.2539 -0.5051
 1240TIP3    H127915   3.184   6.420   7.620  1.7643  1.6261  0.9026
 1240TIP3    H227916   3.318   6.438   7.552  0.3044 -0.7977 -2.9577
 1241TIP3   OH227917   3.021   3.958   1.815 -0.1364 -0.6387  0.2409
 1241TIP3    H127918   2.975   3.977   1.733  0.6651  0.0306 -0.0689
 1241TIP3    H227919   3.008   4.036   1.869 -1.7861 -1.5887  1.3137
 1242TIP3   OH227920   3.170   3.775   7.970  0.0973 -0.1064 -0.2170
 1242TIP3    H127921   3.221   3.713   7.919  1.4907  1.7595 -1.2392
 1242TIP3    H227922   3.231   3.808   8.036 -0.5462  0.2899  0.1955
 1243TIP3   OH227923   1.523   0.255   1.859  0.1865  0.0828  0.1674
 1243TIP3    H127924   1.432   0.230   1.843  0.0879 -0.7722  1.8322
 1243TIP3    H227925   1.562   0.178   1.902  1.5356  0.6582  0.0398
 1244TIP3   OH227926   2.050   0.680   9.057 -0.7436  0.1357 -0.4978
 1244TIP3    H127927   2.006   0.659   9.140 -0.2843 -0.6987 -0.4538
 1244TIP3    H227928   2.066   0.774   9.062  0.0279 -0.0426  0.7326
 1245TIP3   OH227929   2.206   3.855   7.454  0.0870  0.0894 -0.3933
 1245TIP3    H127930   2.220   3.936   7.403 -0.2997  0.4162  0.0176
 1245TIP3    H227931   2.277   3.797   7.425 -0.4957  0.0221 -1.7965
 1246TIP3   OH227932   0.947   6.511   1.060 -0.8026  0.0735  0.1658
 1246TIP3    H127933   1.036   6.502   1.028 -0.7170  0.9733  0.1156
 1246TIP3    H227934   0.896   6.450   1.007 -0.1755 -0.6796  0.4140
 1247TIP3   OH227935   5.665   1.743   0.302 -0.8650  0.0934 -0.1096
 1247TIP3    H127936   5.719   1.812   0.343 -1.2740 -0.6507  1.7823
 1247TIP3    H227937   5.716   1.715   0.226  0.7571  0.4107  0.8151
 1248TIP3   OH227938   3.841   5.261   7.983 -0.2514  0.1086 -0.2078
 1248TIP3    H127939   3.874   5.314   8.056  0.7551  0.9356 -1.2173
 1248TIP3    H227940   3.854   5.171   8.011  1.1321  0.4108  0.2134
 1249TIP3   OH227941   1.495   3.728   0.343  0.5126  0.0505 -0.7997
 1249TIP3    H127942   1.469   3.643   0.309 -2.0840  0.0946  0.7342
 1249TIP3    H227943   1.565   3.710   0.406 -2.6599 -1.7322  2.6508
 1250TIP3   OH227944   4.169   0.278   1.592  0.0668 -0.7265 -0.6026
 1250TIP3    H127945   4.208   0.343   1.533 -0.9907 -0.9680 -1.6031
 1250TIP3    H227946   4.236   0.263   1.658  0.9469  0.2150 -1.2402
 1251TIP3   OH227947   4.288   6.501   2.633 -0.4113 -0.3954  0.1401
 1251TIP3    H127948   4.231   6.555   2.688 -0.0833  0.0282  0.0671
 1251TIP3    H227949   4.262   6.411   2.653 -0.7092 -0.2242  0.5388
 1252TIP3   OH227950   1.483   1.414   0.369 -0.1480  0.5574 -0.0263
 1252TIP3    H127951   1.567   1.373   0.352 -0.1260  1.0123 -1.0357
 1252TIP3    H227952   1.451   1.370   0.448  0.7678 -0.0141  0.0388
 1253TIP3   OH227953   1.964   4.226   7.880 -0.6566  0.1897 -0.1339
 1253TIP3    H127954   1.895   4.280   7.841  0.0289 -0.2288 -2.0158
 1253TIP3    H227955   2.029   4.290   7.911  0.4693  0.5709 -2.9323
 1254TIP3   OH227956   5.294   5.351   7.486 -0.4711  0.1280  0.0691
 1254TIP3    H127957   5.282   5.292   7.560  1.0616 -1.5570 -0.9506
 1254TIP3    H227958   5.374   5.400   7.506  0.4614 -0.9649 -0.7881
 1255TIP3   OH227959   1.116   6.785   2.340 -0.2223 -0.4724 -0.0360
 1255TIP3    H127960   1.118   6.836   2.422  0.5032 -0.7832  0.1466
 1255TIP3    H227961   1.140   6.848   2.272 -0.3122 -0.3357  0.0583
 1256TIP3   OH227962   3.242   0.618   9.263  0.4423  0.1911 -0.3105
 1256TIP3    H127963   3.251   0.613   9.168  1.0323  2.2117 -0.4054
 1256TIP3    H227964   3.157   0.577   9.281  0.4883 -0.5502 -1.6478
 1257TIP3   OH227965   3.255   1.507   7.995 -0.4985  0.3791  0.1478
 1257TIP3    H127966   3.272   1.539   7.907 -0.6568  0.6468  0.2128
 1257TIP3    H227967   3.331   1.534   8.046 -0.5849  0.5619  0.1797
 1258TIP3   OH227968   2.132   2.120   9.302  0.3899  0.0127 -0.0823
 1258TIP3    H127969   2.215   2.079   9.324 -0.5172 -1.2197  1.2333
 1258TIP3    H227970   2.069   2.083   9.364 -0.7783  2.3694  0.2743
 1259TIP3   OH227971   2.461   1.196   9.378 -0.5993  0.2009 -0.7669
 1259TIP3    H127972   2.477   1.239   9.294 -0.6233 -0.4422 -1.1077
 1259TIP3    H227973   2.518   1.120   9.377 -0.5530  0.2228 -0.1662
 1260TIP3   OH227974   1.303   4.245   8.696 -0.3517  0.2006 -0.3342
 1260TIP3    H127975   1.377   4.184   8.706 -1.0129 -0.7796 -1.1961
 1260TIP3    H227976   1.291   4.252   8.601 -1.5384  0.1470 -0.1979
 1261TIP3   OH227977   3.166   6.558   8.970 -0.1494 -0.1607  0.1493
 1261TIP3    H127978   3.231   6.567   8.901 -0.5826 -1.4401 -0.4558
 1261TIP3    H227979   3.103   6.628   8.954  1.3814  1.5551  1.1595
 1262TIP3   OH227980   5.444   1.165   8.001  0.4832  0.3028 -0.2430
 1262TIP3    H127981   5.486   1.245   8.032  2.8079 -0.6717 -0.7261
 1262TIP3    H227982   5.514   1.100   7.998 -1.1510 -1.5309 -0.7456
 1263TIP3   OH227983   0.547   6.031   1.343 -0.2666 -0.1630  0.0409
 1263TIP3    H127984   0.512   5.973   1.276 -2.0715  0.4979  0.3570
 1263TIP3    H227985   0.605   6.091   1.295 -0.5588 -0.4892 -0.7262
 1264TIP3   OH227986   6.635   0.384   1.393 -0.1711  0.2787  0.3614
 1264TIP3    H127987   6.562   0.444   1.401 -1.3971 -0.8395 -1.5465
 1264TIP3    H227988   6.711   0.440   1.377 -1.3993  1.3883 -2.2078
 1265TIP3   OH227989   4.414   0.453   8.996  0.1984 -0.2799 -0.3312
 1265TIP3    H127990   4.344   0.422   9.053 -0.8063  0.0463 -1.3759
 1265TIP3    H227991   4.456   0.373   8.964  0.6158 -0.4702  0.6290
 1266TIP3   OH227992   2.193   7.180   1.711  0.2952  0.1965  0.3454
 1266TIP3    H127993   2.195   7.129   1.630 -0.0702  1.6709 -0.6418
 1266TIP3    H227994   2.257   7.250   1.697 -0.8443  1.3606  0.6754
 1267TIP3   OH227995   0.111   2.894   2.917  0.1281 -0.0135  0.3556
 1267TIP3    H127996   0.057   2.973   2.925  1.1149  0.6870  0.2792
 1267TIP3    H227997   0.191   2.924   2.873  0.2010 -1.2171 -0.3885
 1268TIP3   OH227998   4.899   4.263   0.333 -0.0809 -0.2397 -0.2218
 1268TIP3    H127999   4.949   4.183   0.343  0.0415 -0.4066 -1.9046
 1268TIP3    H228000   4.810   4.233   0.312 -0.5884  0.0656  1.3721
 1269TIP3   OH228001   2.634   5.683   7.160 -0.0107 -0.6864  0.4223
 1269TIP3    H128002   2.714   5.713   7.119  1.4256 -1.8912  2.1398
 1269TIP3    H228003   2.594   5.762   7.196  0.8333 -0.1602  0.2365
 1270TIP3   OH228004   0.375   0.946   2.670  0.7672 -0.0913  0.4148
 1270TIP3    H128005   0.413   0.864   2.701  0.2647 -0.6213 -0.3347
 1270TIP3    H228006   0.384   0.941   2.574 -1.2492 -0.2702  0.2093
 1271TIP3   OH228007   6.483   3.524   0.278 -0.1988  0.1828 -0.0176
 1271TIP3    H128008   6.577   3.531   0.258 -0.4241 -1.0845 -1.7540
 1271TIP3    H228009   6.479   3.470   0.357  0.5160 -0.3450 -0.3345
 1272TIP3   OH228010   3.172   0.216   1.633 -0.0319 -0.7022  0.2575
 1272TIP3    H128011   3.145   0.296   1.588 -0.3905 -2.1480 -2.3079
 1272TIP3    H228012   3.233   0.245   1.701  0.1894  1.6849 -0.8779
 1273TIP3   OH228013   0.291   2.684   2.537 -0.2271 -0.2884 -0.2160
 1273TIP3    H128014   0.211   2.735   2.549  0.1905  0.1372  0.9455
 1273TIP3    H228015   0.361   2.743   2.566  0.4391 -0.8863 -0.5867
 1274TIP3   OH228016   2.906   2.252   8.806  0.2406 -0.4137 -0.3436
 1274TIP3    H128017   2.882   2.301   8.728 -0.7153  1.1503  0.8811
 1274TIP3    H228018   2.886   2.311   8.879  0.6548 -1.9964  1.1155
 1275TIP3   OH228019   2.025   1.560   1.532 -0.1753  0.4654  0.0914
 1275TIP3    H128020   1.967   1.615   1.479 -1.5051 -0.6274  0.3360
 1275TIP3    H228021   1.975   1.542   1.611  1.1316  0.7175  1.0107
 1276TIP3   OH228022   2.514   1.148   7.555 -0.4752 -0.0659 -0.1923
 1276TIP3    H128023   2.465   1.066   7.550  0.2795 -0.4409 -2.1909
 1276TIP3    H228024   2.467   1.207   7.496  1.0859 -0.2356 -1.6475
 1277TIP3   OH228025   5.486   6.839   8.569  0.0858  0.4879  0.0639
 1277TIP3    H128026   5.414   6.841   8.632 -0.9194  2.6263 -1.0539
 1277TIP3    H228027   5.480   6.752   8.529 -1.2374  0.2487  0.7148
 1278TIP3   OH228028   2.796   4.448   9.161 -0.0842 -0.3089 -0.4688
 1278TIP3    H128029   2.812   4.513   9.230 -0.4200 -1.1400  0.4022
 1278TIP3    H228030   2.877   4.449   9.109  0.4799 -0.2176  0.3852
 1279TIP3   OH228031   2.500   0.559   1.195 -0.3991 -0.2648  0.2206
 1279TIP3    H128032   2.447   0.636   1.173  0.9819  1.0777  1.4074
 1279TIP3    H228033   2.556   0.546   1.119 -0.8202 -0.2919 -0.0948
 1280TIP3   OH228034   1.463   7.110   0.882 -0.0721  0.3790 -0.2926
 1280TIP3    H128035   1.413   7.044   0.836  0.2655 -1.2455  1.5320
 1280TIP3    H228036   1.405   7.139   0.953  0.6366  0.3529  0.3054
 1281TIP3   OH228037   4.206   7.097   7.772 -0.1355 -0.0454 -0.2673
 1281TIP3    H128038   4.250   7.170   7.816  0.5853 -0.0686 -0.9317
 1281TIP3    H228039   4.245   7.094   7.685  0.5315 -1.7933  0.0343
 1282TIP3   OH228040   3.743   1.031   2.992 -0.1340  0.0173 -0.1761
 1282TIP3    H128041   3.749   0.943   2.953 -2.1407 -0.6763  0.9194
 1282TIP3    H228042   3.782   1.089   2.927 -1.3805 -1.3470 -2.2432
 1283TIP3   OH228043   3.823   0.061   7.214  0.1328 -0.0026 -0.3042
 1283TIP3    H128044   3.732   0.070   7.187 -0.2022 -0.7894  0.5055
 1283TIP3    H228045   3.858  -0.009   7.158  0.5438  0.9633 -1.2981
 1284TIP3   OH228046   0.037   2.272   0.225  0.2952  0.2241 -0.0523
 1284TIP3    H128047   0.114   2.316   0.189 -0.8200  1.9329 -0.5046
 1284TIP3    H228048  -0.034   2.334   0.211 -0.9667 -0.8251  1.3514
 1285TIP3   OH228049   5.530   3.596   6.807  0.2871 -0.0124 -0.7628
 1285TIP3    H128050   5.520   3.685   6.776  0.1615  0.0732 -0.4779
 1285TIP3    H228051   5.443   3.570   6.837  0.3754 -0.1390 -0.6088
 1286TIP3   OH228052   0.239   2.765   1.322 -0.5029 -0.0816  0.0831
 1286TIP3    H128053   0.171   2.789   1.385 -1.5046 -0.2007 -0.9280
 1286TIP3    H228054   0.290   2.845   1.309 -1.5559  0.5143 -0.4948
 1287TIP3   OH228055   1.320   5.026   6.567 -0.0524 -0.0283  0.3317
 1287TIP3    H128056   1.305   5.114   6.533 -2.1438 -0.2198  0.6663
 1287TIP3    H228057   1.402   5.033   6.616 -0.0163  1.6436  0.0774
 1288TIP3   OH228058   0.298   3.174   8.531  0.0765  0.1319  0.5059
 1288TIP3    H128059   0.339   3.094   8.497 -0.1632 -0.5142  1.6821
 1288TIP3    H228060   0.331   3.181   8.621 -2.7740 -0.7463  1.7253
 1289TIP3   OH228061   6.142   1.113   1.343  0.5749 -0.3233  0.1969
 1289TIP3    H128062   6.146   1.063   1.261 -1.5636 -0.2450 -0.0192
 1289TIP3    H228063   6.086   1.188   1.322 -0.1422 -0.3917  1.7435
 1290TIP3   OH228064   2.459   6.590   2.461  0.1487  0.1280 -0.7760
 1290TIP3    H128065   2.533   6.646   2.437  0.7948  0.4321  1.7064
 1290TIP3    H228066   2.498   6.510   2.496 -0.7316 -0.4856 -1.1513
 1291TIP3   OH228067   1.522   7.029   2.975 -0.8672  0.3967  0.1731
 1291TIP3    H128068   1.445   6.977   2.952  0.8072 -1.2959 -2.1581
 1291TIP3    H228069   1.582   6.966   3.016  0.8738  0.5597 -1.9347
 1292TIP3   OH228070   1.696   2.725   8.428  0.0425 -0.6362 -0.4524
 1292TIP3    H128071   1.705   2.780   8.506  0.0241  1.3319 -1.7623
 1292TIP3    H228072   1.747   2.646   8.448 -0.5599 -0.5222  1.8022
 1293TIP3   OH228073   6.119   0.167   1.920  0.3409  0.1856  0.4717
 1293TIP3    H128074   6.063   0.090   1.924  0.2608  0.2755  1.0856
 1293TIP3    H228075   6.183   0.146   1.851 -1.5728  0.8585 -1.6536
 1294TIP3   OH228076   3.316   3.241   0.896  0.2095  0.0722 -0.0355
 1294TIP3    H128077   3.385   3.261   0.833 -0.6720  2.6910 -0.2593
 1294TIP3    H228078   3.361   3.189   0.964  1.9532  0.1529 -1.0687
 1295TIP3   OH228079   0.478   6.496   9.523  0.1857  0.7456  0.3268
 1295TIP3    H128080   0.472   6.521   9.431  0.2080  3.2211  0.9419
 1295TIP3    H228081   0.405   6.540   9.566 -1.3896 -2.3774  1.1894
 1296TIP3   OH228082   0.807   6.306   8.568 -0.2258  0.1189  0.1670
 1296TIP3    H128083   0.752   6.228   8.564 -0.4041  0.2470  0.1249
 1296TIP3    H228084   0.870   6.288   8.638  0.9823 -0.8786 -1.1239
 1297TIP3   OH228085   5.231   1.120   8.896 -0.2190  0.2104  0.2543
 1297TIP3    H128086   5.146   1.131   8.939  0.0525  0.0087  0.8550
 1297TIP3    H228087   5.286   1.187   8.935  0.2220 -0.4189  0.7391
 1298TIP3   OH228088   3.768   5.302   7.717  0.2691  0.4760 -0.1027
 1298TIP3    H128089   3.848   5.297   7.665  0.3498  1.2283 -0.0610
 1298TIP3    H228090   3.793   5.269   7.803  0.7410  1.4196  0.1373
 1299TIP3   OH228091   3.713   2.793   1.520  0.2098  0.3273 -0.3105
 1299TIP3    H128092   3.720   2.711   1.569 -0.8377 -0.3164 -1.1968
 1299TIP3    H228093   3.795   2.838   1.538  0.5191 -0.6083  0.7396
 1300TIP3   OH228094   0.455   3.600   9.912  0.3186  0.5727 -0.0362
 1300TIP3    H128095   0.462   3.695   9.909 -0.4735  0.6366 -0.0769
 1300TIP3    H228096   0.384   3.579   9.851 -0.0246  0.0159  0.5357
 1301TIP3   OH228097   4.872   3.086   2.305 -0.2867  0.5461  0.5563
 1301TIP3    H128098   4.936   3.145   2.345  1.3614 -0.7368 -0.0552
 1301TIP3    H228099   4.787   3.123   2.328  0.6502  1.6985  2.3750
 1302TIP3   OH228100   5.361   2.707   2.220  0.2981 -0.5122  0.2971
 1302TIP3    H128101   5.424   2.668   2.281  1.4484  2.5912  1.2950
 1302TIP3    H228102   5.302   2.757   2.276 -0.9354 -0.5485 -0.9142
 1303TIP3   OH228103   1.107   2.339   1.515 -0.0254 -0.2550 -0.4164
 1303TIP3    H128104   1.091   2.264   1.456  0.9208 -0.3392 -0.5912
 1303TIP3    H228105   1.186   2.380   1.480 -0.2821  0.5743 -0.0549
 1304TIP3   OH228106   3.258   5.319   1.336  0.1173  0.4887 -0.0741
 1304TIP3    H128107   3.283   5.240   1.385  1.3823 -0.3138 -1.8833
 1304TIP3    H228108   3.201   5.286   1.266  1.2147  1.0304 -1.2654
 1305TIP3   OH228109   1.773   1.999   0.966  0.0690 -0.2767 -0.3184
 1305TIP3    H128110   1.856   2.028   0.928  0.3908 -2.2447 -1.1925
 1305TIP3    H228111   1.710   2.003   0.894  0.2581 -2.2364 -0.6328
 1306TIP3   OH228112   4.333   5.296   2.363  0.0763  0.0888  0.4177
 1306TIP3    H128113   4.351   5.221   2.306  0.6977  0.0418  0.6600
 1306TIP3    H228114   4.416   5.344   2.365  0.5498 -0.6866  2.4137
 1307TIP3   OH228115   3.021   1.527   0.862  0.4392 -0.4840  0.5693
 1307TIP3    H128116   2.938   1.575   0.862  0.2803 -0.7437 -0.2189
 1307TIP3    H228117   3.062   1.549   0.778  0.4900 -1.4919  0.3155
 1308TIP3   OH228118   1.838   1.161   0.132  0.3652 -0.4642  0.1290
 1308TIP3    H128119   1.814   1.196   0.046  0.0204 -0.1591  0.3473
 1308TIP3    H228120   1.767   1.189   0.189  1.3183  0.6142  0.8319
 1309TIP3   OH228121   6.786   2.532   6.582 -0.7121  0.0654  0.1076
 1309TIP3    H128122   6.723   2.494   6.521 -0.2398  1.5274 -1.3432
 1309TIP3    H228123   6.806   2.618   6.546  1.8279 -0.1924  0.7265
 1310TIP3   OH228124   0.994   3.605   1.716 -0.0239  0.4407 -0.3950
 1310TIP3    H128125   1.044   3.530   1.685 -0.1772  1.2722 -2.8354
 1310TIP3    H228126   0.903   3.582   1.702 -0.0686  1.0894 -1.2527
 1311TIP3   OH228127   4.468   5.463   8.934 -0.4678  0.0681  0.3326
 1311TIP3    H128128   4.467   5.448   8.839 -0.1624  0.5245  0.2561
 1311TIP3    H228129   4.558   5.445   8.960 -0.5817 -0.1802  0.5584
 1312TIP3   OH228130   5.639   6.515   1.617  0.3375  0.1607  0.7419
 1312TIP3    H128131   5.602   6.599   1.642 -1.9466 -0.1781 -1.0838
 1312TIP3    H228132   5.609   6.454   1.685 -0.9450  0.2570  0.2990
 1313TIP3   OH228133   2.166   3.521   0.686  0.0633 -0.6171  0.6087
 1313TIP3    H128134   2.229   3.452   0.666  0.9621  0.8066 -1.9342
 1313TIP3    H228135   2.174   3.583   0.613 -2.7074  0.7617  1.3294
 1314TIP3   OH228136   6.191   6.125   2.678 -0.3742  0.3040  0.1038
 1314TIP3    H128137   6.144   6.063   2.622  2.3934  1.0576 -3.3633
 1314TIP3    H228138   6.135   6.202   2.682 -0.2857  0.5734 -2.5390
 1315TIP3   OH228139   5.822   2.413   1.345 -0.4640 -0.3294 -0.2351
 1315TIP3    H128140   5.903   2.421   1.293  0.7320  0.4940  1.6541
 1315TIP3    H228141   5.766   2.483   1.311  0.4219  0.4112 -0.2329
 1316TIP3   OH228142   0.779   7.019   3.063 -0.3843  0.8153 -0.0840
 1316TIP3    H128143   0.846   7.077   3.027 -0.0743  1.1837  1.0499
 1316TIP3    H228144   0.706   7.024   3.001  0.4008  0.8666 -1.0251
 1317TIP3   OH228145   0.941   3.312   7.548 -0.1412 -0.8783 -0.5907
 1317TIP3    H128146   0.988   3.236   7.582  0.3205 -0.8103 -1.0801
 1317TIP3    H228147   0.920   3.290   7.457 -3.0932 -1.8870  0.2076
 1318TIP3   OH228148   3.774   4.020   1.778 -0.5181 -0.5281  0.5435
 1318TIP3    H128149   3.689   4.002   1.740 -0.2790 -0.0550 -0.2314
 1318TIP3    H228150   3.770   4.112   1.805 -0.7753 -0.9228  1.9296
 1319TIP3   OH228151   4.560   6.305   1.748 -0.4482  0.0689 -0.1203
 1319TIP3    H128152   4.515   6.366   1.807 -1.3217 -1.2786  0.6522
 1319TIP3    H228153   4.507   6.305   1.669 -0.6430  0.0642  0.0072
 1320TIP3   OH228154   5.710   5.690   2.742 -0.6480  0.5451  0.0961
 1320TIP3    H128155   5.619   5.687   2.713 -1.1542  1.2822  1.5273
 1320TIP3    H228156   5.720   5.613   2.798 -0.2236  0.1957 -0.4380
 1321TIP3   OH228157   0.142   2.869   3.414  0.2946  0.0871 -0.3740
 1321TIP3    H128158   0.229   2.855   3.374  1.3522  1.2251  1.3941
 1321TIP3    H228159   0.136   2.964   3.426 -1.2242  0.0238 -0.4630
 1322TIP3   OH228160   3.359   0.993   1.964 -0.0001 -0.4885  0.0510
 1322TIP3    H128161   3.268   1.019   1.979 -0.6092 -2.9236  0.9774
 1322TIP3    H228162   3.372   0.916   2.018  2.7667 -0.0173  0.2312
 1323TIP3   OH228163   3.420   0.805   8.129  0.1246 -0.1274 -0.7322
 1323TIP3    H128164   3.478   0.729   8.124 -0.1479 -0.2503 -3.1817
 1323TIP3    H228165   3.469   0.869   8.182  1.7772 -0.8345 -1.3353
 1324TIP3   OH228166   2.298   3.028   8.879  0.1048 -0.3304 -0.5476
 1324TIP3    H128167   2.207   2.999   8.890  0.1066  0.1596  0.9605
 1324TIP3    H228168   2.313   3.087   8.952  1.1618  0.8305 -1.6551
 1325TIP3   OH228169   2.022   5.692   0.407  0.3852  0.4838  0.3703
 1325TIP3    H128170   2.012   5.597   0.401 -1.7464  0.5556  1.7438
 1325TIP3    H228171   1.972   5.727   0.334  0.8916  0.5653  0.0601
 1326TIP3   OH228172   0.016   3.430   1.058  0.0921 -0.6330 -0.3517
 1326TIP3    H128173   0.070   3.503   1.028  0.6399 -0.0397  1.9054
 1326TIP3    H228174  -0.065   3.471   1.089  0.6359 -0.8589  1.4796
 1327TIP3   OH228175   5.876   3.864   2.277 -1.0088 -0.1021 -0.2543
 1327TIP3    H128176   5.859   3.940   2.220 -0.0884 -0.0085 -0.4135
 1327TIP3    H228177   5.838   3.889   2.361  0.0595  0.9118 -0.0493
 1328TIP3   OH228178   6.460   1.480   8.159 -0.1471  0.1721  0.2447
 1328TIP3    H128179   6.512   1.509   8.234 -1.2274  1.1789  0.6404
 1328TIP3    H228180   6.375   1.456   8.197  0.0744 -1.6527 -0.3535
 1329TIP3   OH228181   1.651   5.273   6.907 -0.4511 -0.1034 -0.4064
 1329TIP3    H128182   1.689   5.232   6.830 -1.4963 -0.9959 -0.4791
 1329TIP3    H228183   1.557   5.278   6.888 -0.6134  0.4578  0.4566
 1330TIP3   OH228184   3.607   1.183   8.368 -0.1332  0.4215 -0.2519
 1330TIP3    H128185   3.545   1.207   8.300 -1.4207 -1.6570  0.1055
 1330TIP3    H228186   3.569   1.218   8.449 -1.4158 -1.6082  0.1014
 1331TIP3   OH228187   4.370   2.510   9.848 -0.4948  0.6040  0.6719
 1331TIP3    H128188   4.289   2.468   9.878  0.0521 -0.2958  0.9029
 1331TIP3    H228189   4.340   2.574   9.783 -1.3090 -0.5624 -0.1537
 1332TIP3   OH228190   2.971   4.626   1.315 -0.1577  0.5429  0.3958
 1332TIP3    H128191   3.006   4.544   1.349 -1.1033  0.1748  0.4944
 1332TIP3    H228192   2.899   4.601   1.257 -0.4283  1.2948  0.3840
 1333TIP3   OH228193   3.726   5.730   8.362  0.7867 -0.1509 -0.2515
 1333TIP3    H128194   3.679   5.667   8.418  0.3860 -1.3523 -1.8643
 1333TIP3    H228195   3.695   5.711   8.274  3.0298  0.1957 -1.1725
 1334TIP3   OH228196   5.739   4.693   7.773 -0.7475  0.1412  0.2037
 1334TIP3    H128197   5.665   4.651   7.817 -0.8832  0.3681  0.1909
 1334TIP3    H228198   5.718   4.685   7.680  0.4762 -2.1323  0.0459
 1335TIP3   OH228199   6.166   5.722   0.619  0.2086 -0.0728  0.2802
 1335TIP3    H128200   6.079   5.743   0.651 -0.0236 -0.0457 -0.3615
 1335TIP3    H228201   6.225   5.766   0.681 -0.2158 -0.5246  1.0166
 1336TIP3   OH228202   6.954   6.237   7.733 -0.0541  0.2169 -0.1540
 1336TIP3    H128203   7.016   6.177   7.691 -0.3315  0.0208 -0.2830
 1336TIP3    H228204   6.983   6.241   7.824  0.0512 -0.0002 -0.1770
 1337TIP3   OH228205   4.118   3.371   0.667 -0.0916  0.1941  0.0866
 1337TIP3    H128206   4.064   3.315   0.723  0.0543 -0.6562 -0.6025
 1337TIP3    H228207   4.102   3.339   0.579 -0.0448  1.2831 -0.3416
 1338TIP3   OH228208   5.332   6.412   0.718 -0.1008  0.0550 -0.0101
 1338TIP3    H128209   5.390   6.366   0.779  2.4721 -0.7842 -2.8913
 1338TIP3    H228210   5.272   6.345   0.685  1.3944 -0.5442 -1.6184
 1339TIP3   OH228211   0.380   3.866   8.506 -0.2041  0.2074 -0.0202
 1339TIP3    H128212   0.391   3.863   8.601  1.2744 -0.6056 -0.1808
 1339TIP3    H228213   0.460   3.907   8.474 -1.1797  1.5359 -0.8795
 1340TIP3   OH228214   4.672   7.034   9.724 -0.0145  0.3311  0.1880
 1340TIP3    H128215   4.596   7.088   9.700 -0.6684 -0.8274 -0.5173
 1340TIP3    H228216   4.665   7.023   9.819 -1.3058 -0.5205  0.0290
 1341TIP3   OH228217   6.763   5.105   0.827  0.8493  0.2823 -0.4366
 1341TIP3    H128218   6.805   5.037   0.775  2.2544  1.2000 -0.5553
 1341TIP3    H228219   6.710   5.057   0.891 -1.0786 -0.8850 -2.7257
 1342TIP3   OH228220   1.123   2.980   0.980  0.1831 -0.3842  0.2329
 1342TIP3    H128221   1.200   2.972   0.924  1.6826  2.8738  1.5600
 1342TIP3    H228222   1.050   2.995   0.918  0.7078 -2.3779 -0.9785
 1343TIP3   OH228223   0.522   5.254   2.131 -0.7287  0.1431  0.0986
 1343TIP3    H128224   0.439   5.302   2.132 -0.1337  1.2166 -0.0893
 1343TIP3    H228225   0.524   5.211   2.046 -1.3233 -0.3060  0.3099
 1344TIP3   OH228226   1.741   5.717   8.440 -0.1670 -0.0540 -0.1180
 1344TIP3    H128227   1.822   5.666   8.432  1.4024  2.3296 -0.8887
 1344TIP3    H228228   1.689   5.671   8.506  2.0341 -1.4478  0.7606
 1345TIP3   OH228229   1.466   7.230   2.319  0.5786  0.3076  0.2587
 1345TIP3    H128230   1.435   7.145   2.351 -0.5732  0.6430  0.0750
 1345TIP3    H228231   1.559   7.232   2.343  0.8805 -1.4031 -0.5736
 1346TIP3   OH228232   6.823   1.922   9.431 -0.5734 -0.4425 -0.2566
 1346TIP3    H128233   6.864   1.863   9.368  1.0207  0.3402  0.0043
 1346TIP3    H228234   6.788   1.993   9.378 -0.1013 -0.2766 -0.3504
 1347TIP3   OH228235   0.024   2.472   9.154  0.0130 -1.0562 -0.4151
 1347TIP3    H128236   0.105   2.517   9.131 -0.4044  0.9016  1.6293
 1347TIP3    H228237   0.053   2.395   9.204  0.6315 -0.2481  0.5022
 1348TIP3   OH228238   0.998   0.357   8.835 -0.0349 -0.0799 -0.2578
 1348TIP3    H128239   0.926   0.304   8.870  0.6105 -0.0309  1.2165
 1348TIP3    H228240   1.067   0.350   8.901  1.5699 -0.6281 -1.9181
 1349TIP3   OH228241   3.674   3.304   7.774  0.5535  0.1402 -0.0197
 1349TIP3    H128242   3.664   3.245   7.848 -1.5799  1.7447  1.0711
 1349TIP3    H228243   3.663   3.248   7.697  0.3265 -1.1565  0.9250
 1350TIP3   OH228244   2.035   5.936   2.546  0.1287 -0.9602  0.4927
 1350TIP3    H128245   2.010   5.859   2.496 -0.4020 -0.7854  0.4839
 1350TIP3    H228246   2.005   5.918   2.636 -2.3597  0.2866 -0.0044
 1351TIP3   OH228247   0.884   2.183   9.939  0.5307 -0.1117  0.2046
 1351TIP3    H128248   0.895   2.094   9.972 -0.2150 -0.5267 -0.6127
 1351TIP3    H228249   0.879   2.173   9.844 -2.3857  0.4502  0.2142
 1352TIP3   OH228250   1.741   2.457   9.155 -0.1922  0.1835  0.0459
 1352TIP3    H128251   1.672   2.392   9.143 -0.5638  0.5391  0.2127
 1352TIP3    H228252   1.765   2.484   9.067 -0.8357  0.6403  0.0020
 1353TIP3   OH228253   3.321   7.270   2.029  0.1103 -0.2283  0.2378
 1353TIP3    H128254   3.295   7.188   2.071 -2.1247 -0.9097 -2.2045
 1353TIP3    H228255   3.242   7.324   2.032  1.0966  1.2525  0.4054
 1354TIP3   OH228256   1.318   6.207   2.581 -0.0101  0.2168  0.0419
 1354TIP3    H128257   1.403   6.212   2.625  0.6556 -0.2423 -1.1399
 1354TIP3    H228258   1.256   6.239   2.646  0.8556 -0.9235  1.4931
 1355TIP3   OH228259   4.008   2.583   0.832 -0.0632  0.4956  0.0807
 1355TIP3    H128260   4.093   2.586   0.877 -0.8059  1.2399  1.4996
 1355TIP3    H228261   3.950   2.636   0.887 -1.6227 -0.5267 -0.5217
 1356TIP3   OH228262   5.586   0.889   8.576  0.3295  0.1113 -0.3561
 1356TIP3    H128263   5.623   0.897   8.664 -2.1440 -0.0936  0.7904
 1356TIP3    H228264   5.582   0.979   8.544  0.3574  0.3043  0.1627
 1357TIP3   OH228265   4.795   2.910   9.582  0.2001  0.0829 -0.2552
 1357TIP3    H128266   4.729   2.978   9.562 -0.5093 -0.7306 -0.7441
 1357TIP3    H228267   4.754   2.856   9.649  1.0552  0.5362  0.6552
 1358TIP3   OH228268   5.269   4.791   7.095 -0.0166 -0.4441 -0.3147
 1358TIP3    H128269   5.211   4.820   7.166  1.4375 -1.5784  1.4171
 1358TIP3    H228270   5.209   4.763   7.025 -1.5436 -0.6093  1.0060
 1359TIP3   OH228271   2.506   3.010   1.334  0.2666 -0.0488  0.0013
 1359TIP3    H128272   2.454   2.985   1.258  2.8041 -0.4729 -1.7157
 1359TIP3    H228273   2.508   3.105   1.331 -0.4363 -0.0179  0.1564
 1360TIP3   OH228274   5.224   7.191   0.417  0.5053 -0.3597 -0.6140
 1360TIP3    H128275   5.216   7.241   0.498 -3.3254  0.5136 -1.2971
 1360TIP3    H228276   5.168   7.114   0.431  0.0442 -0.3677 -2.2325
 1361TIP3   OH228277   3.606   5.538   0.943 -0.4008  0.5381 -0.2448
 1361TIP3    H128278   3.693   5.570   0.918  1.2311 -0.9922  2.7872
 1361TIP3    H228279   3.563   5.613   0.983  0.7069  0.6615  0.7670
 1362TIP3   OH228280   1.387   2.850   8.408 -0.1772  0.3564 -0.1594
 1362TIP3    H128281   1.400   2.899   8.328  0.7193  1.3003  0.5367
 1362TIP3    H228282   1.304   2.804   8.395 -1.6866  2.9536 -0.3912
 1363TIP3   OH228283   1.063   4.665   9.369 -0.0399 -0.1399  0.7305
 1363TIP3    H128284   1.037   4.620   9.288  0.5032 -0.8447  0.9428
 1363TIP3    H228285   0.981   4.694   9.407 -0.4735 -1.5700  0.9483
 1364TIP3   OH228286   1.067   0.539   2.142  0.3945  0.5174 -0.2951
 1364TIP3    H128287   1.113   0.591   2.208 -1.5771 -0.9404  2.4091
 1364TIP3    H228288   1.125   0.464   2.127  0.0814 -0.0844  1.2693
 1365TIP3   OH228289   4.224   6.455   7.314 -0.0672 -0.6473 -0.3849
 1365TIP3    H128290   4.245   6.544   7.343 -2.1660 -0.1996 -0.0684
 1365TIP3    H228291   4.230   6.402   7.393 -1.5987 -0.2179  0.0582
 1366TIP3   OH228292   0.509   3.749   9.626 -0.1786 -0.0191  0.2299
 1366TIP3    H128293   0.590   3.725   9.671 -0.4149 -0.8652  0.2360
 1366TIP3    H228294   0.533   3.752   9.534  0.0613  0.6252  0.3134
 1367TIP3   OH228295   6.055   1.268   1.622 -0.0430 -0.2541  0.0362
 1367TIP3    H128296   6.086   1.337   1.681 -0.5522 -0.2707  0.3217
 1367TIP3    H228297   6.032   1.195   1.680  1.0690 -0.8981 -0.3036
 1368TIP3   OH228298   4.276   1.414   8.409  0.0867 -0.2150  0.1027
 1368TIP3    H128299   4.213   1.354   8.450  1.1899 -0.6587  1.1807
 1368TIP3    H228300   4.247   1.501   8.436 -0.0531 -0.4163  0.6043
 1369TIP3   OH228301   6.679   5.603   7.779  0.7446  0.2668 -0.3729
 1369TIP3    H128302   6.645   5.681   7.734  0.4480 -0.3661 -1.2565
 1369TIP3    H228303   6.671   5.533   7.715 -0.9668 -0.9639  1.0934
 1370TIP3   OH228304   0.968   4.488   9.189 -0.7922  0.0093 -0.1487
 1370TIP3    H128305   0.880   4.452   9.188  0.1094 -2.4418 -0.5710
 1370TIP3    H228306   0.977   4.532   9.104 -1.3888 -0.3331 -0.3951
 1371TIP3   OH228307   4.468   4.520   9.098  0.3675  0.0968  0.7558
 1371TIP3    H128308   4.486   4.562   9.014  0.8612  1.1550  1.3702
 1371TIP3    H228309   4.427   4.437   9.075  0.9362  0.1532 -0.5471
 1372TIP3   OH228310   5.150   4.962   7.551 -0.4029 -0.2577 -0.0968
 1372TIP3    H128311   5.136   4.876   7.592 -0.7039 -0.0346  0.2802
 1372TIP3    H228312   5.154   4.944   7.457  2.3259 -1.0561  0.0881
 1373TIP3   OH228313   0.534   4.403   8.872  0.3253  0.2017 -0.4901
 1373TIP3    H128314   0.622   4.394   8.836  0.2191  2.7913 -1.6485
 1373TIP3    H228315   0.534   4.490   8.913 -1.7974  0.4778 -0.9641
 1374TIP3   OH228316   4.627   5.310   1.070 -0.4541  0.1113 -0.0665
 1374TIP3    H128317   4.581   5.394   1.076  0.6546  0.7322 -0.0595
 1374TIP3    H228318   4.575   5.258   1.009 -0.5253  1.2142 -0.9592
 1375TIP3   OH228319   1.454   5.813   3.150  0.0898 -0.2818  0.4016
 1375TIP3    H128320   1.378   5.870   3.157  1.2699  1.4315  0.0669
 1375TIP3    H228321   1.520   5.854   3.206  0.7176 -1.8473  0.8681
 1376TIP3   OH228322   4.919   7.196   9.653 -0.0887  0.3348  0.0908
 1376TIP3    H128323   4.953   7.151   9.575 -0.7179 -0.5199  0.2906
 1376TIP3    H228324   4.844   7.143   9.680  0.6518  0.0986  1.8049
 1377TIP3   OH228325   3.632   5.820   3.217  0.1849  0.0010  0.2545
 1377TIP3    H128326   3.602   5.729   3.221 -1.1031  0.4462  1.2977
 1377TIP3    H228327   3.702   5.819   3.151  0.4762 -1.8134  0.5367
 1378TIP3   OH228328   0.175   5.542   0.622 -0.5409 -0.0020  0.1066
 1378TIP3    H128329   0.230   5.491   0.682 -1.1292 -0.5043  0.2235
 1378TIP3    H228330   0.237   5.597   0.574  0.1238 -0.9109 -0.1085
 1379TIP3   OH228331   0.785   4.911   0.492  0.1588  0.0047 -0.2227
 1379TIP3    H128332   0.870   4.876   0.519  0.4963  1.3456  0.5193
 1379TIP3    H228333   0.738   4.925   0.574 -0.1575  0.7976 -0.5344
 1380TIP3   OH228334   2.024   2.097   0.331 -0.0458  0.4134  0.4691
 1380TIP3    H128335   2.029   2.003   0.351  1.8273  0.5119  0.6654
 1380TIP3    H228336   1.987   2.136   0.410 -3.7611 -0.3975 -0.6778
 1381TIP3   OH228337   1.244   0.048   2.173  0.1961  0.2149  0.0109
 1381TIP3    H128338   1.319   0.020   2.226  0.1292 -0.8761 -0.4436
 1381TIP3    H228339   1.236  -0.019   2.106 -0.8926  0.5776 -0.2390
 1382TIP3   OH228340   0.885   5.172   8.336 -0.4169 -0.0777 -0.0979
 1382TIP3    H128341   0.843   5.185   8.251  0.0753  1.9012 -0.0876
 1382TIP3    H228342   0.939   5.250   8.348  0.4817 -0.9070  1.4865
 1383TIP3   OH228343   2.786   2.595   9.875 -0.3366 -0.3396 -0.0837
 1383TIP3    H128344   2.704   2.551   9.898 -0.4359 -0.8854 -1.3803
 1383TIP3    H228345   2.824   2.620   9.959 -2.5173  1.2531  0.5329
 1384TIP3   OH228346   4.892   3.368   1.575 -0.1848 -0.0738 -0.2051
 1384TIP3    H128347   4.824   3.413   1.626  0.8991  1.8336 -0.3690
 1384TIP3    H228348   4.860   3.372   1.484  0.6272  1.8736 -0.4489
 1385TIP3   OH228349   6.323   6.086   8.154  0.1055 -0.2337  0.3402
 1385TIP3    H128350   6.237   6.069   8.115  0.5758  1.9914 -1.9152
 1385TIP3    H228351   6.383   6.089   8.080  1.9958 -0.7268  1.7631
 1386TIP3   OH228352   7.275   5.604   0.973 -0.7683  0.2629  0.0070
 1386TIP3    H128353   7.254   5.617   1.065  0.6892  0.8572  0.2780
 1386TIP3    H228354   7.349   5.543   0.974 -0.5890  0.4586 -0.7563
 1387TIP3   OH228355   5.921   6.503   8.697  0.8897 -0.0368 -0.1176
 1387TIP3    H128356   5.861   6.449   8.748  0.0801  0.5665 -0.4082
 1387TIP3    H228357   5.943   6.576   8.754  1.4710 -0.3266  0.0384
 1388TIP3   OH228358   1.130   5.099   9.043  0.1783 -0.2573 -0.0392
 1388TIP3    H128359   1.144   5.029   9.107 -0.9730  0.6631  1.2689
 1388TIP3    H228360   1.215   5.142   9.035  0.1200  0.2638  1.6991
 1389TIP3   OH228361   5.268   3.036   8.547  0.3948 -0.5094  0.0864
 1389TIP3    H128362   5.332   3.096   8.510  0.0788  0.9619  1.7979
 1389TIP3    H228363   5.320   2.970   8.594  0.7017 -0.1094  0.3126
 1390TIP3   OH228364   2.457   5.627   9.205  0.0690 -0.9905 -0.3218
 1390TIP3    H128365   2.550   5.637   9.223 -0.0653 -0.8279  0.2905
 1390TIP3    H228366   2.413   5.648   9.288 -0.4122 -2.9242 -0.0307
 1391TIP3   OH228367   0.280   6.203   1.170  0.0282  0.0929  0.0064
 1391TIP3    H128368   0.292   6.114   1.135 -1.4755 -0.3996  0.6538
 1391TIP3    H228369   0.302   6.261   1.097  0.5208 -0.8161 -0.5912
 1392TIP3   OH228370   1.280   4.330   7.904  0.4111  0.1337  0.8008
 1392TIP3    H128371   1.315   4.285   7.981  0.9651  0.5331  0.7833
 1392TIP3    H228372   1.239   4.260   7.853  1.0220 -0.3151  0.9115
 1393TIP3   OH228373   3.530   7.023   9.350  0.7142 -0.5977 -0.0400
 1393TIP3    H128374   3.578   7.061   9.424  0.5202 -1.3264  0.4830
 1393TIP3    H228375   3.491   6.943   9.386  0.0419 -0.6083 -0.7529
 1394TIP3   OH228376   1.248   6.263   2.923 -0.7105  0.5159 -0.0787
 1394TIP3    H128377   1.322   6.323   2.924  0.2181 -0.6222  0.1748
 1394TIP3    H228378   1.192   6.296   2.853 -1.2778  2.9020  1.3470
 1395TIP3   OH228379   4.332   2.488   0.441 -0.2533 -0.4436  0.0221
 1395TIP3    H128380   4.369   2.576   0.451 -1.4894 -0.0474  1.3780
 1395TIP3    H228381   4.239   2.498   0.460 -0.5452 -1.9372 -0.4736
 1396TIP3   OH228382   1.598   0.957   6.740  0.3881  0.4012  0.2333
 1396TIP3    H128383   1.513   0.988   6.708  0.2009  0.9145  1.1980
 1396TIP3    H228384   1.661   1.022   6.708  0.3001  0.5191  0.3009
 1397TIP3   OH228385   6.616   6.811   0.929  0.3293  0.0190 -0.2872
 1397TIP3    H128386   6.619   6.900   0.965 -1.3016  0.2846 -0.7341
 1397TIP3    H228387   6.611   6.823   0.834  1.6157 -0.6058 -0.4530
 1398TIP3   OH228388   6.426   1.411   9.979 -0.3662  0.3418 -0.0414
 1398TIP3    H128389   6.464   1.339  10.028 -0.5770 -0.4696 -1.0365
 1398TIP3    H228390   6.402   1.373   9.894 -1.4461  1.3269 -0.2091
 1399TIP3   OH228391   2.140   3.711   8.945  0.3870  0.3893 -1.0495
 1399TIP3    H128392   2.145   3.805   8.963  0.2113  0.3034 -0.5018
 1399TIP3    H228393   2.221   3.690   8.899  0.9773  0.6049 -0.1450
 1400TIP3   OH228394   0.828   0.821   9.721 -0.3894  0.1794  0.3027
 1400TIP3    H128395   0.745   0.866   9.733 -0.3883  0.3275 -0.2368
 1400TIP3    H228396   0.838   0.767   9.800 -0.6798  0.6542  0.6634
 1401TIP3   OH228397   6.517   2.696   8.220  0.0978  0.2334  0.1022
 1401TIP3    H128398   6.538   2.756   8.292  2.0885 -1.8720  1.4321
 1401TIP3    H228399   6.455   2.634   8.258  1.8921 -1.4733  0.4324
 1402TIP3   OH228400   4.401   2.749   0.536 -0.0855 -0.1962 -0.1836
 1402TIP3    H128401   4.476   2.808   0.542 -0.0506 -0.2938  0.4386
 1402TIP3    H228402   4.342   2.779   0.605  0.0426 -1.0402  0.3050
 1403TIP3   OH228403   5.688   1.650   0.582  0.1998  0.6204  0.2674
 1403TIP3    H128404   5.751   1.579   0.587 -1.9227 -1.3656  0.6421
 1403TIP3    H228405   5.661   1.653   0.490 -0.7402 -0.0744  0.5004
 1404TIP3   OH228406   7.095   3.212   1.666 -0.1088  0.1040  0.2019
 1404TIP3    H128407   7.095   3.308   1.666 -1.7800  0.1369 -0.4872
 1404TIP3    H228408   7.188   3.188   1.660  0.3447  1.6669  0.5342
 1405TIP3   OH228409   6.024   2.255   1.669 -0.1692 -0.1856 -0.2832
 1405TIP3    H128410   6.075   2.178   1.693  0.0158 -0.0072 -0.1029
 1405TIP3    H228411   6.060   2.282   1.585 -0.6222 -0.6370 -0.6336
 1406TIP3   OH228412   1.232   5.803   8.780 -0.5387 -0.3990  0.1519
 1406TIP3    H128413   1.139   5.780   8.772 -1.0112  0.6017  2.0685
 1406TIP3    H228414   1.253   5.847   8.698 -1.8087 -0.4852 -0.2489
 1407TIP3   OH228415   6.423   1.732   8.407  0.4472 -0.0145  0.1984
 1407TIP3    H128416   6.352   1.737   8.472  0.2805  0.1030  0.0094
 1407TIP3    H228417   6.484   1.668   8.443 -0.4207 -1.1453 -0.2713
 1408TIP3   OH228418   6.774   6.191   2.069  0.5470 -0.1321 -0.3100
 1408TIP3    H128419   6.770   6.280   2.105 -1.3555 -0.1219 -0.4447
 1408TIP3    H228420   6.700   6.145   2.109  1.0028 -1.4131 -0.8816
 1409TIP3   OH228421   2.559   3.530   9.607 -0.8053  0.0072 -0.2896
 1409TIP3    H128422   2.571   3.605   9.665 -0.9242  0.1498 -0.4486
 1409TIP3    H228423   2.603   3.556   9.526 -0.9236 -0.0600 -0.3749
 1410TIP3   OH228424   1.027   4.825   9.156 -0.0745 -0.1099  0.2038
 1410TIP3    H128425   0.932   4.816   9.166 -0.1035  0.7687  0.9500
 1410TIP3    H228426   1.064   4.768   9.223 -0.0383 -1.2678 -0.7817
 1411TIP3   OH228427   3.878   1.072   7.840  0.0584 -0.7202 -0.2517
 1411TIP3    H128428   3.868   0.986   7.882  0.1190  0.0036  1.3088
 1411TIP3    H228429   3.914   1.128   7.908 -0.8656  0.7950 -0.9481
 1412TIP3   OH228430   4.620   1.679   0.456 -0.0806 -0.0472  0.0863
 1412TIP3    H128431   4.705   1.667   0.414  0.5903  0.2491  1.3284
 1412TIP3    H228432   4.569   1.727   0.391  0.8561  0.2188 -0.4824
 1413TIP3   OH228433   1.262   4.679   7.069  0.0666 -0.2066 -0.1927
 1413TIP3    H128434   1.347   4.711   7.039  0.0448  1.7524  1.6394
 1413TIP3    H228435   1.266   4.584   7.054  1.8231  0.0567 -1.8459
 1414TIP3   OH228436   4.193   5.219   3.196  0.1320 -0.0403  0.9270
 1414TIP3    H128437   4.098   5.213   3.187  0.3411 -1.9003 -0.6686
 1414TIP3    H228438   4.216   5.301   3.152 -0.6969  0.2917  1.0942
 1415TIP3   OH228439   5.219   3.429   9.241  0.0958 -0.1069  0.4633
 1415TIP3    H128440   5.135   3.473   9.230  0.3137 -0.0348 -1.3100
 1415TIP3    H228441   5.202   3.358   9.302 -0.8343  0.9447  1.4534
 1416TIP3   OH228442   5.133   7.027   9.385 -0.8702  0.1291 -0.0357
 1416TIP3    H128443   5.142   6.951   9.444 -0.8014  0.2396  0.0969
 1416TIP3    H228444   5.111   6.989   9.300 -1.3993 -0.0078  0.1583
 1417TIP3   OH228445   0.116   4.217   8.537  0.5155 -0.0840  0.0671
 1417TIP3    H128446   0.145   4.173   8.617  1.5208 -0.6726 -0.5874
 1417TIP3    H228447   0.194   4.263   8.506  0.4673 -0.7634 -1.1315
 1418TIP3   OH228448   1.221   1.672   9.455  0.0187 -0.1515  0.2209
 1418TIP3    H128449   1.305   1.702   9.487  1.0668 -0.7574 -1.7681
 1418TIP3    H228450   1.156   1.720   9.506  1.5566  0.5600  1.5755
 1419TIP3   OH228451   0.930   4.835   1.361 -0.5881  0.5139 -0.6355
 1419TIP3    H128452   0.895   4.920   1.391 -0.7151  0.7052 -1.3125
 1419TIP3    H228453   0.946   4.848   1.268  0.8845  0.2914 -0.4413
 1420TIP3   OH228454   3.099   0.824   7.383 -0.2924 -0.4691  0.1658
 1420TIP3    H128455   3.108   0.842   7.477  0.8490 -1.6280  0.3092
 1420TIP3    H228456   3.175   0.866   7.343 -1.1272  0.5857 -0.3396
 1421TIP3   OH228457   0.104   0.881   1.849  0.3412  0.4482 -0.0749
 1421TIP3    H128458   0.089   0.975   1.857  0.7286  0.7287 -2.1940
 1421TIP3    H228459   0.019   0.841   1.870 -1.1607  1.5535 -3.3539
 1422TIP3   OH228460   5.271   5.169   7.702 -0.4331 -0.3974  0.2972
 1422TIP3    H128461   5.324   5.161   7.781 -0.4920  1.3799  0.5468
 1422TIP3    H228462   5.245   5.079   7.682  0.0072 -0.9422  1.9976
 1423TIP3   OH228463   4.142   2.195   0.345  0.1063 -0.1877 -0.5103
 1423TIP3    H128464   4.084   2.127   0.311 -1.0691 -0.1334  1.2173
 1423TIP3    H228465   4.220   2.149   0.374 -0.2818 -0.6836 -0.2326
 1424TIP3   OH228466   0.326   6.166   7.608  0.5071 -0.0982  0.5856
 1424TIP3    H128467   0.251   6.171   7.548 -0.0017  0.9517  1.2962
 1424TIP3    H228468   0.402   6.156   7.550 -0.2770 -3.0702 -0.1109
 1425TIP3   OH228469   0.651   6.084   8.476 -1.1016 -0.2483  0.2818
 1425TIP3    H128470   0.689   6.093   8.389 -2.5159  1.4368 -0.2131
 1425TIP3    H228471   0.697   6.009   8.515  3.1406  1.9464  0.0246
 1426TIP3   OH228472   0.842   4.080   9.940 -0.9994  0.0501  0.9616
 1426TIP3    H128473   0.928   4.054   9.971 -0.2469 -1.4355 -1.9815
 1426TIP3    H228474   0.784   4.009   9.968 -1.0467  0.4479  1.8981
 1427TIP3   OH228475   0.578   6.254   9.595  0.2138  0.3674 -0.1173
 1427TIP3    H128476   0.525   6.218   9.666  1.0978 -0.7226  0.0054
 1427TIP3    H228477   0.543   6.343   9.583  0.0155  0.5795  1.6505
 1428TIP3   OH228478   1.593   5.613   1.497  0.7564 -0.1268 -0.1098
 1428TIP3    H128479   1.682   5.648   1.493  0.9021 -0.5983 -2.0204
 1428TIP3    H228480   1.539   5.681   1.458  0.0923  0.5479  1.8631
 1429TIP3   OH228481   1.381   4.930   9.235 -0.5786  0.3370  0.2285
 1429TIP3    H128482   1.299   4.921   9.284 -0.2749  0.6206  0.8042
 1429TIP3    H228483   1.441   4.972   9.297 -0.2655  0.9658 -0.4802
 1430TIP3   OH228484   1.309   4.902   0.756 -0.0434  0.1923 -0.4048
 1430TIP3    H128485   1.307   4.996   0.773 -1.1059  0.0907  0.0687
 1430TIP3    H228486   1.238   4.865   0.809 -0.4749 -0.7140 -1.5527
 1431TIP3   OH228487   6.406   2.261   2.297 -0.4772  0.3686 -0.2649
 1431TIP3    H128488   6.411   2.250   2.392 -0.6423 -0.3859 -0.3360
 1431TIP3    H228489   6.351   2.188   2.267 -0.0753  0.3460 -0.9812
 1432TIP3   OH228490   4.303   0.844   8.090  0.4100  0.1387 -0.3285
 1432TIP3    H128491   4.248   0.859   8.167  0.7154  0.8618 -0.2452
 1432TIP3    H228492   4.254   0.781   8.038 -0.5030  0.7606 -0.2513
 1433TIP3   OH228493   5.119   2.574   0.512 -0.6736  0.3342  0.3207
 1433TIP3    H128494   5.121   2.608   0.423  0.3701 -0.6730 -0.0798
 1433TIP3    H228495   5.032   2.535   0.522 -0.6862  0.1759 -0.3741
 1434TIP3   OH228496   3.185   7.271   0.191  0.2046 -0.2656  0.1342
 1434TIP3    H128497   3.193   7.285   0.285 -1.8641  1.4587  0.1110
 1434TIP3    H228498   3.226   7.348   0.151  0.4303 -0.6396 -0.3816
 1435TIP3   OH228499   6.990   0.897   8.410  0.2077 -0.3077  0.6098
 1435TIP3    H128500   6.990   0.833   8.338 -0.3737  0.3684  0.0033
 1435TIP3    H228501   7.078   0.935   8.407  0.5441 -1.0288  0.9439
 1436TIP3   OH228502   2.399   3.987   8.209 -0.7593 -0.3812 -0.1130
 1436TIP3    H128503   2.370   3.962   8.297  0.5963 -0.4505  0.3507
 1436TIP3    H228504   2.372   4.078   8.200 -0.2557 -0.1388  0.6913
 1437TIP3   OH228505   2.820   6.881   0.943  0.0446 -0.9417 -0.2341
 1437TIP3    H128506   2.817   6.815   1.013  0.9680  1.0142  1.7671
 1437TIP3    H228507   2.846   6.961   0.987  1.5704  0.2281 -3.0052
 1438TIP3   OH228508   4.671   5.688   0.188  0.4073  0.8042  0.4717
 1438TIP3    H128509   4.592   5.715   0.235  0.8627  0.1193  1.6738
 1438TIP3    H228510   4.666   5.592   0.186  1.4299  0.7247  0.9879
 1439TIP3   OH228511   6.201   7.251   9.729 -0.1493 -0.0066  0.2372
 1439TIP3    H128512   6.199   7.208   9.643  1.4995 -1.6072  0.9105
 1439TIP3    H228513   6.294   7.256   9.750 -0.5389 -0.4959  2.3063
 1440TIP3   OH228514   6.631   0.676   8.180  0.0813 -0.0419 -0.3306
 1440TIP3    H128515   6.608   0.748   8.239 -0.4199  0.4148 -1.0636
 1440TIP3    H228516   6.632   0.598   8.236  1.7850  0.6825  0.7091
 1441TIP3   OH228517   2.314   3.782   0.497 -0.2949  0.1956  0.2441
 1441TIP3    H128518   2.370   3.810   0.569 -0.0375 -1.1098  0.5850
 1441TIP3    H228519   2.226   3.778   0.535  0.0943 -2.2660  1.0765
 1442TIP3   OH228520   6.380   0.019   1.905  0.3047 -0.2411 -0.2920
 1442TIP3    H128521   6.464   0.038   1.862 -0.3829 -0.8761 -1.9990
 1442TIP3    H228522   6.319   0.007   1.833 -0.5958 -2.9089  0.7908
 1443TIP3   OH228523   3.386   3.960   0.033  0.1493  0.4184 -0.0432
 1443TIP3    H128524   3.324   3.982  -0.037  2.1476  2.9833 -1.1553
 1443TIP3    H228525   3.471   3.990   0.001  1.1667  1.8349  3.4983
 1444TIP3   OH228526   2.207   2.590   8.612  0.3033 -0.2368  0.3166
 1444TIP3    H128527   2.220   2.545   8.528 -0.6877 -1.0691  0.5904
 1444TIP3    H228528   2.236   2.680   8.595  1.3953 -0.7184 -0.5184
 1445TIP3   OH228529   3.358   6.284   7.949 -0.1003  0.5141 -0.0589
 1445TIP3    H128530   3.389   6.231   7.876  2.4089  0.8559  0.6532
 1445TIP3    H228531   3.405   6.367   7.939  0.0303  0.6953  1.7067
 1446TIP3   OH228532   3.039   5.996   0.832 -0.1795  0.1244 -0.4545
 1446TIP3    H128533   2.959   5.945   0.819 -0.5243  0.5430  0.0025
 1446TIP3    H228534   3.101   5.960   0.768 -0.0867 -1.5298  0.5010
 1447TIP3   OH228535   0.598   3.160   1.110  0.7854  0.3921  0.4339
 1447TIP3    H128536   0.599   3.122   1.022 -3.9318 -1.9999  1.0814
 1447TIP3    H228537   0.660   3.106   1.160 -1.8024 -3.3247  0.0496
 1448TIP3   OH228538   6.269   0.398   0.969 -0.0745 -0.2420 -0.2117
 1448TIP3    H128539   6.341   0.416   1.029 -1.3174  2.5925  0.5762
 1448TIP3    H228540   6.193   0.388   1.026 -1.0206  1.0210 -1.2005
 1449TIP3   OH228541   1.130   6.845   1.968  0.3374  0.5476 -0.4616
 1449TIP3    H128542   1.107   6.912   1.904  2.0623 -0.8127 -2.6476
 1449TIP3    H228543   1.074   6.771   1.947 -2.4143  1.4670  2.6876
 1450TIP3   OH228544   6.946   4.438   2.504  0.2305  0.2274 -0.1224
 1450TIP3    H128545   6.861   4.436   2.458 -0.1467 -2.0570  0.5146
 1450TIP3    H228546   6.997   4.503   2.457 -0.7955 -0.6116 -2.5994
 1451TIP3   OH228547   5.491   3.956   7.881 -0.5642  0.0789 -0.2979
 1451TIP3    H128548   5.497   3.862   7.898  1.0753  0.3129  0.5749
 1451TIP3    H228549   5.548   3.971   7.806 -1.4103  0.2800 -0.9116
 1452TIP3   OH228550   2.647   5.566   7.754 -0.3185 -0.3182  0.0318
 1452TIP3    H128551   2.682   5.509   7.686  1.3555 -1.8514  2.0389
 1452TIP3    H228552   2.722   5.620   7.781 -1.3517  1.3984 -0.3451
 1453TIP3   OH228553   2.764   2.081   1.943 -0.2557  0.8542  0.2865
 1453TIP3    H128554   2.828   2.111   2.007 -1.0505  1.3298  0.8722
 1453TIP3    H228555   2.779   1.986   1.937  1.0704  1.0740 -0.2467
 1454TIP3   OH228556   0.287   0.615   2.106  0.3316  0.4560  0.3175
 1454TIP3    H128557   0.361   0.651   2.057 -0.8391  1.8090 -0.5385
 1454TIP3    H228558   0.323   0.598   2.193  1.8646  0.2449 -0.3209
 1455TIP3   OH228559   5.611   5.364   0.886  0.4789 -0.3390  0.3700
 1455TIP3    H128560   5.655   5.445   0.911  0.7834 -0.2597 -0.4068
 1455TIP3    H228561   5.524   5.370   0.927  0.7273  0.0798  0.8489
 1456TIP3   OH228562   2.351   4.553   2.861  0.5742 -0.1421 -0.5174
 1456TIP3    H128563   2.351   4.644   2.893 -1.0581 -0.5045  0.6109
 1456TIP3    H228564   2.402   4.505   2.926 -0.3115 -0.3819  0.0070
 1457TIP3   OH228565   3.961   3.234   0.855  0.0144 -0.1862 -0.0653
 1457TIP3    H128566   3.905   3.160   0.834 -1.5702  1.0820 -0.4806
 1457TIP3    H228567   3.931   3.263   0.941 -0.3301  0.8107 -0.5116
 1458TIP3   OH228568   0.747   5.406   2.142  0.2520  0.2613 -0.4921
 1458TIP3    H128569   0.807   5.337   2.112  2.0090  1.4757  0.0470
 1458TIP3    H228570   0.661   5.364   2.144  1.2414 -1.8984 -0.2000
 1459TIP3   OH228571   5.937   1.786   1.146  0.1375  0.3490  0.2615
 1459TIP3    H128572   5.925   1.693   1.166  0.7099  0.4336  1.0517
 1459TIP3    H228573   5.859   1.809   1.095 -0.8394 -0.1747  1.4557
 1460TIP3   OH228574   2.606   5.080   2.165  0.2905 -0.0653  0.0283
 1460TIP3    H128575   2.702   5.087   2.169  0.4835 -2.3687  1.6013
 1460TIP3    H228576   2.576   5.132   2.240  0.4041 -0.1914  0.1641
 1461TIP3   OH228577   4.774   2.808   8.427  0.6605  0.4127  0.2564
 1461TIP3    H128578   4.721   2.872   8.381  2.2537  2.4048  1.0191
 1461TIP3    H228579   4.802   2.746   8.359  0.7353  1.7066 -0.9246
 1462TIP3   OH228580   1.933   2.775   1.228  0.4996 -0.6608  0.4197
 1462TIP3    H128581   1.894   2.764   1.142  1.2891 -2.7491  0.2574
 1462TIP3    H228582   1.992   2.700   1.237 -0.2974 -1.0857  3.1498
 1463TIP3   OH228583   2.680   3.555   1.195  0.0897  0.4736 -0.0917
 1463TIP3    H128584   2.602   3.583   1.243  0.3637 -0.8806  1.2291
 1463TIP3    H228585   2.648   3.492   1.131  0.1737 -0.6982  0.9992
 1464TIP3   OH228586   2.758   2.230   9.150 -0.2989  0.4230  0.3125
 1464TIP3    H128587   2.714   2.261   9.071 -0.3285  3.1335  1.2840
 1464TIP3    H228588   2.766   2.135   9.138 -0.0209  0.7673 -3.0420
 1465TIP3   OH228589   6.108   0.940   8.325  0.0461 -0.2405 -0.3917
 1465TIP3    H128590   6.093   0.963   8.417  1.4283  0.6919 -0.3609
 1465TIP3    H228591   6.082   0.848   8.318 -0.3853 -0.2270  0.8469
 1466TIP3   OH228592   3.856   3.524   9.980 -0.2477  0.0701 -0.4939
 1466TIP3    H128593   3.873   3.452  10.040 -2.0572 -0.6656 -0.7887
 1466TIP3    H228594   3.852   3.482   9.893  1.1686  0.9360 -1.0105
 1467TIP3   OH228595   3.319   4.707   0.323 -0.0057 -0.9102 -0.3999
 1467TIP3    H128596   3.349   4.662   0.244  0.3227  0.3269 -1.0043
 1467TIP3    H228597   3.377   4.782   0.332 -2.3486  1.1440 -1.1782
 1468TIP3   OH228598   0.700   1.148   9.886 -0.1718 -0.5828  0.0843
 1468TIP3    H128599   0.672   1.112   9.802  0.8478 -1.9452  0.3046
 1468TIP3    H228600   0.792   1.125   9.893 -0.0766  0.0732  1.3015
 1469TIP3   OH228601   6.798   4.266   3.135  0.2249 -0.4293  0.6690
 1469TIP3    H128602   6.850   4.328   3.084  0.2734 -1.6569 -0.8424
 1469TIP3    H228603   6.863   4.217   3.187  0.3687 -0.5001  0.4235
 1470TIP3   OH228604   2.709   0.106   9.475 -0.3107 -0.2285 -0.3699
 1470TIP3    H128605   2.623   0.124   9.515  0.3752  1.2047  0.5390
 1470TIP3    H228606   2.688   0.076   9.387 -1.7623  0.0590 -0.1524
 1471TIP3   OH228607   2.583   7.092   7.669 -0.3969 -0.7841  0.0174
 1471TIP3    H128608   2.589   7.032   7.743  3.6723 -0.3645  0.2880
 1471TIP3    H228609   2.574   7.179   7.709 -2.7921 -0.8517 -0.2500
 1472TIP3   OH228610   4.394   0.869   0.683  0.3341 -0.2023  0.0595
 1472TIP3    H128611   4.421   0.833   0.767 -0.2156  0.0410  0.3473
 1472TIP3    H228612   4.468   0.853   0.625  0.4632 -0.9604  0.4203
 1473TIP3   OH228613   3.925   4.228   1.139  0.4243  0.3759 -0.0753
 1473TIP3    H128614   3.956   4.258   1.054  1.1928 -2.6000 -0.9495
 1473TIP3    H228615   3.934   4.305   1.196 -0.0063  2.4296 -2.5721
 1474TIP3   OH228616   3.305   4.425   2.566  0.1837  0.2964 -0.8092
 1474TIP3    H128617   3.301   4.444   2.660  0.6012 -0.3116 -0.6637
 1474TIP3    H228618   3.248   4.349   2.554  1.2857 -0.5655 -0.7884
 1475TIP3   OH228619   5.107   6.707   1.062 -0.4835 -0.2046 -0.9479
 1475TIP3    H128620   5.139   6.694   1.151  0.4253 -0.7864 -1.3401
 1475TIP3    H228621   5.032   6.766   1.071  0.4231  0.8319  0.0634
 1476TIP3   OH228622   6.757   4.061   9.152 -0.3801 -0.0005  0.2003
 1476TIP3    H128623   6.744   4.156   9.159  1.2636  0.2391  0.4422
 1476TIP3    H228624   6.714   4.037   9.070  0.9490  1.3352 -0.9494
 1477TIP3   OH228625   1.887   4.551   9.765  0.2840 -0.0601 -0.5211
 1477TIP3    H128626   1.881   4.592   9.851 -0.8016  0.3201 -0.7588
 1477TIP3    H228627   1.976   4.516   9.761  0.5471  0.4513  0.5066
 1478TIP3   OH228628   2.540   0.088   9.834 -0.3901  0.1942  0.3348
 1478TIP3    H128629   2.621   0.039   9.828 -0.7529 -0.2437 -2.3019
 1478TIP3    H228630   2.566   0.174   9.867  1.0711 -0.0837 -0.0481
 1479TIP3   OH228631   0.044   5.901   9.693  0.3999  0.0197  0.1828
 1479TIP3    H128632  -0.005   5.822   9.716  1.1193  0.1387  2.3251
 1479TIP3    H228633  -0.024   5.966   9.674 -0.2041 -0.8928 -0.9082
 1480TIP3   OH228634   0.994   7.021   8.669  0.1255  0.8332  0.2196
 1480TIP3    H128635   0.952   7.052   8.749 -1.5377  0.1163 -0.3345
 1480TIP3    H228636   0.954   7.074   8.599 -1.1828 -0.9677 -0.5014
 1481TIP3   OH228637   2.984   4.817   9.544  0.0676 -0.8514 -0.9026
 1481TIP3    H128638   2.889   4.821   9.530 -0.1749 -0.5805  0.6290
 1481TIP3    H228639   3.022   4.852   9.463 -1.1550 -0.4242 -1.3134
 1482TIP3   OH228640   0.495   3.350   1.482  0.1366 -0.3158  0.6332
 1482TIP3    H128641   0.573   3.308   1.445  0.3481  0.5295  0.0962
 1482TIP3    H228642   0.505   3.443   1.461 -1.3828 -0.2892 -0.1068
 1483TIP3   OH228643   4.645   1.945   0.273 -0.1510 -0.2252  0.3309
 1483TIP3    H128644   4.640   2.019   0.334  0.5060 -0.0012  0.1195
 1483TIP3    H228645   4.561   1.901   0.283 -0.0989 -0.1251  1.3221
 1484TIP3   OH228646   0.120   2.953   2.599  0.4381 -0.0487 -0.1273
 1484TIP3    H128647   0.176   2.975   2.674  0.8741 -0.5194 -0.3096
 1484TIP3    H228648   0.074   3.035   2.579  0.4261  0.1237  0.5557
 1485TIP3   OH228649   1.758   1.092   8.678  0.2270  0.1424  0.1600
 1485TIP3    H128650   1.685   1.144   8.710 -0.7024 -0.1343 -1.4001
 1485TIP3    H228651   1.751   1.009   8.727 -0.6286  0.0467 -0.1042
 1486TIP3   OH228652   4.761   4.103   9.677 -0.1919  0.4334 -0.4203
 1486TIP3    H128653   4.728   4.159   9.606  1.6121 -0.0636 -1.7337
 1486TIP3    H228654   4.706   4.025   9.674 -0.7627  0.8353 -0.6139
 1487TIP3   OH228655   2.040   5.322   1.908 -0.2932 -0.1597  0.1873
 1487TIP3    H128656   1.963   5.324   1.965 -1.4902 -1.0888 -1.2922
 1487TIP3    H228657   2.070   5.231   1.910 -0.7279 -0.3580 -1.0734
 1488TIP3   OH228658   4.625   4.915   6.656  0.3564  0.2218 -0.0628
 1488TIP3    H128659   4.670   4.997   6.637  0.1772  0.3359  0.0103
 1488TIP3    H228660   4.539   4.925   6.616 -0.1957  0.6462  1.2067
 1489TIP3   OH228661   4.904   5.541   1.399  0.2876 -0.2067 -0.0111
 1489TIP3    H128662   4.894   5.593   1.320  0.7112  0.4560  0.3501
 1489TIP3    H228663   4.875   5.599   1.470  2.3682  0.1984  0.5801
 1490TIP3   OH228664   3.384   0.244   8.526  0.1527 -0.3337  0.1237
 1490TIP3    H128665   3.426   0.180   8.584  0.6229 -0.5882 -0.4872
 1490TIP3    H228666   3.316   0.284   8.580  0.5835 -0.5647  0.8505
 1491TIP3   OH228667   4.891   5.863   0.838 -0.5598 -0.4175  0.1357
 1491TIP3    H128668   4.935   5.916   0.904  1.6003 -0.5831 -1.0848
 1491TIP3    H228669   4.889   5.919   0.760 -1.3660 -0.9099 -0.2121
 1492TIP3   OH228670   3.839   1.622   1.708  0.4073 -0.4001 -0.5321
 1492TIP3    H128671   3.770   1.617   1.774  0.3784  0.1608 -0.5169
 1492TIP3    H228672   3.856   1.716   1.698  1.5778 -0.5477 -0.1148
 1493TIP3   OH228673   6.457   1.211   8.389 -0.2652  0.4363  0.5271
 1493TIP3    H128674   6.394   1.261   8.337  0.3187  0.8556  0.2032
 1493TIP3    H228675   6.424   1.214   8.478 -1.5495 -0.7046  0.1172
 1494TIP3   OH228676   0.173   4.797   7.047 -0.1145  0.2033  0.1466
 1494TIP3    H128677   0.119   4.825   7.122  0.8396  1.1183  0.5114
 1494TIP3    H228678   0.253   4.848   7.055  0.8801 -1.2329 -0.3118
 1495TIP3   OH228679   3.805   6.432   9.665  0.0175 -0.0072 -0.4701
 1495TIP3    H128680   3.883   6.378   9.679  0.5944  0.7969 -0.5148
 1495TIP3    H228681   3.733   6.376   9.693  0.6156 -0.7270 -0.3140
 1496TIP3   OH228682   2.721   3.545   0.692 -0.0510  0.3402 -0.1505
 1496TIP3    H128683   2.795   3.585   0.737  0.1678  0.5314 -0.6612
 1496TIP3    H228684   2.762   3.486   0.628 -0.3089  0.9601 -0.9112
 1497TIP3   OH228685   1.630   3.942   7.461  0.2600  0.0721  0.1140
 1497TIP3    H128686   1.581   3.884   7.403  0.8787  0.5519 -0.9142
 1497TIP3    H228687   1.711   3.961   7.414  0.5753  0.8527  0.9324
 1498TIP3   OH228688   6.955   7.016   8.490 -0.6332 -0.6734  0.4469
 1498TIP3    H128689   7.048   7.034   8.505 -0.7721  1.0494 -0.5286
 1498TIP3    H228690   6.953   6.965   8.410 -0.5956  1.3932 -0.9613
 1499TIP3   OH228691   7.008   5.662   0.990 -0.1562  0.2905  0.2172
 1499TIP3    H128692   6.990   5.622   1.076  1.5340  1.2414  1.0489
 1499TIP3    H228693   7.094   5.628   0.966  0.6702  2.2637  0.2668
 1500TIP3   OH228694   1.902   0.856   0.365  0.4096 -0.0018  0.7548
 1500TIP3    H128695   1.888   0.873   0.271 -0.5631  0.6420  1.0000
 1500TIP3    H228696   1.948   0.772   0.367 -0.2939 -0.4418 -0.2747
 1501TIP3   OH228697   2.585   4.236   9.249 -0.2816 -0.7117 -0.2233
 1501TIP3    H128698   2.603   4.279   9.165 -1.4221  0.7351  0.2387
 1501TIP3    H228699   2.558   4.307   9.307 -1.9261 -2.0085  0.6713
 1502TIP3   OH228700   1.600   1.913   7.256 -0.1048 -0.2474  0.0762
 1502TIP3    H128701   1.679   1.926   7.308 -1.0102  1.6489  1.0622
 1502TIP3    H228702   1.602   1.982   7.190 -1.0412 -0.0336  0.2540
 1503TIP3   OH228703   0.897   1.195   7.977  0.1446 -0.0875  0.2850
 1503TIP3    H128704   0.982   1.151   7.986 -0.6363 -1.4284  1.6675
 1503TIP3    H228705   0.909   1.280   8.021  0.6961 -0.4002  0.7496
 1504TIP3   OH228706   4.832   4.704   8.508  0.2870 -0.2050  0.2916
 1504TIP3    H128707   4.852   4.620   8.468 -1.6472  0.1147 -1.5290
 1504TIP3    H228708   4.826   4.765   8.435  0.4932  1.2880  1.4597
 1505TIP3   OH228709   3.011   2.340   0.988 -0.0514 -0.0669  0.3855
 1505TIP3    H128710   2.921   2.308   0.988  0.0107 -0.4552 -2.3202
 1505TIP3    H228711   3.061   2.271   1.032 -0.8264 -0.7345  0.2353
 1506TIP3   OH228712   5.720   2.800   8.860 -0.0586  0.3787 -0.1397
 1506TIP3    H128713   5.745   2.728   8.802 -1.6397  0.5503 -1.1095
 1506TIP3    H228714   5.791   2.863   8.853  0.5040 -0.3005 -0.6683
 1507TIP3   OH228715   2.027   6.926   3.138 -0.3954  0.1397  0.0940
 1507TIP3    H128716   2.096   6.972   3.186 -2.2080  2.0233  1.0290
 1507TIP3    H228717   1.975   6.995   3.099 -1.0006 -1.2817 -1.7663
 1508TIP3   OH228718   2.638   1.394   0.707 -0.0981  0.3896  0.7925
 1508TIP3    H128719   2.571   1.462   0.696 -1.7720 -1.3668 -0.7838
 1508TIP3    H228720   2.614   1.350   0.789 -1.6057 -0.8750 -0.2596
 1509TIP3   OH228721   1.858   3.164   8.323 -0.1717 -0.0271 -0.1421
 1509TIP3    H128722   1.867   3.161   8.418  0.5618 -1.3489 -0.2231
 1509TIP3    H228723   1.801   3.090   8.302 -2.7190  1.9147 -0.5529
 1510TIP3   OH228724   0.870   6.530   0.187 -0.3058 -1.0772 -0.0679
 1510TIP3    H128725   0.849   6.609   0.238  1.6731  0.1713 -1.0411
 1510TIP3    H228726   0.823   6.543   0.104 -1.4594 -1.8688  0.4295
 1511TIP3   OH228727   5.397   6.681   9.904 -0.7345  0.3748  0.0461
 1511TIP3    H128728   5.485   6.699   9.938 -0.9131  0.6209  0.3816
 1511TIP3    H228729   5.343   6.669   9.982 -0.6752 -1.4586 -0.1478
 1512TIP3   OH228730   6.052   5.732   8.288 -0.0413 -0.0831  0.5447
 1512TIP3    H128731   6.050   5.817   8.244 -0.7137 -0.7861 -0.8378
 1512TIP3    H228732   6.135   5.732   8.336  0.3415  1.0430 -0.0751
 1513TIP3   OH228733   0.007   6.609   7.476 -0.6490  0.2798  0.1186
 1513TIP3    H128734  -0.086   6.592   7.489 -0.4674 -0.6124  0.3047
 1513TIP3    H228735   0.018   6.606   7.381 -1.3311  3.3521 -0.1604
 1514TIP3   OH228736   0.974   7.276   7.437 -0.1346 -0.4913  0.0339
 1514TIP3    H128737   0.897   7.225   7.461 -0.1162 -1.0236 -0.9789
 1514TIP3    H228738   1.048   7.223   7.467 -0.1456 -0.0791  0.8168
 1515TIP3   OH228739   3.832   6.707   2.904 -0.0520 -0.2639  0.0680
 1515TIP3    H128740   3.768   6.638   2.919  0.6029 -0.8315  0.3448
 1515TIP3    H228741   3.811   6.775   2.968 -1.5366  0.4133 -1.1003
 1516TIP3   OH228742   1.662   1.145   2.222  0.5919  0.3836  0.6029
 1516TIP3    H128743   1.709   1.062   2.220  2.7888  1.5658 -0.2324
 1516TIP3    H228744   1.592   1.131   2.285 -0.5400 -2.7940 -1.1464
 1517TIP3   OH228745   4.992   2.050   7.246  0.5856 -1.1797  0.0344
 1517TIP3    H128746   5.066   1.990   7.243  2.6991  1.1447  1.2937
 1517TIP3    H228747   5.029   2.135   7.221 -1.9131 -0.0918 -0.2777
 1518TIP3   OH228748   5.812   4.477   7.003 -0.1315  0.0880 -0.2104
 1518TIP3    H128749   5.764   4.552   7.038  0.8830  0.4330  0.4853
 1518TIP3    H228750   5.897   4.513   6.975  0.7682 -0.9359  1.0682
 1519TIP3   OH228751   3.500   5.405   8.626  0.0585 -0.1722 -0.1248
 1519TIP3    H128752   3.428   5.345   8.609 -0.9010  1.0562 -0.4735
 1519TIP3    H228753   3.574   5.348   8.649 -0.4252 -1.5454 -1.8395
 1520TIP3   OH228754   6.750   6.405   1.688  0.0220  0.2004  0.6460
 1520TIP3    H128755   6.811   6.359   1.744 -0.6211 -0.9028  0.4764
 1520TIP3    H228756   6.668   6.406   1.737 -0.4170 -0.3494 -0.0498
 1521TIP3   OH228757   2.366   6.673   8.695 -0.2501  0.0639  0.0309
 1521TIP3    H128758   2.451   6.690   8.737 -0.0427 -1.2730  0.2079
 1521TIP3    H228759   2.303   6.718   8.751  0.1139 -0.9796  1.3249
 1522TIP3   OH228760   0.049   5.482   0.345 -0.0939  0.0751  0.0142
 1522TIP3    H128761   0.079   5.478   0.435 -1.9304 -0.9397  0.6414
 1522TIP3    H228762   0.123   5.451   0.293  0.5921 -0.4521  1.2741
 1523TIP3   OH228763   5.421   3.230   8.442 -0.4077  0.4934  0.7275
 1523TIP3    H128764   5.449   3.316   8.411  1.2298  0.8131  2.8720
 1523TIP3    H228765   5.492   3.171   8.417 -1.2707 -0.1835 -0.2428
 1524TIP3   OH228766   4.765   7.188   7.419 -0.3560  0.4721  0.0549
 1524TIP3    H128767   4.740   7.096   7.412 -0.9720  0.7380 -1.9203
 1524TIP3    H228768   4.689   7.236   7.388  0.4497  1.5741 -0.2672
 1525TIP3   OH228769   7.159   1.507   7.191  0.0526  0.4419 -0.1117
 1525TIP3    H128770   7.086   1.485   7.133 -0.7495  2.2448  0.1369
 1525TIP3    H228771   7.197   1.423   7.215 -4.8634 -1.2156  3.5975
 1526TIP3   OH228772   0.167   0.100   7.775 -0.1574  0.0009  0.5057
 1526TIP3    H128773   0.158   0.014   7.733 -1.3968 -0.3322  1.4224
 1526TIP3    H228774   0.148   0.163   7.705  2.5568 -0.3404 -0.6791
 1527TIP3   OH228775   5.884   5.888   6.672 -0.3667  0.5655 -0.2991
 1527TIP3    H128776   5.815   5.828   6.644 -1.2086  0.5813  1.6105
 1527TIP3    H228777   5.838   5.959   6.716  0.7908  1.3084 -0.2368
 1528TIP3   OH228778   3.061   1.529   8.167  0.5764 -0.1050  0.1967
 1528TIP3    H128779   3.110   1.518   8.248 -0.6481 -1.0509  0.8415
 1528TIP3    H228780   3.128   1.537   8.099  1.6369 -1.5426  1.0105
 1529TIP3   OH228781   1.766   6.563   7.737  0.3955  0.0798  0.5163
 1529TIP3    H128782   1.710   6.627   7.783 -0.4117  0.8669 -1.4148
 1529TIP3    H228783   1.704   6.507   7.690  1.1707  0.6019 -1.2154
 1530TIP3   OH228784   4.690   3.174   7.540  0.6254  0.1670  0.6925
 1530TIP3    H128785   4.779   3.165   7.507  0.1837 -2.1320 -0.1195
 1530TIP3    H228786   4.688   3.118   7.618  0.2744  1.4374  1.6253
 1531TIP3   OH228787   2.993   5.100   9.645  0.1350 -0.1022 -0.0677
 1531TIP3    H128788   2.959   5.020   9.605 -0.1611  0.8930 -1.9633
 1531TIP3    H228789   2.917   5.157   9.654  0.5050  0.3524  0.2569
 1532TIP3   OH228790   6.128   5.899   1.509 -0.6282 -0.2803 -0.0200
 1532TIP3    H128791   6.174   5.816   1.498  0.0636 -0.1633  1.5846
 1532TIP3    H228792   6.129   5.914   1.604 -1.8119  0.9646 -0.1696
 1533TIP3   OH228793   4.195   2.955   9.117  0.3301  0.3669  0.5257
 1533TIP3    H128794   4.232   2.933   9.031 -0.3304 -0.0765  0.3485
 1533TIP3    H228795   4.128   3.021   9.098  1.7363  2.0242  0.9647
 1534TIP3   OH228796   4.165   5.545   2.263  0.6191 -0.4943  0.4274
 1534TIP3    H128797   4.172   5.606   2.336 -1.5786  0.1219  0.1765
 1534TIP3    H228798   4.185   5.460   2.301  1.2167  0.0313  1.3326
 1535TIP3   OH228799   3.887   6.319   6.967  0.8355  0.0196  0.3790
 1535TIP3    H128800   3.798   6.351   6.955  0.8033  0.0933  0.8051
 1535TIP3    H228801   3.935   6.353   6.892  0.3836 -0.4695 -0.1377
 1536TIP3   OH228802   4.489   6.776   9.050 -0.2335  0.3840  0.1078
 1536TIP3    H128803   4.463   6.705   8.991  1.6487  0.7909 -1.3208
 1536TIP3    H228804   4.522   6.844   8.991 -1.0810  2.0737  1.4904
 1537TIP3   OH228805   1.608   6.575   0.512  0.2442 -0.5823 -0.2021
 1537TIP3    H128806   1.530   6.570   0.457  1.1934  1.8933 -1.9555
 1537TIP3    H228807   1.599   6.658   0.559  1.4265 -0.6789  0.2386
 1538TIP3   OH228808   3.323   1.234   7.983 -0.6174  0.2935  0.2806
 1538TIP3    H128809   3.419   1.227   7.982 -0.6567 -0.3545  0.5291
 1538TIP3    H228810   3.306   1.327   7.994 -0.0220  0.5405 -0.7851
 1539TIP3   OH228811   5.693   5.643   8.062  0.0283 -0.4942 -0.9304
 1539TIP3    H128812   5.748   5.651   8.139  3.0675  0.0334 -2.9857
 1539TIP3    H228813   5.622   5.706   8.076  1.9336  1.4955  0.3115
 1540TIP3   OH228814   4.064   0.055   2.226  0.4903  0.7873  0.0335
 1540TIP3    H128815   3.982   0.059   2.276 -0.7670  0.9458 -1.9365
 1540TIP3    H228816   4.050   0.115   2.152  1.5753 -0.7046 -1.4569
 1541TIP3   OH228817   4.309   6.242   8.883 -0.3016  0.0713  0.6902
 1541TIP3    H128818   4.235   6.288   8.842  0.6667  0.3028 -0.8567
 1541TIP3    H228819   4.304   6.153   8.848  0.7540  0.3719 -0.2755
 1542TIP3   OH228820   2.027   2.641   8.364  0.4083  0.0536  0.0345
 1542TIP3    H128821   1.976   2.562   8.379 -1.3908  1.1291 -0.1194
 1542TIP3    H228822   2.082   2.621   8.289 -1.9642 -0.2156 -1.7335
 1543TIP3   OH228823   4.271   4.677   7.193 -0.2811  0.4407 -0.5077
 1543TIP3    H128824   4.359   4.706   7.169 -0.0375 -1.0724 -1.5646
 1543TIP3    H228825   4.218   4.697   7.116  0.0270 -2.3443 -1.5612
 1544TIP3   OH228826   5.758   2.952   7.089 -0.2299 -0.2708 -0.1513
 1544TIP3    H128827   5.666   2.951   7.115  0.3611 -1.4470  2.1156
 1544TIP3    H228828   5.788   3.041   7.111 -0.7007 -0.0197 -0.5025
 1545TIP3   OH228829   2.099   6.290   9.267 -0.9299 -0.4505  0.0952
 1545TIP3    H128830   2.115   6.384   9.255 -1.6575 -0.4107 -0.6224
 1545TIP3    H228831   2.180   6.248   9.239 -0.7727 -0.0600 -0.0387
 1546TIP3   OH228832   3.798   2.335   7.931 -0.2557 -0.3752 -0.1183
 1546TIP3    H128833   3.803   2.400   7.861  2.0659  0.0219  0.3372
 1546TIP3    H228834   3.705   2.311   7.935 -0.6546  0.4640 -2.5008
 1547TIP3   OH228835   1.419   4.469   2.831  0.0349 -0.6507 -0.2180
 1547TIP3    H128836   1.406   4.563   2.819 -1.5945 -0.3202  2.9966
 1547TIP3    H228837   1.334   4.431   2.810  0.6576 -1.4415 -1.4054
 1548TIP3   OH228838   6.109   1.408   2.389  0.3024  0.2366  0.2032
 1548TIP3    H128839   6.113   1.326   2.439  0.5028 -1.1730 -1.9873
 1548TIP3    H228840   6.194   1.449   2.403  0.4918 -0.3155  0.7307
 1549TIP3   OH228841   4.971   2.788   0.040 -0.0255  0.3656 -0.8034
 1549TIP3    H128842   4.955   2.881   0.029 -0.6545  0.2287 -1.1071
 1549TIP3    H228843   5.023   2.764  -0.037  0.7461  0.6019 -0.3603
 1550TIP3   OH228844   4.278   4.382   7.835  0.2036  0.0828 -0.4622
 1550TIP3    H128845   4.373   4.374   7.827  0.2537 -2.3154  1.4323
 1550TIP3    H228846   4.244   4.339   7.757  0.7423 -2.5363  0.6365
 1551TIP3   OH228847   0.125   3.533   7.778  0.7961  0.0525  0.2057
 1551TIP3    H128848   0.069   3.457   7.796  0.4923  0.2437  0.0724
 1551TIP3    H228849   0.161   3.515   7.691  1.4685 -0.3846  0.5558
 1552TIP3   OH228850   3.809   3.464   0.807 -0.2517  0.0249  0.0062
 1552TIP3    H128851   3.881   3.456   0.870 -1.8307 -2.1894  1.6976
 1552TIP3    H228852   3.730   3.455   0.860 -1.8757  2.8230 -1.7224
 1553TIP3   OH228853   4.151   0.975   0.777 -0.1484 -0.2985 -0.0435
 1553TIP3    H128854   4.236   0.942   0.745 -0.2159 -0.6407  0.1215
 1553TIP3    H228855   4.104   0.896   0.803 -1.4136 -0.3492 -2.2446
 1554TIP3   OH228856   3.230   4.375   8.859 -0.7694 -0.4475 -0.2393
 1554TIP3    H128857   3.273   4.333   8.785 -0.6153 -2.2814  0.8454
 1554TIP3    H228858   3.230   4.309   8.928 -0.9749  1.1764  1.3936
 1555TIP3   OH228859   4.448   0.574   9.316 -0.5617  0.2135  0.3951
 1555TIP3    H128860   4.490   0.491   9.294 -1.2988 -0.2951  0.8762
 1555TIP3    H228861   4.416   0.562   9.405 -1.7551  0.5640  0.0342
 1556TIP3   OH228862   5.338   0.741   1.010  0.5207 -0.7289  0.5325
 1556TIP3    H128863   5.393   0.799   0.957 -0.6632 -1.0840 -1.1863
 1556TIP3    H228864   5.273   0.798   1.049 -0.0197 -0.7355 -0.3289
 1557TIP3   OH228865   3.003   1.018   9.015  0.5203 -0.2090  0.0579
 1557TIP3    H128866   3.079   1.073   8.997  1.9581 -1.3537  2.1757
 1557TIP3    H228867   3.021   0.935   8.971 -1.1606  0.5504 -2.2535
 1558TIP3   OH228868   3.820   0.987   8.453  0.6045 -0.4177  0.1129
 1558TIP3    H128869   3.841   0.957   8.365  0.9620  0.4196 -0.1030
 1558TIP3    H228870   3.731   1.020   8.447  0.7753  0.0215 -0.0416
 1559TIP3   OH228871   2.677   0.495   0.545  0.5402  0.4927 -0.5612
 1559TIP3    H128872   2.688   0.589   0.531 -1.9532  0.8504 -0.5385
 1559TIP3    H228873   2.745   0.455   0.492  3.1052  2.3067  1.0876
 1560TIP3   OH228874   6.065   6.355   9.171  0.3461  0.6219  0.5087
 1560TIP3    H128875   6.069   6.259   9.169  1.5775  0.6516  0.9986
 1560TIP3    H228876   5.973   6.374   9.192  0.1576 -0.4499  0.7305
 1561TIP3   OH228877   3.183   2.917   1.429 -0.0362 -0.0451 -0.5794
 1561TIP3    H128878   3.262   2.863   1.434  2.2827  3.0584 -0.4498
 1561TIP3    H228879   3.144   2.895   1.345  0.2692 -2.5040 -0.1417
 1562TIP3   OH228880   5.626   4.187   8.321  0.1117 -0.6626 -0.1245
 1562TIP3    H128881   5.707   4.138   8.302 -0.5017 -1.2146 -1.3923
 1562TIP3    H228882   5.657   4.272   8.354  1.2340 -0.6262 -1.1919
 1563TIP3   OH228883   2.734   3.325   9.295 -0.6420  0.1300 -0.5514
 1563TIP3    H128884   2.753   3.283   9.378 -1.0892 -1.2149 -1.0972
 1563TIP3    H228885   2.642   3.351   9.301 -0.7542 -0.2145 -0.7058
 1564TIP3   OH228886   2.136   6.183   2.805  0.1819 -0.2381  0.0970
 1564TIP3    H128887   2.183   6.221   2.880  0.7361 -3.5315  1.6202
 1564TIP3    H228888   2.194   6.197   2.731  1.3765 -0.0903  1.0194
 1565TIP3   OH228889   2.272   0.563   0.542  0.3176 -0.0222 -0.2837
 1565TIP3    H128890   2.308   0.647   0.514 -0.2774 -0.3813 -2.2464
 1565TIP3    H228891   2.201   0.586   0.602  0.8195  0.8132  0.0084
 1566TIP3   OH228892   0.849   3.645   1.366 -0.1747  0.9353 -0.9107
 1566TIP3    H128893   0.861   3.722   1.422 -0.9213  0.0022  0.5815
 1566TIP3    H228894   0.920   3.586   1.392  0.4378  1.1141 -2.0975
 1567TIP3   OH228895   1.758   6.798   9.015 -0.2489 -0.1170 -0.1021
 1567TIP3    H128896   1.840   6.844   9.033 -0.4257 -0.6546  2.5378
 1567TIP3    H228897   1.690   6.864   9.030 -0.3601 -0.1718 -0.3653
 1568TIP3   OH228898   0.395   3.827   6.650 -0.1349  1.3060 -0.3805
 1568TIP3    H128899   0.393   3.811   6.744 -0.5464 -1.6232 -0.8136
 1568TIP3    H228900   0.303   3.840   6.626 -0.7528 -2.9230 -0.9924
 1569TIP3   OH228901   1.931   4.639   0.041 -0.3370  0.0145 -0.2387
 1569TIP3    H128902   1.911   4.727   0.072  0.2816 -0.3828  1.3931
 1569TIP3    H228903   2.014   4.617   0.084  1.2031 -0.1730 -3.0856
 1570TIP3   OH228904   7.245   2.175   8.931 -0.1693 -0.3536  0.3708
 1570TIP3    H128905   7.215   2.115   9.000 -0.0082  0.1120  0.8548
 1570TIP3    H228906   7.305   2.235   8.976 -1.8335  1.4330  0.3390
 1571TIP3   OH228907   4.576   3.010   0.847 -0.3209 -0.5304 -0.2835
 1571TIP3    H128908   4.576   3.015   0.943  0.0597 -0.5582 -0.2796
 1571TIP3    H228909   4.634   2.937   0.827  0.0789 -0.1474 -0.5504
 1572TIP3   OH228910   0.046   0.786   1.584 -0.5164 -0.1535 -0.1644
 1572TIP3    H128911   0.050   0.790   1.679 -1.4185 -1.0272 -0.0628
 1572TIP3    H228912  -0.048   0.784   1.564 -0.3431 -0.9894 -1.0010
 1573TIP3   OH228913   2.460   6.149   8.843 -0.4834  0.6243  0.6734
 1573TIP3    H128914   2.497   6.153   8.931  1.8254 -0.3830 -0.1861
 1573TIP3    H228915   2.535   6.139   8.786 -2.0439 -0.4343 -1.2971
 1574TIP3   OH228916   2.304   2.414   1.084  0.0877 -0.1837 -0.3899
 1574TIP3    H128917   2.271   2.339   1.133 -0.5382 -0.6987 -1.5703
 1574TIP3    H228918   2.291   2.391   0.992 -0.2184  1.4148 -0.7778
 1575TIP3   OH228919   3.026   2.324   9.933  0.4013 -0.1387  0.4482
 1575TIP3    H128920   3.062   2.373  10.007  1.7674 -1.9039  1.0050
 1575TIP3    H228921   3.088   2.341   9.861  1.4981 -1.8257  0.9406
 1576TIP3   OH228922   6.764   2.353   8.937  0.0298 -0.4592 -0.1697
 1576TIP3    H128923   6.851   2.313   8.932  0.1352 -0.1389 -1.0426
 1576TIP3    H228924   6.780   2.446   8.920 -0.2480 -0.0656  1.5634
 1577TIP3   OH228925   4.770   0.502   8.086  0.5172  0.2342 -0.2325
 1577TIP3    H128926   4.781   0.598   8.086 -0.2852  0.3294  0.0272
 1577TIP3    H228927   4.689   0.487   8.037  1.3150 -0.4039 -1.4065
 1578TIP3   OH228928   1.387   1.451   2.045  0.2298 -0.8978  0.2580
 1578TIP3    H128929   1.407   1.420   2.134  2.8409 -0.0900  0.0292
 1578TIP3    H228930   1.420   1.383   1.987 -1.2187 -1.2932 -0.1536
 1579TIP3   OH228931   7.002   0.626   6.775  0.8324  0.4761  0.2382
 1579TIP3    H128932   6.968   0.561   6.837  1.9244  0.4453  0.8339
 1579TIP3    H228933   6.943   0.701   6.784 -1.5374 -0.9677 -1.7192
 1580TIP3   OH228934   2.322   1.915   8.929  0.4187  0.6895 -0.4294
 1580TIP3    H128935   2.290   1.913   8.839 -1.5041 -0.1840  0.2298
 1580TIP3    H228936   2.277   1.989   8.969 -0.3973 -0.2180  0.3689
 1581TIP3   OH228937   3.560   1.375   7.365  0.2550 -0.1411  0.2172
 1581TIP3    H128938   3.508   1.455   7.378  1.8090  0.9727 -0.1940
 1581TIP3    H228939   3.533   1.343   7.279  0.5124  0.6349 -0.1568
 1582TIP3   OH228940   2.291   6.560   8.452  0.3172 -0.4547 -0.3106
 1582TIP3    H128941   2.373   6.536   8.410  0.5923  1.8613 -1.2535
 1582TIP3    H228942   2.316   6.601   8.535 -0.1595 -3.4535  1.4880
 1583TIP3   OH228943   1.795   0.039   0.267  0.3507  0.5706 -0.1000
 1583TIP3    H128944   1.858  -0.032   0.281  1.3170  1.2159 -1.0675
 1583TIP3    H228945   1.736   0.006   0.200 -0.2087  0.0643  0.6241
 1584TIP3   OH228946   0.461   2.148   0.535  0.5713 -0.0290  0.2454
 1584TIP3    H128947   0.404   2.126   0.609  0.5440  0.4830  0.3782
 1584TIP3    H228948   0.440   2.239   0.515 -1.0503 -0.7590 -1.8217
 1585TIP3   OH228949   3.753   6.632   9.177 -0.1348 -0.1772  0.0134
 1585TIP3    H128950   3.803   6.568   9.127 -1.1869 -0.2854 -0.9318
 1585TIP3    H228951   3.746   6.593   9.265 -0.6567 -1.3278 -0.5116
 1586TIP3   OH228952   1.112   7.193   9.461  0.2803 -0.3213  0.3066
 1586TIP3    H128953   1.085   7.217   9.372  1.8038 -0.0324 -0.1098
 1586TIP3    H228954   1.045   7.132   9.491 -2.9875  3.2282  0.8724
 1587TIP3   OH228955   6.459   6.260   3.097  0.3181 -0.3457  0.0226
 1587TIP3    H128956   6.368   6.286   3.111 -0.4743 -2.4349 -0.7711
 1587TIP3    H228957   6.469   6.180   3.149  0.9219 -1.4949 -1.7527
 1588TIP3   OH228958   3.305   5.377   8.949 -0.2766  0.3153  0.9431
 1588TIP3    H128959   3.245   5.306   8.925  1.2147 -0.6123 -0.1829
 1588TIP3    H228960   3.318   5.366   9.043 -0.4979 -0.5583  0.8795
 1589TIP3   OH228961   3.615   3.605   2.397  0.7351 -0.2478 -0.2954
 1589TIP3    H128962   3.702   3.581   2.364  1.2094  0.7677  0.1590
 1589TIP3    H228963   3.593   3.535   2.459  0.9122 -0.8842 -0.9431
 1590TIP3   OH228964   2.561   4.556   8.011  0.5146  0.5716  0.0571
 1590TIP3    H128965   2.595   4.636   7.971 -0.9150  1.8856  1.3535
 1590TIP3    H228966   2.518   4.510   7.939 -0.5244  2.0367 -0.2894
 1591TIP3   OH228967   5.680   0.278   9.723 -0.1387 -0.5610  0.2579
 1591TIP3    H128968   5.647   0.355   9.677  1.8082  0.3334  0.2555
 1591TIP3    H228969   5.743   0.239   9.662 -0.2393 -1.4823  0.7218
 1592TIP3   OH228970   0.205   4.754   0.555 -0.6105 -0.0155 -0.1299
 1592TIP3    H128971   0.162   4.779   0.474 -0.9538 -1.1721 -0.3263
 1592TIP3    H228972   0.298   4.771   0.539 -0.7490  0.3760 -0.5270
 1593TIP3   OH228973   3.127   5.730   6.306 -0.5360 -0.3310 -0.2689
 1593TIP3    H128974   3.089   5.728   6.218  1.1410 -1.0891 -1.0349
 1593TIP3    H228975   3.055   5.756   6.363 -1.4326  1.1441 -1.9751
 1594TIP3   OH228976   5.620   4.825   0.929  0.5078  0.1437  0.3809
 1594TIP3    H128977   5.624   4.906   0.979 -2.6268  0.6159  0.0688
 1594TIP3    H228978   5.592   4.759   0.993  0.0614 -0.0127  0.0361
 1595TIP3   OH228979   1.286   5.468   0.112 -0.1216 -0.2319 -0.0734
 1595TIP3    H128980   1.351   5.427   0.055 -0.4137 -1.3454  0.3651
 1595TIP3    H228981   1.241   5.395   0.153 -1.9619  0.5030 -0.6909
 1596TIP3   OH228982   6.443   0.568   7.724  0.1059  0.9222  0.0625
 1596TIP3    H128983   6.492   0.522   7.656 -2.3785 -1.7751 -0.1227
 1596TIP3    H228984   6.472   0.529   7.806 -1.2454 -0.3467 -0.0145
 1597TIP3   OH228985   5.139   2.404   9.260  0.1280  0.3118 -0.7168
 1597TIP3    H128986   5.075   2.368   9.198 -0.3043  0.4925 -0.3841
 1597TIP3    H228987   5.165   2.487   9.222  0.2004  0.2164 -0.8769
 1598TIP3   OH228988   3.038   1.877   0.478  0.9086  0.7552  0.1439
 1598TIP3    H128989   3.123   1.909   0.446  0.9925 -0.4297 -0.9054
 1598TIP3    H228990   2.992   1.849   0.399 -0.8523  2.2018  0.5891
 1599TIP3   OH228991   2.834   1.409   1.334 -0.4717  0.2991 -0.0134
 1599TIP3    H128992   2.917   1.362   1.330  0.1821  1.4594 -0.2424
 1599TIP3    H228993   2.840   1.461   1.414 -0.3674  1.4832 -0.7704
 1600TIP3   OH228994   5.190   5.193   1.658  0.6223 -0.5992 -0.6663
 1600TIP3    H128995   5.265   5.201   1.716  0.5685 -1.3010 -0.4895
 1600TIP3    H228996   5.177   5.281   1.623 -1.3464  0.6883  2.8415
 1601TIP3   OH228997   6.035   2.807   9.791  0.3377 -0.1826  0.6250
 1601TIP3    H128998   5.976   2.826   9.864  2.3635 -1.6647  2.8089
 1601TIP3    H228999   6.075   2.892   9.770 -0.3530  0.2848  1.1470
 1602TIP3   OH229000   2.509   2.295   1.367 -0.2010  0.1407 -0.3074
 1602TIP3    H129001   2.556   2.304   1.450 -0.5120 -0.7862 -0.0256
 1602TIP3    H229002   2.428   2.248   1.390 -0.0016 -0.6670 -1.2325
 1603TIP3   OH229003   0.886   5.087   1.506  0.8157  0.1453  0.3353
 1603TIP3    H129004   0.968   5.094   1.457  2.0165  1.6239  2.4091
 1603TIP3    H229005   0.818   5.109   1.441  2.0216 -0.9540 -1.3808
 1604TIP3   OH229006   6.145   5.077   7.679 -0.5126  0.2212 -0.6064
 1604TIP3    H129007   6.210   5.092   7.747  0.2703 -3.0494 -0.4617
 1604TIP3    H229008   6.061   5.077   7.725  0.0464 -2.5588  0.5998
 1605TIP3   OH229009   2.490   3.084   9.760 -0.3745 -0.1510  0.1303
 1605TIP3    H129010   2.452   3.111   9.676  0.1087  0.3950  0.0782
 1605TIP3    H229011   2.533   3.163   9.793  3.4533 -1.4236 -1.2954
 1606TIP3   OH229012   5.584   1.088   8.398 -0.0688 -0.4622 -0.0537
 1606TIP3    H129013   5.489   1.094   8.396 -0.1410 -1.3801  0.2140
 1606TIP3    H229014   5.610   1.145   8.470 -0.3830  0.0673 -0.3509
 1607TIP3   OH229015   7.011   3.546   7.404 -0.2596  0.4267  0.3489
 1607TIP3    H129016   6.964   3.608   7.347 -1.5305 -0.5944  0.2278
 1607TIP3    H229017   7.063   3.601   7.462 -0.7669  1.5815 -0.2635
 1608TIP3   OH229018   1.718   3.779   2.440 -0.4473  0.0850 -0.0247
 1608TIP3    H129019   1.737   3.695   2.482  0.6146 -1.6504 -3.5535
 1608TIP3    H229020   1.630   3.801   2.469 -0.2120 -1.4808  2.1251
 1609TIP3   OH229021   2.698   5.436   2.021 -0.0737 -0.1407 -0.1073
 1609TIP3    H129022   2.750   5.359   1.999 -0.3398  0.1736 -1.9694
 1609TIP3    H229023   2.758   5.510   2.012 -0.1199 -0.0198  0.5258
 1610TIP3   OH229024   0.279   2.545   9.073  0.6465  0.0617 -0.2167
 1610TIP3    H129025   0.322   2.591   9.000  1.4939  1.4833  1.1190
 1610TIP3    H229026   0.347   2.537   9.140 -0.0747 -1.3356  0.4041
 1611TIP3   OH229027   1.178   6.433   7.856  0.3438  0.0497  0.5910
 1611TIP3    H129028   1.126   6.510   7.879 -0.2316 -0.9225  2.9153
 1611TIP3    H229029   1.263   6.449   7.897  0.9514  0.3577 -0.7484
 1612TIP3   OH229030   2.537   1.356   0.113  0.4010  0.3253 -0.1932
 1612TIP3    H129031   2.563   1.273   0.072 -1.0917  0.4807 -1.5486
 1612TIP3    H229032   2.618   1.391   0.150  1.6063 -0.4166 -1.9843
 1613TIP3   OH229033   3.273   3.178   8.242 -0.7480 -0.2222 -0.2584
 1613TIP3    H129034   3.243   3.183   8.151 -3.1433  1.9978  0.5150
 1613TIP3    H229035   3.242   3.259   8.282  0.3031 -1.0711  2.5609
 1614TIP3   OH229036   2.446   5.219   1.986 -0.5962 -0.2607 -0.9176
 1614TIP3    H129037   2.474   5.211   1.895 -3.4201 -0.7396 -1.8349
 1614TIP3    H229038   2.514   5.173   2.036  0.5736 -0.7452 -2.8356
 1615TIP3   OH229039   5.408   4.927   8.878  0.1018 -0.3952  0.2669
 1615TIP3    H129040   5.334   4.884   8.921 -0.6787 -1.0953 -1.6710
 1615TIP3    H229041   5.416   4.882   8.794  1.9158  0.5514 -0.1111
 1616TIP3   OH229042   4.266   0.162   0.676  0.6394 -0.5316  0.4910
 1616TIP3    H129043   4.193   0.157   0.614 -0.5651 -1.8951  1.9546
 1616TIP3    H229044   4.343   0.180   0.621 -0.7383  0.9023 -1.0955
 1617TIP3   OH229045   6.094   2.819   0.370 -0.4017 -0.6007  0.2902
 1617TIP3    H129046   6.156   2.800   0.440 -0.7250  0.1356  0.7978
 1617TIP3    H229047   6.023   2.866   0.414  0.1215  1.2985 -0.7495
 1618TIP3   OH229048   3.172   4.676   9.687 -0.7888  0.4267  0.0242
 1618TIP3    H129049   3.125   4.627   9.754  0.1827  1.2500  1.3877
 1618TIP3    H229050   3.106   4.730   9.644 -1.2014  1.2430  1.6032
 1619TIP3   OH229051   6.681   1.526   0.771 -0.0216 -0.0274 -0.3877
 1619TIP3    H129052   6.706   1.611   0.735 -0.4875  0.2601 -0.0443
 1619TIP3    H229053   6.757   1.470   0.755  1.0728  0.9494  1.1282
 1620TIP3   OH229054   0.450   6.444   1.566  0.0855  0.2954 -0.0067
 1620TIP3    H129055   0.476   6.521   1.516 -0.9896 -0.7906 -2.3918
 1620TIP3    H229056   0.434   6.376   1.500 -1.7092 -1.1523  1.7740
 1621TIP3   OH229057   1.535   5.011   2.225 -0.1618 -0.3082 -0.0150
 1621TIP3    H129058   1.560   5.042   2.138  0.4765 -1.4261 -0.2458
 1621TIP3    H229059   1.617   4.989   2.268 -0.5226 -0.5144  0.5865
 1622TIP3   OH229060   5.394   3.901   8.493 -0.1135 -0.1156 -0.3790
 1622TIP3    H129061   5.345   3.836   8.543  0.2819 -0.8418 -0.9247
 1622TIP3    H229062   5.472   3.855   8.462  0.1660  0.6102 -0.7937
 1623TIP3   OH229063   4.022   1.174   0.653  0.4717  0.2690  0.2005
 1623TIP3    H129064   4.070   1.101   0.692  1.5607  0.1866 -1.2129
 1623TIP3    H229065   4.057   1.181   0.564 -0.7575  1.4884 -0.2221
 1624TIP3   OH229066   4.750   6.144   7.616  0.6662 -0.1145 -0.0652
 1624TIP3    H129067   4.705   6.064   7.644 -1.7667  0.7512 -1.2221
 1624TIP3    H229068   4.797   6.174   7.694  1.5039 -2.5334  0.4405
 1625TIP3   OH229069   5.035   6.317   1.298 -0.0753 -0.0134 -0.5695
 1625TIP3    H129070   4.991   6.334   1.214  1.5806  0.8978 -1.2951
 1625TIP3    H229071   5.124   6.292   1.274  1.0256  2.1871  0.9204
 1626TIP3   OH229072   2.152   4.411   0.049 -0.4535  0.5535 -0.1046
 1626TIP3    H129073   2.226   4.469   0.031 -0.1609  0.3763  0.5215
 1626TIP3    H229074   2.162   4.387   0.141 -0.6150 -0.4304 -0.3357
 1627TIP3   OH229075   5.451   0.045   9.402 -0.3901 -0.1207  0.1846
 1627TIP3    H129076   5.488  -0.033   9.445  0.1056 -0.2592 -0.4662
 1627TIP3    H229077   5.528   0.100   9.384 -0.6286  0.0789 -0.2240
 1628TIP3   OH229078   4.671   4.597   8.190  0.7254  0.4049  0.2295
 1628TIP3    H129079   4.650   4.517   8.238  0.5188  0.1544 -0.2756
 1628TIP3    H229080   4.743   4.573   8.133  0.4243  0.4787 -0.1887
 1629TIP3   OH229081   4.822   2.320   7.521 -0.0688  0.0269  1.1471
 1629TIP3    H129082   4.752   2.273   7.567  0.2963 -0.5188  1.1570
 1629TIP3    H229083   4.903   2.292   7.565  0.3057 -0.6850  0.0395
 1630TIP3   OH229084   5.813   5.827   1.665 -0.5968 -0.2770 -0.1505
 1630TIP3    H129085   5.811   5.819   1.570  1.3887 -1.2026 -0.1804
 1630TIP3    H229086   5.825   5.921   1.681  3.1617 -0.4450 -1.0701
 1631TIP3   OH229087   4.486   3.117   1.700  0.4880  0.9671 -0.3632
 1631TIP3    H129088   4.516   3.193   1.750  0.6922  0.3720  0.4426
 1631TIP3    H229089   4.567   3.081   1.662  0.5657  0.4455  0.2760
 1632TIP3   OH229090   6.695   0.159   9.112 -0.2151 -0.4046 -0.0357
 1632TIP3    H129091   6.750   0.099   9.162 -1.0128 -0.9331  0.2195
 1632TIP3    H229092   6.678   0.114   9.029 -1.8469 -1.1224  0.6408
 1633TIP3   OH229093   0.706   2.808   9.823 -0.0120  0.1059  0.4397
 1633TIP3    H129094   0.639   2.775   9.763 -0.2913 -0.9106  1.2560
 1633TIP3    H229095   0.670   2.890   9.857 -0.3584  0.1106  0.0660
 1634TIP3   OH229096   6.570   5.689   8.171 -0.0233  0.2599  0.3487
 1634TIP3    H129097   6.652   5.716   8.212  0.7312 -1.7827  0.2742
 1634TIP3    H229098   6.529   5.630   8.234  0.5762 -1.9723 -1.2140
 1635TIP3   OH229099   3.320   6.306   2.614  1.0061 -0.3237  0.1645
 1635TIP3    H129100   3.325   6.290   2.520 -0.2663 -0.9956  0.1903
 1635TIP3    H229101   3.298   6.399   2.622 -0.3118 -0.5805 -0.2631
 1636TIP3   OH229102   0.394   1.873   8.857 -0.3926 -0.0592 -0.0899
 1636TIP3    H129103   0.324   1.808   8.844 -1.4055  1.1721 -0.9987
 1636TIP3    H229104   0.378   1.908   8.945  0.1687 -1.0236  0.4118
 1637TIP3   OH229105   1.013   3.773   0.688  0.0133  0.2551 -0.3576
 1637TIP3    H129106   0.953   3.704   0.661 -0.5768  0.2629  0.8644
 1637TIP3    H229107   1.077   3.778   0.617 -0.7738 -0.5323 -1.1505
 1638TIP3   OH229108   2.398   5.329   9.303  0.4171 -0.0561  0.3544
 1638TIP3    H129109   2.334   5.383   9.258  1.2220  0.9143  0.3281
 1638TIP3    H229110   2.412   5.373   9.387  1.1647 -0.1543  0.2917
 1639TIP3   OH229111   3.476   6.223   1.160  0.6159 -0.2306  0.1863
 1639TIP3    H129112   3.559   6.212   1.113  0.1183 -2.8942 -0.1970
 1639TIP3    H229113   3.431   6.293   1.112  1.2917 -0.9897 -1.6517
 1640TIP3   OH229114   4.348   3.150   2.017 -0.2158  0.1365 -0.5075
 1640TIP3    H129115   4.338   3.135   2.111  1.2468 -1.6960 -0.5751
 1640TIP3    H229116   4.266   3.118   1.979 -0.7413  0.7159  0.1245
 1641TIP3   OH229117   2.864   0.182   0.082  0.1360  0.2172  0.3197
 1641TIP3    H129118   2.783   0.135   0.103 -0.1102 -0.6169 -2.1473
 1641TIP3    H229119   2.919   0.116   0.039  0.9345  1.5035 -0.6873
 1642TIP3   OH229120   6.444   4.367   9.231 -0.4389  0.4353  0.2643
 1642TIP3    H129121   6.458   4.461   9.225 -2.4189  1.0583  3.0929
 1642TIP3    H229122   6.415   4.341   9.144 -1.5303  2.8216 -0.1700
 1643TIP3   OH229123   3.341   2.262   7.893  0.0841 -0.4432  0.5227
 1643TIP3    H129124   3.428   2.233   7.919  0.1360 -0.7127  0.0527
 1643TIP3    H229125   3.308   2.193   7.835  0.1833  0.3743 -0.5514
 1644TIP3   OH229126   2.064   0.129   7.387  0.5655  0.0158 -0.3119
 1644TIP3    H129127   2.138   0.187   7.371  0.9214 -0.8619 -2.1243
 1644TIP3    H229128   2.076   0.099   7.477  1.9269  0.5499 -0.2978
 1645TIP3   OH229129   3.715   0.318   0.995 -0.4222 -0.5767  0.2402
 1645TIP3    H129130   3.717   0.379   1.069 -0.2418 -0.8316  0.4469
 1645TIP3    H229131   3.641   0.260   1.012  0.3132 -1.3729  0.8234
 1646TIP3   OH229132   1.757   6.864   8.318 -0.4136 -0.6029  0.0028
 1646TIP3    H129133   1.744   6.770   8.302  0.0697 -0.5463 -0.7504
 1646TIP3    H229134   1.726   6.877   8.408  0.3174 -1.6489  0.4357
 1647TIP3   OH229135   3.954   1.648   8.990  0.5482  0.0722  0.4037
 1647TIP3    H129136   3.877   1.654   9.046  1.6561  2.4192  1.8420
 1647TIP3    H229137   4.004   1.575   9.025  0.6501  0.7616  1.7608
 1648TIP3   OH229138   2.574   5.455   8.710  0.6054  0.5964  0.4084
 1648TIP3    H129139   2.534   5.491   8.789 -0.3628 -1.8119  1.1093
 1648TIP3    H229140   2.503   5.457   8.645 -0.6655 -3.0126  1.4475
 1649TIP3   OH229141   2.228   1.294   1.688 -0.5901  0.3749  0.0910
 1649TIP3    H129142   2.161   1.319   1.624 -0.3788 -0.8233 -0.6258
 1649TIP3    H229143   2.218   1.200   1.697 -0.3198  0.4594  1.5148
 1650TIP3   OH229144   0.168   4.487   9.853 -0.4588  0.1726  0.9599
 1650TIP3    H129145   0.207   4.536   9.781 -2.0186  0.4288  0.2368
 1650TIP3    H229146   0.090   4.447   9.814  1.0930 -3.5695  1.2634
 1651TIP3   OH229147   1.123   5.252   7.703 -0.2956 -0.0507  0.1513
 1651TIP3    H129148   1.160   5.199   7.632  0.1457  0.6757 -0.1813
 1651TIP3    H229149   1.031   5.227   7.706 -0.2921 -0.1923 -0.6028
 1652TIP3   OH229150   6.994   5.524   0.583 -0.3900  0.1283  0.0422
 1652TIP3    H129151   7.074   5.566   0.615 -0.9210  0.5248  0.8813
 1652TIP3    H229152   6.949   5.592   0.535 -0.5336  0.0925  0.1260
 1653TIP3   OH229153   1.893   2.417   7.152  0.0860  0.0443 -0.1479
 1653TIP3    H129154   1.806   2.432   7.190  0.2575  0.7748 -0.0282
 1653TIP3    H229155   1.875   2.383   7.064 -0.4068  3.0824 -1.3481
 1654TIP3   OH229156   0.487   6.382   2.153  0.5210  0.0602  0.0762
 1654TIP3    H129157   0.565   6.332   2.131  0.8708  0.3615  0.6045
 1654TIP3    H229158   0.461   6.423   2.071  1.2797  0.4444  0.0172
 1655TIP3   OH229159   3.839   1.343   8.324  0.4719  0.5334 -0.4350
 1655TIP3    H129160   3.778   1.269   8.323  0.5962  0.4051  0.3974
 1655TIP3    H229161   3.826   1.386   8.240 -2.8256  2.1674  0.7501
 1656TIP3   OH229162   0.337   5.757   1.516 -0.1142  0.1283  0.0731
 1656TIP3    H129163   0.273   5.825   1.494 -0.0155  0.2764  0.2388
 1656TIP3    H229164   0.381   5.739   1.433  0.4147  0.8550  0.1856
 1657TIP3   OH229165   1.274   3.311   9.044  0.1510 -0.4184 -0.0936
 1657TIP3    H129166   1.201   3.258   9.012 -0.1463 -0.0652 -0.0077
 1657TIP3    H229167   1.256   3.399   9.011 -0.4043  0.0594  1.4114
 1658TIP3   OH229168   3.454   4.830   6.997  0.0579 -0.0260  0.5543
 1658TIP3    H129169   3.487   4.747   6.961 -1.8765 -0.4570 -0.3188
 1658TIP3    H229170   3.366   4.839   6.961  0.4620  2.8042  0.0249
 1659TIP3   OH229171   1.197   2.118   0.265 -0.5183 -0.0156 -0.7120
 1659TIP3    H129172   1.177   2.176   0.192  0.5685  1.3194  0.0162
 1659TIP3    H229173   1.114   2.073   0.284 -1.1012  0.4885 -1.9777
 1660TIP3   OH229174   3.100   0.225   9.524 -1.1495 -0.4862 -0.1858
 1660TIP3    H129175   3.180   0.275   9.506 -0.5225 -2.2266 -2.7326
 1660TIP3    H229176   3.034   0.291   9.542  0.1960  1.1529 -0.9890
 1661TIP3   OH229177   5.005   2.922   8.083 -0.7537  0.4076  0.3291
 1661TIP3    H129178   5.089   2.880   8.101 -0.0407  1.9884  0.9169
 1661TIP3    H229179   4.985   2.970   8.163 -1.8081  0.7214 -0.1055
 1662TIP3   OH229180   6.778   1.580   8.027  0.5095 -0.3826  0.2470
 1662TIP3    H129181   6.871   1.559   8.014  0.6696  0.1534  0.4758
 1662TIP3    H229182   6.732   1.500   8.006  1.0486 -0.7309  0.3714
 1663TIP3   OH229183   3.723   6.155   2.160  0.1334 -0.0403 -0.1074
 1663TIP3    H129184   3.703   6.101   2.237 -0.6144  0.7046  0.2259
 1663TIP3    H229185   3.659   6.128   2.094  0.1285  0.0378 -0.1339
 1664TIP3   OH229186   4.422   3.727   0.224  0.2198 -0.0647  0.3875
 1664TIP3    H129187   4.430   3.708   0.317  1.1198 -1.0592  0.1366
 1664TIP3    H229188   4.396   3.644   0.184 -1.2314  0.6107 -0.1371
 1665TIP3   OH229189   4.925   5.569   2.048 -0.2220 -0.2603  0.0157
 1665TIP3    H129190   4.978   5.495   2.018  0.8397 -0.2168  1.6636
 1665TIP3    H229191   4.879   5.599   1.970  1.4792 -0.8884 -1.2838
 1666TIP3   OH229192   5.904   5.455   9.230  0.1739  0.4305 -0.4488
 1666TIP3    H129193   5.980   5.408   9.263 -0.4129 -0.8638 -0.8900
 1666TIP3    H229194   5.865   5.495   9.308 -0.2510 -1.2007  0.2092
 1667TIP3   OH229195   2.068   2.046   6.723  0.9445  0.3704 -0.3667
 1667TIP3    H129196   2.062   2.133   6.684 -1.3799  0.4308 -0.0649
 1667TIP3    H229197   2.004   2.048   6.795  3.0095 -0.6553  1.6102
 1668TIP3   OH229198   1.644   3.057   8.707  0.2700  0.1328  0.6355
 1668TIP3    H129199   1.643   3.144   8.747  1.0186  2.0757 -3.1567
 1668TIP3    H229200   1.569   3.056   8.649  1.7357 -0.6802 -1.3417
 1669TIP3   OH229201   6.521   1.329   9.050 -0.4993 -0.0934  0.3260
 1669TIP3    H129202   6.457   1.263   9.077 -0.0286 -1.2678 -1.2949
 1669TIP3    H229203   6.474   1.384   8.988 -0.0770 -0.7521 -0.6061
 1670TIP3   OH229204   5.712   1.139   0.630  0.0646 -0.3799 -0.3475
 1670TIP3    H129205   5.670   1.135   0.544 -0.7633  0.7853 -0.0335
 1670TIP3    H229206   5.651   1.190   0.684  1.5678  0.7934  0.3252
 1671TIP3   OH229207   7.092   1.892   7.697 -0.1461  0.2832 -0.6405
 1671TIP3    H129208   6.998   1.909   7.698 -0.2067 -0.0669  0.0082
 1671TIP3    H229209   7.104   1.819   7.758  0.9141  2.2542  1.6825
 1672TIP3   OH229210   6.144   6.696   6.569 -0.2016  0.1747 -0.0716
 1672TIP3    H129211   6.189   6.777   6.546  0.4653 -0.3236 -0.5629
 1672TIP3    H229212   6.212   6.640   6.607 -0.2041 -0.8605 -1.4763
 1673TIP3   OH229213   5.927   4.756   1.070  0.4163  0.0072  0.1102
 1673TIP3    H129214   5.884   4.795   0.995 -1.3018 -0.3368  0.8707
 1673TIP3    H229215   6.020   4.771   1.055 -0.0481  2.5140 -0.6398
 1674TIP3   OH229216   3.564   1.822   0.832 -0.4168 -0.9957  0.3327
 1674TIP3    H129217   3.553   1.839   0.739 -0.8427  0.6478  0.6491
 1674TIP3    H229218   3.487   1.771   0.857 -2.1605  1.4538  0.4080
 1675TIP3   OH229219   5.605   4.359   0.614  0.0718  0.3848 -0.3375
 1675TIP3    H129220   5.541   4.320   0.555  0.0276  1.0062 -0.7109
 1675TIP3    H229221   5.553   4.413   0.674  0.2420  0.8952 -0.6455
 1676TIP3   OH229222   5.156   3.338   1.392 -0.0789  0.1477 -0.0595
 1676TIP3    H129223   5.160   3.417   1.447 -0.0562 -0.8738  1.4870
 1676TIP3    H229224   5.224   3.281   1.429  0.1328 -0.4662 -1.3634
 1677TIP3   OH229225   5.291   1.585   8.947 -0.1628  0.6530  0.8358
 1677TIP3    H129226   5.276   1.562   8.856  0.6572 -1.8343  1.2646
 1677TIP3    H229227   5.286   1.502   8.995  1.3723  1.5813  2.7910
 1678TIP3   OH229228   0.059   4.627   2.220  0.7969  0.4135 -0.0501
 1678TIP3    H129229   0.081   4.666   2.305  0.9269  0.4901 -0.1176
 1678TIP3    H229230   0.112   4.676   2.157  0.9706  0.1214 -0.1355
 1679TIP3   OH229231   2.683   1.710   8.386 -0.3760  0.0803 -0.1456
 1679TIP3    H129232   2.718   1.631   8.427  0.7841 -0.1999 -1.6056
 1679TIP3    H229233   2.733   1.720   8.305 -1.9631  1.1196 -1.0552
 1680TIP3   OH229234   6.349   4.622   7.055 -0.4865  0.0004  0.1267
 1680TIP3    H129235   6.342   4.702   7.106  1.0828 -0.2109  0.7159
 1680TIP3    H229236   6.440   4.620   7.025 -0.8008 -0.9960 -0.8165
 1681TIP3   OH229237   6.273   2.358   8.035 -0.2732  0.5944 -0.2177
 1681TIP3    H129238   6.191   2.348   7.986  0.7394  2.1616 -2.4469
 1681TIP3    H229239   6.251   2.418   8.106 -1.1530  0.7124 -0.5715
 1682TIP3   OH229240   3.201   5.351   9.757  1.1231 -0.3980  0.0281
 1682TIP3    H129241   3.267   5.287   9.782  0.5569 -0.6712  0.8776
 1682TIP3    H229242   3.136   5.301   9.709  0.7840 -0.4294  0.5115
 1683TIP3   OH229243   4.293   4.800   2.495 -0.8613  0.1172 -0.1881
 1683TIP3    H129244   4.282   4.752   2.577  2.6969  0.3765  0.6047
 1683TIP3    H229245   4.330   4.736   2.435  0.2943  0.8649 -0.3053
 1684TIP3   OH229246   6.582   1.624   3.154  0.4119 -0.4583 -0.1151
 1684TIP3    H129247   6.524   1.653   3.224  0.6146  1.4547 -0.6752
 1684TIP3    H229248   6.566   1.530   3.146 -0.6769 -0.4409  1.4876
 1685TIP3   OH229249   1.042   4.104   0.141 -0.2147  0.1649  0.4453
 1685TIP3    H129250   0.978   4.063   0.200 -0.1048 -2.4001 -1.0805
 1685TIP3    H229251   1.117   4.045   0.143  0.5844  1.1003 -0.7196
 1686TIP3   OH229252   5.652   3.326   0.711  0.3242 -0.5364 -0.2319
 1686TIP3    H129253   5.640   3.398   0.774 -1.9895 -0.6649 -0.4100
 1686TIP3    H229254   5.625   3.364   0.627 -0.1284 -1.3613 -0.4696
 1687TIP3   OH229255   3.703   0.833   9.091  0.6342  0.0501  0.2569
 1687TIP3    H129256   3.786   0.805   9.129 -0.1087  0.6582  2.4495
 1687TIP3    H229257   3.638   0.775   9.129  0.0025 -0.4472 -1.4684
 1688TIP3   OH229258   5.505   1.840   2.539  0.8641 -0.0299  0.4881
 1688TIP3    H129259   5.411   1.834   2.553  1.1061 -1.3520  1.9036
 1688TIP3    H229260   5.518   1.923   2.494 -0.8961  0.6199  1.0953
 1689TIP3   OH229261   5.076   3.405   7.621 -0.3235 -0.3735  0.2734
 1689TIP3    H129262   5.016   3.402   7.547 -0.3960 -0.3576  0.3319
 1689TIP3    H229263   5.162   3.418   7.581 -0.5766  1.6436  0.2864
 1690TIP3   OH229264   6.218   7.120   1.096 -0.2490 -0.1551 -0.2377
 1690TIP3    H129265   6.271   7.072   1.159  0.0633  0.5460  0.0479
 1690TIP3    H229266   6.128   7.099   1.120 -0.1147 -0.6709 -0.1786
 1691TIP3   OH229267   5.055   5.193   9.339  0.1937  0.1262  0.3307
 1691TIP3    H129268   5.078   5.133   9.268  1.3629  0.9093  0.0356
 1691TIP3    H229269   5.128   5.255   9.344 -1.7402  2.6453 -0.5414
 1692TIP3   OH229270   0.736   5.575   7.266  0.5402 -0.1083  0.4374
 1692TIP3    H129271   0.742   5.651   7.323  1.5123 -0.0214  0.2392
 1692TIP3    H229272   0.709   5.611   7.181 -2.2369 -0.3916  1.1146
 1693TIP3   OH229273   2.247   6.100   0.606  0.1068  0.3707  0.5775
 1693TIP3    H129274   2.287   6.018   0.576  0.6391  0.6537  0.5085
 1693TIP3    H229275   2.280   6.111   0.695 -0.1356  0.4033  0.6642
 1694TIP3   OH229276   2.107   4.943   2.115  0.3818  0.7216 -0.4935
 1694TIP3    H129277   2.129   4.850   2.123 -1.5336  0.2064 -0.6122
 1694TIP3    H229278   2.157   4.973   2.040  1.2967 -0.1252 -0.2409
 1695TIP3   OH229279   3.056   6.476   1.128  0.5654 -0.2093 -0.1921
 1695TIP3    H129280   3.090   6.525   1.054 -0.7939 -0.1215 -0.7805
 1695TIP3    H229281   3.072   6.384   1.105  2.5822 -0.1306  0.6531
 1696TIP3   OH229282   2.977   1.959   8.241  0.1300 -0.0773 -0.5541
 1696TIP3    H129283   2.926   2.034   8.271  2.6758  3.0433 -3.2796
 1696TIP3    H229284   2.914   1.902   8.198 -2.0123 -0.0645  2.2741
 1697TIP3   OH229285   7.258   4.353   1.953  0.0452 -0.0387 -0.1037
 1697TIP3    H129286   7.330   4.293   1.932  1.7961  1.8203  0.3007
 1697TIP3    H229287   7.282   4.390   2.037 -0.0399  2.5688 -1.1553
 1698TIP3   OH229288   6.334   5.082   7.086 -0.0857 -0.0139 -0.2187
 1698TIP3    H129289   6.406   5.130   7.046 -1.3289  2.6865  0.5651
 1698TIP3    H229290   6.266   5.080   7.019 -0.5744  0.6729  0.2374
 1699TIP3   OH229291   2.807   4.640   2.414  0.1072  0.2190  0.4170
 1699TIP3    H129292   2.748   4.669   2.483  0.0714  0.6974  0.1933
 1699TIP3    H229293   2.760   4.660   2.333 -0.0287 -0.7093  0.2540
 1700TIP3   OH229294   2.709   4.570   9.625  0.5020 -0.1735 -0.2565
 1700TIP3    H129295   2.691   4.657   9.659  1.0002 -0.2406  0.1891
 1700TIP3    H229296   2.626   4.542   9.584 -0.2554 -0.2616  1.2637
 1701TIP3   OH229297   0.766   3.528   1.137 -0.3573  0.2945  0.2925
 1701TIP3    H129298   0.789   3.571   1.220 -1.5055  0.8794  0.3293
 1701TIP3    H229299   0.675   3.499   1.150  0.2762 -1.9575  0.1734
 1702TIP3   OH229300   0.769   1.633   8.118 -0.2417 -0.3105 -0.5905
 1702TIP3    H129301   0.695   1.606   8.173 -0.5298 -2.6782 -2.0238
 1702TIP3    H229302   0.836   1.566   8.133  0.7612  0.5755 -0.9979
 1703TIP3   OH229303   0.394   3.860   8.836  0.0407 -0.1358  0.4258
 1703TIP3    H129304   0.339   3.867   8.914  1.2620  0.6805  1.2556
 1703TIP3    H229305   0.476   3.903   8.860  0.3908  0.3315 -1.3823
 1704TIP3   OH229306   2.344   0.519   8.375 -0.1191  0.1450  0.5813
 1704TIP3    H129307   2.390   0.501   8.456 -2.5553 -0.5178  1.9114
 1704TIP3    H229308   2.313   0.610   8.384  0.8399  0.5873 -0.2975
 1705TIP3   OH229309   4.478   6.515   9.514  0.0969  0.7060  0.0038
 1705TIP3    H129310   4.482   6.586   9.578  1.8053  0.9800 -0.3581
 1705TIP3    H229311   4.489   6.558   9.429 -0.7719  0.2006 -0.3806
 1706TIP3   OH229312   5.358   4.094   9.067 -0.4926  0.3509  0.7880
 1706TIP3    H129313   5.404   4.010   9.064 -1.8586 -0.4000 -0.1524
 1706TIP3    H229314   5.268   4.071   9.088 -0.5262  1.7806  2.4378
 1707TIP3   OH229315   1.308   4.216   2.653 -0.2471 -0.1919  0.3264
 1707TIP3    H129316   1.251   4.226   2.729  1.3410  0.6497  1.4670
 1707TIP3    H229317   1.297   4.297   2.604 -1.4474 -0.8298 -0.5178
 1708TIP3   OH229318   3.457   2.770   1.349 -0.0881  0.4458  0.4392
 1708TIP3    H129319   3.421   2.682   1.356  2.4827 -0.7368  0.0573
 1708TIP3    H229320   3.532   2.770   1.409  0.8701  1.8526 -0.6918
 1709TIP3   OH229321   5.844   1.456   9.343 -0.2318 -0.0975  0.2173
 1709TIP3    H129322   5.938   1.471   9.335 -0.2176  0.2254  0.8881
 1709TIP3    H229323   5.804   1.541   9.325 -0.3587 -0.0996  0.4771
 1710TIP3   OH229324   3.230   1.976   0.332 -0.3252 -0.2478 -0.1643
 1710TIP3    H129325   3.319   1.955   0.307 -0.4531  0.0507 -0.8899
 1710TIP3    H229326   3.190   2.012   0.253 -0.8897  0.2497  0.3308
 1711TIP3   OH229327   6.045   2.074   1.191 -0.7274  0.2569  0.6087
 1711TIP3    H129328   6.012   2.098   1.278 -1.5091 -0.3743  0.5022
 1711TIP3    H229329   5.994   1.996   1.167  0.3527 -0.3126  0.1060
 1712TIP3   OH229330   2.351   1.644   8.196 -0.0521 -0.2313  0.2846
 1712TIP3    H129331   2.398   1.561   8.193  1.4572  0.6132 -2.1671
 1712TIP3    H229332   2.360   1.673   8.287 -0.6526 -2.6910  1.2177
 1713TIP3   OH229333   0.458   4.077   0.835  0.5838 -0.0976  0.3396
 1713TIP3    H129334   0.366   4.085   0.811  0.9392  1.0470 -0.7713
 1713TIP3    H229335   0.506   4.113   0.760  1.9044  0.0230  1.1971
 1714TIP3   OH229336   1.477   1.815   9.528 -0.6858 -0.2593  0.0015
 1714TIP3    H129337   1.532   1.871   9.473 -1.5617  1.1814  0.5605
 1714TIP3    H229338   1.424   1.875   9.580 -1.1151 -1.5964  1.1929
 1715TIP3   OH229339   2.165   3.941   1.545  0.5165 -0.4910 -0.0049
 1715TIP3    H129340   2.209   3.857   1.532  0.6639 -0.3774 -0.2445
 1715TIP3    H229341   2.102   3.947   1.474  1.1988  0.0491 -0.5832
 1716TIP3   OH229342   7.207   0.832   3.096  0.3139  0.3036 -0.1051
 1716TIP3    H129343   7.191   0.803   3.186  2.7543  0.2704  0.3803
 1716TIP3    H229344   7.173   0.921   3.093 -1.0590 -0.1832  0.4160
 1717TIP3   OH229345   0.605   0.414   2.428  0.1317  0.1940  1.2138
 1717TIP3    H129346   0.664   0.472   2.382 -0.2155  0.0833  0.6121
 1717TIP3    H229347   0.661   0.365   2.489  0.3979  1.2719  1.8641
 1718TIP3   OH229348   2.728   3.900   8.163  0.0255 -0.8017 -0.2969
 1718TIP3    H129349   2.778   3.949   8.097 -1.3447  0.6769 -0.2967
 1718TIP3    H229350   2.647   3.950   8.172 -0.8937 -2.4196  0.6448
 1719TIP3   OH229351   2.222   2.550   7.579 -0.4292  0.1940  0.2116
 1719TIP3    H129352   2.299   2.529   7.631 -0.6420 -0.6988  0.1774
 1719TIP3    H229353   2.207   2.643   7.595  0.1138  0.1643  0.9296
 1720TIP3   OH229354   0.292   0.768   9.317 -0.3039 -0.1117  0.2649
 1720TIP3    H129355   0.254   0.849   9.283 -0.2903 -0.4567 -0.5957
 1720TIP3    H229356   0.301   0.711   9.240 -0.8423 -1.1468  0.9384
 1721TIP3   OH229357   0.317   5.098   0.336 -0.0735  0.3209 -0.1448
 1721TIP3    H129358   0.235   5.049   0.328  0.3228 -0.3340 -0.2136
 1721TIP3    H229359   0.305   5.150   0.416  0.0925 -1.0279  0.7926
 1722TIP3   OH229360   1.061   3.106   2.208 -0.1251  0.3702 -0.1524
 1722TIP3    H129361   1.038   3.035   2.269  0.7944  0.5019  0.3632
 1722TIP3    H229362   1.061   3.184   2.263  0.0285  0.5945 -0.4785
 1723TIP3   OH229363   6.297   7.031   1.779  0.1301 -0.0406  0.3865
 1723TIP3    H129364   6.232   6.961   1.787  1.0538 -0.8974  0.6231
 1723TIP3    H229365   6.381   6.986   1.783  0.7523  1.1021  0.6830
 1724TIP3   OH229366   4.121   6.074   8.680  0.5502  0.3547  0.1824
 1724TIP3    H129367   4.203   6.028   8.664 -0.0399 -0.9345  0.7351
 1724TIP3    H229368   4.075   6.071   8.596  1.0552  1.0948 -0.1332
 1725TIP3   OH229369   2.839   5.151   1.957 -0.1681  0.0058 -0.0781
 1725TIP3    H129370   2.789   5.086   1.908  0.1965 -0.7305  0.4999
 1725TIP3    H229371   2.911   5.102   1.995  0.2005  0.7846  0.2491
 1726TIP3   OH229372   1.193   3.641   9.662 -0.0693 -0.3049  0.4021
 1726TIP3    H129373   1.185   3.622   9.756 -0.0837  1.6135  0.8135
 1726TIP3    H229374   1.103   3.635   9.629 -0.0454 -1.1266  0.4556
 1727TIP3   OH229375   1.246   3.733   1.794 -0.3889  0.0504  0.0145
 1727TIP3    H129376   1.155   3.715   1.771 -0.2974 -1.0571  0.4516
 1727TIP3    H229377   1.248   3.726   1.890  0.3017 -0.6993 -0.0446
 1728TIP3   OH229378   3.265   6.116   7.489  0.5229 -0.4743  0.5847
 1728TIP3    H129379   3.246   6.064   7.567 -0.4557 -0.7233  0.1958
 1728TIP3    H229380   3.262   6.207   7.519 -0.0854 -0.5616  0.7919
 1729TIP3   OH229381   2.632   5.202   0.195 -0.3238 -0.0772 -0.1974
 1729TIP3    H129382   2.613   5.275   0.254  0.0510  1.5070 -1.9367
 1729TIP3    H229383   2.707   5.157   0.235  0.6671  1.6488 -0.0149
 1730TIP3   OH229384   5.640   2.479   8.766  0.1251  0.0677  0.0783
 1730TIP3    H129385   5.723   2.525   8.755  0.0993  0.4303  1.2625
 1730TIP3    H229386   5.573   2.547   8.754  0.0624  0.1704  0.9528
 1731TIP3   OH229387   2.141   6.914   0.976 -0.5247  0.2509  0.0550
 1731TIP3    H129388   2.105   7.002   0.978 -0.2089  0.3748  0.3410
 1731TIP3    H229389   2.172   6.903   0.886  0.6982  0.9493  0.3638
 1732TIP3   OH229390   5.712   6.536   2.822 -0.0869  0.2997 -0.0669
 1732TIP3    H129391   5.804   6.558   2.809 -0.0491  0.9394  1.1676
 1732TIP3    H229392   5.714   6.452   2.867 -0.1896 -1.0630 -2.4438
 1733TIP3   OH229393   5.698   0.998   7.961 -0.1997 -0.5910  0.2163
 1733TIP3    H129394   5.768   1.024   7.901 -0.9343 -0.3210 -0.5614
 1733TIP3    H229395   5.690   0.903   7.949  0.2273 -0.6708  0.5357
 1734TIP3   OH229396   3.241   5.989   9.947  0.8656 -0.6310  0.1973
 1734TIP3    H129397   3.258   6.072   9.993  0.0620  0.0321 -0.6785
 1734TIP3    H229398   3.222   5.927  10.017 -3.1695  0.9861  0.8022
 1735TIP3   OH229399   2.643   0.267   8.577 -0.2000 -0.2397 -0.0269
 1735TIP3    H129400   2.585   0.226   8.641  1.4259  0.8696  2.2674
 1735TIP3    H229401   2.601   0.351   8.558 -1.0345 -0.8511 -1.0156
 1736TIP3   OH229402   5.705   4.529   1.421  0.2621  0.2805 -0.0761
 1736TIP3    H129403   5.712   4.566   1.509  1.4771 -0.2009  0.0549
 1736TIP3    H229404   5.626   4.475   1.424  0.4665  0.0080  0.8333
 1737TIP3   OH229405   0.243   0.585   8.675 -0.1450  0.2588  0.0828
 1737TIP3    H129406   0.192   0.508   8.701 -0.9341  0.3017 -1.2395
 1737TIP3    H229407   0.268   0.626   8.757  0.2095 -1.3580  0.8133
 1738TIP3   OH229408   1.559   4.200   1.794 -0.2567 -0.3498 -0.3578
 1738TIP3    H129409   1.639   4.166   1.755 -0.4857 -1.2936 -0.0449
 1738TIP3    H229410   1.574   4.193   1.889  0.1654  1.5958 -0.2535
 1739TIP3   OH229411   3.124   0.467   1.468 -0.0238  0.4427  0.0140
 1739TIP3    H129412   3.039   0.486   1.509  1.3787  1.0580  2.8370
 1739TIP3    H229413   3.183   0.534   1.500  2.2910 -1.7708  0.7652
 1740TIP3   OH229414   4.863   3.397   2.142  0.3589 -0.0092 -0.1931
 1740TIP3    H129415   4.883   3.335   2.212  1.4383  1.5245  0.9434
 1740TIP3    H229416   4.942   3.398   2.088 -0.1596 -0.5849 -0.9677
 1741TIP3   OH229417   4.727   3.733   7.354 -0.2277  0.3254  0.0720
 1741TIP3    H129418   4.820   3.717   7.372 -0.5415  0.7190  2.3657
 1741TIP3    H229419   4.722   3.741   7.259  2.3105  1.6941 -0.0277
 1742TIP3   OH229420   2.270   4.378   1.667  0.3942  0.5523  0.2968
 1742TIP3    H129421   2.202   4.440   1.643 -0.4072 -0.9644 -1.6740
 1742TIP3    H229422   2.293   4.400   1.757 -0.7667  2.8141  0.1047
 1743TIP3   OH229423   2.778   7.220   2.038  0.1076  0.0128  0.5407
 1743TIP3    H129424   2.837   7.169   2.093 -1.8164 -1.1385  1.6446
 1743TIP3    H229425   2.707   7.160   2.016 -0.1348  1.0258 -1.6458
 1744TIP3   OH229426   5.945   5.825   0.745  0.8875  0.4001 -0.0470
 1744TIP3    H129427   5.855   5.797   0.759  1.1838 -0.1842  0.7475
 1744TIP3    H229428   5.958   5.897   0.807  1.6305 -0.9699  1.4548
 1745TIP3   OH229429   4.817   5.148   1.939  0.3472 -0.3831  0.1986
 1745TIP3    H129430   4.759   5.137   2.014 -0.5718  2.1778 -0.0426
 1745TIP3    H229431   4.769   5.109   1.866  0.3949 -1.1514  0.5611
 1746TIP3   OH229432   6.759   5.724   9.055  0.4611 -0.0491 -0.4879
 1746TIP3    H129433   6.794   5.661   9.118 -0.1655 -1.5805 -1.6294
 1746TIP3    H229434   6.746   5.804   9.106  1.6622 -0.6931  0.9033
 1747TIP3   OH229435   2.454   5.325   7.835 -0.3362  0.5614 -0.1884
 1747TIP3    H129436   2.506   5.245   7.840 -0.2657  0.6641  0.9892
 1747TIP3    H229437   2.517   5.393   7.814 -0.2961  0.4114 -0.5669
 1748TIP3   OH229438   1.839   5.884   1.923  0.1383 -0.1384  0.0634
 1748TIP3    H129439   1.822   5.978   1.929 -0.0029 -0.1725  0.2021
 1748TIP3    H229440   1.797   5.847   2.001  1.2140 -0.1674  0.6438
 1749TIP3   OH229441   1.958   2.625   0.410  0.0021 -0.4406 -0.1721
 1749TIP3    H129442   1.875   2.659   0.443 -0.1744 -1.3086  0.3083
 1749TIP3    H229443   1.988   2.690   0.347 -1.6423 -0.6982 -1.2654
 1750TIP3   OH229444   1.089   6.478   1.782 -0.0754 -0.3054  0.2539
 1750TIP3    H129445   1.075   6.542   1.713 -0.1196 -0.5748  0.0111
 1750TIP3    H229446   1.002   6.455   1.813 -0.2236 -1.8402 -1.1293
 1751TIP3   OH229447   5.021   7.157   7.200  0.3694 -0.2404  0.3626
 1751TIP3    H129448   4.956   7.111   7.148  1.8283 -0.5599 -1.2892
 1751TIP3    H229449   4.974   7.186   7.278 -1.7627 -0.3178 -0.8193
 1752TIP3   OH229450   5.399   7.242   1.152 -0.3140  0.6721  0.2921
 1752TIP3    H129451   5.362   7.330   1.156 -0.2621  0.7879 -1.3581
 1752TIP3    H229452   5.480   7.248   1.203  0.3192  1.9234 -0.8107
 1753TIP3   OH229453   1.428   6.910   7.923  0.6803  0.6350 -0.1994
 1753TIP3    H129454   1.450   7.002   7.909  0.0041  0.5008 -2.7340
 1753TIP3    H229455   1.444   6.895   8.016  1.3432  3.1507  0.1698
 1754TIP3   OH229456   2.388   4.623   2.600 -0.4445  0.0761  0.2743
 1754TIP3    H129457   2.370   4.585   2.686 -0.5909 -0.1881  0.1304
 1754TIP3    H229458   2.336   4.703   2.597 -1.9935 -0.9045 -0.3137
 1755TIP3   OH229459   1.458   0.484   1.298  0.1394 -0.0780 -0.1098
 1755TIP3    H129460   1.498   0.541   1.232  0.5243  0.6853  0.7608
 1755TIP3    H229461   1.525   0.474   1.365 -0.0665 -1.2662 -0.0666
 1756TIP3   OH229462   0.981   0.696   9.516  0.2284 -0.4724 -0.1035
 1756TIP3    H129463   0.964   0.739   9.432  0.2484 -1.3386 -0.5733
 1756TIP3    H229464   0.919   0.735   9.577  2.4661  2.6560  0.3799
 1757TIP3   OH229465   5.157   1.542   0.960 -0.1982  0.1165  0.1308
 1757TIP3    H129466   5.217   1.569   1.029 -0.0191  0.6213 -0.2175
 1757TIP3    H229467   5.146   1.448   0.973  1.0638 -0.0793 -0.0930
 1758TIP3   OH229468   2.038   0.447   1.765  0.3012  0.3887 -0.3847
 1758TIP3    H129469   2.129   0.464   1.743 -0.5506  0.7901 -4.2513
 1758TIP3    H229470   2.032   0.351   1.769  0.4446  0.2323 -2.7835
 1759TIP3   OH229471   2.203   3.238   1.197 -0.3066 -0.2838  0.2146
 1759TIP3    H129472   2.148   3.167   1.230  0.2127 -0.2768  1.1359
 1759TIP3    H229473   2.146   3.288   1.138 -1.0181 -0.7899  0.4619
 1760TIP3   OH229474   2.466   5.622   8.922  0.0141 -0.2480 -0.2179
 1760TIP3    H129475   2.388   5.665   8.886 -0.6586 -0.1383  1.3063
 1760TIP3    H229476   2.461   5.638   9.016  0.9391 -1.7702  0.1205
 1761TIP3   OH229477   1.501   3.301   8.860  0.5828 -0.1588 -0.3673
 1761TIP3    H129478   1.580   3.311   8.913 -0.0468  2.1270  0.2447
 1761TIP3    H229479   1.428   3.314   8.921 -0.3027 -1.5815 -1.0413
 1762TIP3   OH229480   5.901   0.096   1.690  0.5125  0.2039  0.9320
 1762TIP3    H129481   5.828   0.035   1.702 -2.0799  2.9811  0.6396
 1762TIP3    H229482   5.950   0.061   1.615 -1.8893 -0.6749 -0.3518
 1763TIP3   OH229483   7.139   7.079   7.749  0.1252 -0.0281 -0.1271
 1763TIP3    H129484   7.070   7.014   7.760 -0.1448  0.0176 -1.4751
 1763TIP3    H229485   7.093   7.159   7.725  0.5885  0.1978 -0.2716
 1764TIP3   OH229486   0.255   3.935   0.593  0.0712  0.4974 -0.5350
 1764TIP3    H129487   0.172   3.888   0.598  1.0242 -1.2114  0.0571
 1764TIP3    H229488   0.240   4.015   0.643 -1.2041  0.1955 -0.3951
 1765TIP3   OH229489   1.482   4.439   7.731 -0.4787 -0.3660  0.6429
 1765TIP3    H129490   1.437   4.514   7.691 -0.6342 -1.2910 -1.0026
 1765TIP3    H229491   1.425   4.412   7.802 -2.2589 -1.0984 -0.9819
 1766TIP3   OH229492   6.842   3.201   9.866 -0.2490  0.2747  0.1727
 1766TIP3    H129493   6.792   3.145   9.926 -0.7095 -0.4071 -0.8180
 1766TIP3    H229494   6.882   3.140   9.803  2.7263  0.6855  1.4991
 1767TIP3   OH229495   1.919   1.038   0.587  0.1550 -0.3428  0.4575
 1767TIP3    H129496   1.949   0.963   0.639 -0.1262  0.4099  1.7715
 1767TIP3    H229497   1.894   1.001   0.503  0.7333 -1.6046  0.8158
 1768TIP3   OH229498   4.920   0.918   3.022  0.1518  0.2777 -0.0951
 1768TIP3    H129499   5.002   0.918   2.971 -0.1879  0.0655 -0.6555
 1768TIP3    H229500   4.866   0.852   2.979 -0.0914 -0.0101  0.6473
 1769TIP3   OH229501   3.865   1.070   1.145 -0.0572  0.3963  0.3784
 1769TIP3    H129502   3.775   1.042   1.125  1.1634 -1.9498 -2.7270
 1769TIP3    H229503   3.887   1.132   1.075  1.1257  0.0133  0.3896
 1770TIP3   OH229504   6.151   0.941   2.349  0.0934  0.4085 -0.5728
 1770TIP3    H129505   6.177   1.032   2.363  0.0440  0.2593  0.5370
 1770TIP3    H229506   6.059   0.938   2.374  0.5001 -0.2754  0.9678
 1771TIP3   OH229507   3.735   0.617   7.484 -0.3069  0.3696  0.1045
 1771TIP3    H129508   3.738   0.711   7.468  2.8527  0.1842 -1.2788
 1771TIP3    H229509   3.771   0.579   7.403  0.8102 -1.8278  1.5435
 1772TIP3   OH229510   6.272   7.248   8.654  0.3029  0.1491 -0.2847
 1772TIP3    H129511   6.280   7.323   8.595 -1.0200  0.0148 -0.6652
 1772TIP3    H229512   6.315   7.276   8.735 -2.6670  2.5146  0.6632
 1773TIP3   OH229513   7.201   2.662   0.244 -0.2917  0.3756  0.1940
 1773TIP3    H129514   7.161   2.584   0.206 -2.6275  0.1475  2.7615
 1773TIP3    H229515   7.293   2.639   0.256 -0.3271 -0.9067 -1.6079
 1774TIP3   OH229516   1.225   2.812   2.234  0.1702 -0.3567  0.3001
 1774TIP3    H129517   1.153   2.849   2.284  0.3517 -0.9316  1.0000
 1774TIP3    H229518   1.254   2.884   2.177 -2.6274 -0.8212 -1.9363
 1775TIP3   OH229519   6.015   0.019   7.475  0.8011 -0.1271 -0.2267
 1775TIP3    H129520   5.959  -0.001   7.400  0.6626 -0.3177 -0.0756
 1775TIP3    H229521   6.079  -0.052   7.477  0.9345 -0.0105 -0.2866
 1776TIP3   OH229522   7.130   5.046   8.865 -0.5921 -0.2396 -0.3781
 1776TIP3    H129523   7.184   5.104   8.812  0.6808  0.6449  1.7616
 1776TIP3    H229524   7.129   4.963   8.818  3.5473 -0.6458 -0.0615
 1777TIP3   OH229525   4.410   1.787   8.647  0.2732  0.5874 -0.6986
 1777TIP3    H129526   4.414   1.773   8.741  1.8201  1.1030 -0.6548
 1777TIP3    H229527   4.426   1.881   8.636  2.7180  0.1519 -1.5546
 1778TIP3   OH229528   0.614   5.201   7.802 -0.5631  0.4617 -0.8130
 1778TIP3    H129529   0.572   5.216   7.886 -1.0171  0.5454 -1.0516
 1778TIP3    H229530   0.600   5.282   7.753  1.6801  1.3215 -0.1725
 1779TIP3   OH229531   6.137   1.079   8.577 -0.1656 -0.5296 -0.2539
 1779TIP3    H129532   6.187   1.161   8.575 -0.8810  0.0560  1.9818
 1779TIP3    H229533   6.055   1.102   8.621 -1.8491 -1.7643 -2.5586
 1780TIP3   OH229534   4.199   1.199   2.251  0.0020  0.2024 -0.1257
 1780TIP3    H129535   4.168   1.125   2.303  1.9531 -0.8748 -0.4001
 1780TIP3    H229536   4.194   1.169   2.160  2.0661 -0.1488 -0.1607
 1781TIP3   OH229537   2.036   2.898   1.926 -0.7638  0.3649 -0.1477
 1781TIP3    H129538   2.105   2.964   1.932  1.0192 -1.0941 -2.7145
 1781TIP3    H229539   2.002   2.906   1.837  0.0348 -2.5745 -0.8186
 1782TIP3   OH229540   3.622   4.861   7.837 -0.2365 -0.3556 -0.6569
 1782TIP3    H129541   3.627   4.956   7.851  1.5206 -0.4023 -0.6808
 1782TIP3    H229542   3.551   4.849   7.775 -2.3060  0.6821  1.3725
 1783TIP3   OH229543   3.767   6.728   7.846 -0.4436 -0.3329 -0.4033
 1783TIP3    H129544   3.832   6.787   7.806 -1.7866  0.5008 -1.4244
 1783TIP3    H229545   3.735   6.675   7.773 -1.0217 -0.6347  0.0651
 1784TIP3   OH229546   0.616   1.869   9.573 -0.1570  0.1349  0.7216
 1784TIP3    H129547   0.639   1.905   9.487 -1.9369  0.1016  0.1831
 1784TIP3    H229548   0.601   1.947   9.627  0.4442  0.1610  0.8516
 1785TIP3   OH229549   0.144   1.558   9.884 -0.0327 -0.5655  0.1150
 1785TIP3    H129550   0.105   1.568   9.971 -1.7808  0.0499 -0.6923
 1785TIP3    H229551   0.235   1.587   9.896 -0.4380  0.2383  1.5691
 1786TIP3   OH229552   2.285   0.794   8.413  0.0353  0.2084  0.2006
 1786TIP3    H129553   2.356   0.851   8.384  0.5274  0.2363  1.4180
 1786TIP3    H229554   2.287   0.799   8.509 -0.1678 -1.5412  0.3272
 1787TIP3   OH229555   3.042   6.157   2.232 -0.3527  0.2299  0.5540
 1787TIP3    H129556   3.015   6.248   2.220  0.5673  0.5566  0.8557
 1787TIP3    H229557   3.073   6.129   2.146  1.4210  0.9279  0.9129
 1788TIP3   OH229558   1.216   6.214   1.711  0.3026  0.5638  0.1807
 1788TIP3    H129559   1.151   6.145   1.722 -0.2430  0.7009 -1.7175
 1788TIP3    H229560   1.174   6.292   1.746 -0.1605  0.4458 -0.0936
 1789TIP3   OH229561   4.925   5.161   0.591  0.1424 -0.0651  0.8976
 1789TIP3    H129562   4.832   5.147   0.606  0.2731  0.3705  2.1576
 1789TIP3    H229563   4.963   5.072   0.590 -0.0150 -0.1584  2.2471
 1790TIP3   OH229564   0.281   5.598   8.946 -0.0832  0.8969 -0.2451
 1790TIP3    H129565   0.330   5.678   8.963  1.3904  0.8034 -3.2682
 1790TIP3    H229566   0.347   5.529   8.947 -0.5497  0.3884 -1.8561
 1791TIP3   OH229567   1.972   2.267   1.948  0.3979 -0.7264  0.3921
 1791TIP3    H129568   1.917   2.345   1.961 -0.7693 -1.5029  0.2799
 1791TIP3    H229569   1.926   2.198   1.995  1.0808 -1.4846 -0.0429
 1792TIP3   OH229570   0.829   3.908   8.159 -0.7451 -0.2281  0.1860
 1792TIP3    H129571   0.785   3.966   8.097  0.8245  1.0329  0.1957
 1792TIP3    H229572   0.806   3.820   8.129 -1.1728  0.3617 -1.3253
 1793TIP3   OH229573   5.442   2.297   9.593  0.2697 -0.0500  0.1648
 1793TIP3    H129574   5.420   2.340   9.510 -1.1658 -0.8562  0.0961
 1793TIP3    H229575   5.507   2.231   9.569  0.5277  0.3214 -0.1671
 1794TIP3   OH229576   3.788   3.419   8.378 -0.9208 -0.3766  0.1794
 1794TIP3    H129577   3.720   3.352   8.385 -2.3149  0.9554 -0.2191
 1794TIP3    H229578   3.836   3.396   8.299 -0.6600 -1.5186  0.6433
 1795TIP3   OH229579   2.461   6.717   0.835  0.3345  0.4439  0.2262
 1795TIP3    H129580   2.509   6.716   0.918  0.3076  0.0885  0.2425
 1795TIP3    H229581   2.480   6.803   0.797  2.2908 -0.2339 -0.4997
 1796TIP3   OH229582   4.214   5.646   2.791 -0.0633  0.9572 -0.2361
 1796TIP3    H129583   4.271   5.593   2.735  0.1911  3.5567 -2.6580
 1796TIP3    H229584   4.126   5.631   2.756 -0.1181  1.3091 -0.2504
 1797TIP3   OH229585   1.661   4.522   7.474  0.4152 -0.2436 -0.1942
 1797TIP3    H129586   1.653   4.426   7.476 -1.4281 -0.1215 -0.3652
 1797TIP3    H229587   1.685   4.542   7.383  1.7632 -0.5740  0.0631
 1798TIP3   OH229588   0.957   6.094   2.959  0.1980  0.2238  0.1082
 1798TIP3    H129589   1.028   6.080   3.022  0.4401  0.8075 -0.0286
 1798TIP3    H229590   0.895   6.151   3.005 -2.4204 -3.6254  1.9107
 1799TIP3   OH229591   3.428   3.450   7.345  0.1881 -0.9570 -0.1081
 1799TIP3    H129592   3.421   3.360   7.313  0.1224 -1.1947  0.5491
 1799TIP3    H229593   3.522   3.467   7.349  0.1869 -0.7485 -0.8953
 1800TIP3   OH229594   3.063   5.077   7.684 -0.1404 -0.3724 -0.2047
 1800TIP3    H129595   3.019   5.112   7.761  1.7562 -0.4718  1.0043
 1800TIP3    H229596   3.092   4.990   7.711 -1.1303 -1.2045 -1.7254
 1801TIP3   OH229597   3.251   6.430   0.415 -0.6405  0.6814  0.0544
 1801TIP3    H129598   3.231   6.337   0.408  2.6922 -0.2170  0.6673
 1801TIP3    H229599   3.248   6.462   0.325  1.4533 -0.8943 -0.6609
 1802TIP3   OH229600   7.184   3.343   8.195 -0.7416  0.2731  0.8533
 1802TIP3    H129601   7.162   3.251   8.180 -0.3376  0.3772 -0.4541
 1802TIP3    H229602   7.193   3.349   8.290  0.5641 -1.3681  0.8937
 1803TIP3   OH229603   0.764   5.697   7.717  0.5217  0.1107  0.1386
 1803TIP3    H129604   0.854   5.713   7.745  1.4342 -1.3635 -1.6871
 1803TIP3    H229605   0.729   5.783   7.694  2.8685  0.4419 -2.8483
 1804TIP3   OH229606   2.946   6.096   7.738  0.2062  0.4460 -0.0696
 1804TIP3    H129607   3.018   6.042   7.771  0.0043 -0.4611 -1.0505
 1804TIP3    H229608   2.973   6.186   7.757  0.9373  0.0568  0.8468
 1805TIP3   OH229609   3.097   7.077   0.563  0.0143 -0.1251 -0.3677
 1805TIP3    H129610   3.100   7.100   0.656 -0.1126 -2.3102  0.2417
 1805TIP3    H229611   3.011   7.106   0.534 -1.5347 -2.7251  1.2301
 1806TIP3   OH229612   1.665   3.487   8.466 -0.6699 -0.1608  0.0152
 1806TIP3    H129613   1.676   3.581   8.477 -1.2515  0.0534 -0.9950
 1806TIP3    H229614   1.707   3.468   8.382 -0.7672 -0.7558  0.0973
 1807TIP3   OH229615   1.151   1.788   1.184 -0.0324  0.9306 -0.5289
 1807TIP3    H129616   1.211   1.791   1.258 -1.4433  0.1831  0.7112
 1807TIP3    H229617   1.187   1.720   1.127 -0.6023 -0.7901  1.0707
 1808TIP3   OH229618   6.177   6.838   0.554 -0.2491 -0.0118  0.6737
 1808TIP3    H129619   6.171   6.766   0.617 -1.6416 -0.7080 -0.2043
 1808TIP3    H229620   6.261   6.879   0.572  0.4861 -1.7371  1.3462
 1809TIP3   OH229621   4.498   3.564   1.556 -0.5823  0.0689 -0.0717
 1809TIP3    H129622   4.533   3.490   1.507 -0.9345 -0.7113  0.8263
 1809TIP3    H229623   4.424   3.527   1.604 -0.3775  0.8680  0.8672
 1810TIP3   OH229624   5.068   0.623   9.720  0.3770 -0.3419  0.1004
 1810TIP3    H129625   5.075   0.582   9.634 -0.2732 -3.1911  1.2973
 1810TIP3    H229626   5.089   0.554   9.782  0.2798  1.4636  2.2882
 1811TIP3   OH229627   0.313   2.529   1.194 -0.0010 -0.8679  0.5989
 1811TIP3    H129628   0.302   2.604   1.253 -1.9574 -0.2019 -0.5156
 1811TIP3    H229629   0.305   2.566   1.106 -0.2350 -2.2891 -0.0084
 1812TIP3   OH229630   1.693   6.429   6.591  0.0404 -0.6648 -0.0002
 1812TIP3    H129631   1.768   6.381   6.557 -0.0241 -1.1600  0.5412
 1812TIP3    H229632   1.617   6.394   6.543  0.1986  0.1523 -0.8698
 1813TIP3   OH229633   7.023   1.500   7.455  0.3326  0.3533  0.1684
 1813TIP3    H129634   7.057   1.524   7.369 -2.7233  0.0968 -1.2407
 1813TIP3    H229635   7.033   1.405   7.458  2.1433  0.5168  0.9843
 1814TIP3   OH229636   0.109   3.151   9.049 -0.0679  0.2791 -0.1876
 1814TIP3    H129637   0.169   3.137   9.122  0.3571  0.4465 -0.5067
 1814TIP3    H229638   0.126   3.078   8.989 -0.8102 -0.1770  0.1342
 1815TIP3   OH229639   5.181   1.887   6.825 -0.1526  0.1358  0.5774
 1815TIP3    H129640   5.220   1.884   6.912  2.0592 -2.5827 -0.3675
 1815TIP3    H229641   5.245   1.933   6.770  0.3001 -1.4588 -0.3117
 1816TIP3   OH229642   4.490   3.325   1.398  0.4212  0.4284 -0.2773
 1816TIP3    H129643   4.476   3.233   1.423  0.3751  0.6155  0.4129
 1816TIP3    H229644   4.435   3.337   1.320  0.9786 -0.3201 -0.8018
 1817TIP3   OH229645   0.297   3.200   6.775  0.5062 -0.0516  0.6068
 1817TIP3    H129646   0.357   3.207   6.848  0.0380  2.1235  0.8452
 1817TIP3    H229647   0.341   3.245   6.703  0.6306 -1.5047 -0.2820
 1818TIP3   OH229648   5.629   1.752   2.163  0.2048 -0.0291  0.4294
 1818TIP3    H129649   5.561   1.700   2.120  0.9895 -1.9026  1.3394
 1818TIP3    H229650   5.597   1.842   2.158 -2.6505 -0.8830  1.3521
 1819TIP3   OH229651   0.039   6.063   8.690 -0.3190  0.0406  1.0246
 1819TIP3    H129652   0.026   6.054   8.784 -0.7076  0.8915  1.0617
 1819TIP3    H229653   0.037   5.973   8.657  0.1402 -0.2872  1.8593
 1820TIP3   OH229654   6.417   2.944   7.940  0.3518 -0.2020 -0.1783
 1820TIP3    H129655   6.463   2.860   7.938  0.8713  0.0946 -1.7090
 1820TIP3    H229656   6.385   2.957   7.851 -0.3549  0.8882  0.2075
 1821TIP3   OH229657   3.716   4.070   1.112 -0.6914 -0.0395  0.4718
 1821TIP3    H129658   3.662   4.115   1.047  0.7586  2.4891  0.8717
 1821TIP3    H229659   3.798   4.120   1.113  1.7147 -3.6228 -0.0763
 1822TIP3   OH229660   3.147   4.132   8.530  0.7456 -0.3624  0.2251
 1822TIP3    H129661   3.184   4.057   8.483  0.7914 -0.2578  0.0932
 1822TIP3    H229662   3.090   4.175   8.466  0.3090 -0.5852  0.4629
 1823TIP3   OH229663   0.656   0.357   9.080 -0.0810 -0.3939 -0.1324
 1823TIP3    H129664   0.636   0.313   9.163  0.0142  1.5048  0.9766
 1823TIP3    H229665   0.745   0.329   9.059  0.5979  0.4668  1.4067
 1824TIP3   OH229666   3.755   3.669   8.436 -0.0041 -0.8256  0.1640
 1824TIP3    H129667   3.765   3.578   8.409 -0.8813 -0.1168 -3.0707
 1824TIP3    H229668   3.661   3.679   8.453  0.0417 -0.4934  0.2285
 1825TIP3   OH229669   7.250   0.121   8.905  0.2705  0.7900 -0.1540
 1825TIP3    H129670   7.292   0.062   8.968  0.0574  0.0421 -0.6988
 1825TIP3    H229671   7.229   0.200   8.956  0.4001  0.3299  0.6270
 1826TIP3   OH229672   5.170   7.143   2.263 -0.1651 -0.0548 -0.2657
 1826TIP3    H129673   5.184   7.235   2.239 -3.3396  0.6038  0.0718
 1826TIP3    H229674   5.166   7.143   2.359 -1.4549 -0.2904 -0.3011
 1827TIP3   OH229675   5.591   1.388   2.627 -0.3576  0.4339 -0.2295
 1827TIP3    H129676   5.546   1.306   2.648 -0.2914  0.2491 -0.7881
 1827TIP3    H229677   5.650   1.365   2.556  0.0045  0.8655 -0.0710
 1828TIP3   OH229678   3.572   0.422   0.773 -0.5265 -0.4022  0.0985
 1828TIP3    H129679   3.622   0.388   0.848  0.7970  0.8603 -0.1694
 1828TIP3    H229680   3.484   0.389   0.787 -0.1088 -0.9558  1.7378
 1829TIP3   OH229681   3.696   6.452   1.349 -0.2868  0.8079  0.1606
 1829TIP3    H129682   3.735   6.504   1.279  0.7058  0.0253  0.1078
 1829TIP3    H229683   3.693   6.510   1.424  0.8429  0.9436  0.1154
 1830TIP3   OH229684   2.018   0.025   0.008  0.2708 -0.4986 -0.1465
 1830TIP3    H129685   2.057  -0.009   0.088 -0.2410  2.4272  1.4747
 1830TIP3    H229686   1.939   0.070   0.037  0.1659  0.8095 -2.2510
 1831TIP3   OH229687   2.708   0.671   1.379  0.4285 -0.0036 -0.2462
 1831TIP3    H129688   2.619   0.675   1.415  0.6698  0.0370  0.3583
 1831TIP3    H229689   2.747   0.755   1.402  0.4037  0.2612 -1.1204
 1832TIP3   OH229690   2.083   5.359   1.174  0.4948 -0.3283  0.0586
 1832TIP3    H129691   2.145   5.316   1.233 -0.6655 -2.1492  0.0289
 1832TIP3    H229692   2.022   5.403   1.232  1.4567  1.0149  0.0970
 1833TIP3   OH229693   0.016   3.637   9.259  0.1376 -0.9660  0.0421
 1833TIP3    H129694   0.044   3.593   9.178 -0.1886 -1.8051  0.3782
 1833TIP3    H229695  -0.077   3.654   9.247  0.0570 -1.2214  0.3001
 1834TIP3   OH229696   6.802   6.871   9.726  0.1139  0.0927 -0.1919
 1834TIP3    H129697   6.795   6.793   9.670  3.3919 -1.6462  1.5453
 1834TIP3    H229698   6.876   6.919   9.691  0.9039  0.0549  1.3400
 1835TIP3   OH229699   2.163   1.785   6.845 -0.0775  0.2255  0.0847
 1835TIP3    H129700   2.101   1.854   6.818  0.5935  1.2767  1.1296
 1835TIP3    H229701   2.228   1.783   6.775 -0.0532  0.7243  0.0893
 1836TIP3   OH229702   4.227   6.543   8.440 -0.5408 -0.5251  0.5246
 1836TIP3    H129703   4.164   6.615   8.433 -0.1337 -0.3354 -2.1305
 1836TIP3    H229704   4.282   6.567   8.516 -0.6706  1.7653 -0.0271
 1837TIP3   OH229705   6.575   4.200   7.790 -0.0700  0.0189 -0.3363
 1837TIP3    H129706   6.522   4.269   7.831 -1.6174 -0.7300 -0.9787
 1837TIP3    H229707   6.522   4.120   7.801 -1.2353 -0.0771 -4.7217
 1838TIP3   OH229708   0.440   3.470   9.521 -0.0198 -0.1034  0.7606
 1838TIP3    H129709   0.396   3.497   9.440 -0.4146  0.2537  1.0895
 1838TIP3    H229710   0.396   3.521   9.590  1.0631  0.4309  1.0716
 1839TIP3   OH229711   4.671   2.275   7.918  0.2446  0.1986  0.4982
 1839TIP3    H129712   4.751   2.309   7.958  1.2736 -1.9512  0.4179
 1839TIP3    H229713   4.702   2.209   7.856 -1.5098  0.8922 -1.2314
 1840TIP3   OH229714   5.288   0.397   0.571  0.0212  0.3122 -0.2325
 1840TIP3    H129715   5.203   0.354   0.579 -0.1873  0.4683 -1.5218
 1840TIP3    H229716   5.272   0.472   0.515  0.8049  0.9375  0.3601
 1841TIP3   OH229717   0.865   6.320   0.881 -0.0876  0.3019  0.0312
 1841TIP3    H129718   0.793   6.258   0.869  1.7615 -1.9448  0.0397
 1841TIP3    H229719   0.887   6.349   0.792  0.1714 -0.4128 -0.1403
 1842TIP3   OH229720   3.588   0.424   8.613  0.5620  0.0402 -0.4921
 1842TIP3    H129721   3.582   0.346   8.558  1.2619 -1.2790  1.2058
 1842TIP3    H229722   3.629   0.490   8.557 -1.0538 -0.4176 -2.3218
 1843TIP3   OH229723   0.280   6.912   7.438 -0.4189  0.1200  0.2500
 1843TIP3    H129724   0.237   6.870   7.512  1.0313  0.0165  1.0769
 1843TIP3    H229725   0.336   6.979   7.477 -0.8304  1.1525 -0.8753
 1844TIP3   OH229726   3.248   4.901   7.397  0.2297  0.3027  0.1607
 1844TIP3    H129727   3.306   4.973   7.373 -0.3265  0.5951 -0.3453
 1844TIP3    H229728   3.160   4.934   7.377 -0.0858 -0.2346  0.6492
 1845TIP3   OH229729   0.613   1.194   9.048  0.1772 -0.2924 -0.4122
 1845TIP3    H129730   0.541   1.232   8.998 -0.8176 -1.8096 -0.1901
 1845TIP3    H229731   0.642   1.264   9.106  0.0423  0.8784 -1.7161
 1846TIP3   OH229732   3.427   4.243   8.251  0.1236  0.0010 -0.6770
 1846TIP3    H129733   3.379   4.195   8.318  1.9699 -2.4048 -0.9142
 1846TIP3    H229734   3.489   4.297   8.301 -0.3712  0.3593 -0.4375
 1847TIP3   OH229735   0.543   4.619   0.387  0.0628  0.0850 -0.3766
 1847TIP3    H129736   0.514   4.701   0.427 -1.2133 -0.7188  0.3929
 1847TIP3    H229737   0.464   4.582   0.349  0.6719 -0.7032 -0.8879
 1848TIP3   OH229738   5.857   5.356   8.363 -0.4350 -0.8798  0.4264
 1848TIP3    H129739   5.938   5.407   8.374 -0.8479 -0.4518  1.5797
 1848TIP3    H229740   5.832   5.331   8.452 -0.9613 -1.9937 -0.0160
 1849TIP3   OH229741   6.802   7.268   1.010 -0.3555 -0.4509 -0.3144
 1849TIP3    H129742   6.828   7.217   1.088 -0.8902 -0.1945  0.0350
 1849TIP3    H229743   6.754   7.343   1.045  0.7168  0.4900 -0.8098
 1850TIP3   OH229744   7.233   3.199   0.461 -0.7508 -0.4423 -0.2815
 1850TIP3    H129745   7.165   3.158   0.515 -1.2057  0.2506 -0.3104
 1850TIP3    H229746   7.216   3.293   0.469  0.2632 -0.2516 -0.2242
 1851TIP3   OH229747   6.498   6.016   7.948  0.2833 -0.8853 -0.2709
 1851TIP3    H129748   6.523   6.030   7.857 -0.3515 -0.7954 -0.4379
 1851TIP3    H229749   6.422   5.958   7.944 -1.3037  1.0492  0.0353
 1852TIP3   OH229750   4.865   1.591   7.319  0.1939 -0.5623 -0.1289
 1852TIP3    H129751   4.842   1.523   7.382  0.4894 -0.8601 -0.3366
 1852TIP3    H229752   4.846   1.673   7.364  0.1136 -0.7771  0.2345
 1853TIP3   OH229753   7.119   1.034   2.062  0.2422 -0.1011 -0.1123
 1853TIP3    H129754   7.205   0.995   2.075  0.2132  0.1338  0.8619
 1853TIP3    H229755   7.102   1.084   2.142  0.4620  2.2996 -1.4460
 1854TIP3   OH229756   3.358   1.555   7.743 -0.4292 -0.2168  0.0429
 1854TIP3    H129757   3.431   1.494   7.740  0.6880  1.0881 -2.4003
 1854TIP3    H229758   3.307   1.535   7.664 -2.1985 -0.4397  1.1891
 1855TIP3   OH229759   6.441   6.589   0.943 -0.6991  0.1153 -0.2894
 1855TIP3    H129760   6.497   6.655   0.985 -0.0719  1.8791 -3.5542
 1855TIP3    H229761   6.369   6.577   1.005 -0.3157  3.1276  0.9516
 1856TIP3   OH229762   5.518   3.079   0.719 -0.0449 -0.5897  0.4606
 1856TIP3    H129763   5.555   3.167   0.718  2.6103 -1.6246 -0.6419
 1856TIP3    H229764   5.476   3.069   0.633  0.2026 -0.6260  0.3454
 1857TIP3   OH229765   2.502   2.675   8.193  0.0654 -0.0005 -0.0129
 1857TIP3    H129766   2.557   2.686   8.271 -0.8888  2.3206  0.4218
 1857TIP3    H229767   2.563   2.687   8.120  0.4491  1.0679  0.4480
 1858TIP3   OH229768   4.282   3.926   2.727 -0.7750 -0.2577 -0.6549
 1858TIP3    H129769   4.226   3.866   2.676  1.0083 -2.1943 -0.4667
 1858TIP3    H229770   4.314   3.873   2.799 -1.7192  1.9215  1.4998
 1859TIP3   OH229771   5.490   3.845   6.669 -0.0261  0.4692  0.3041
 1859TIP3    H129772   5.484   3.941   6.674 -0.4310  0.4025  1.3430
 1859TIP3    H229773   5.413   3.819   6.619 -0.6569  0.6054  1.1820
 1860TIP3   OH229774   0.772   0.506   8.425 -0.4443  0.1301  0.2655
 1860TIP3    H129775   0.774   0.578   8.361  0.1158  0.4889  0.6844
 1860TIP3    H229776   0.740   0.546   8.506 -2.4759 -0.6003 -0.1043
 1861TIP3   OH229777   1.706   2.845   0.337 -0.3313  0.5768  0.2004
 1861TIP3    H129778   1.738   2.884   0.418  1.1112 -0.2647  0.0679
 1861TIP3    H229779   1.754   2.891   0.268 -1.5612  1.3037 -0.2048
 1862TIP3   OH229780   5.119   6.340   9.281  0.4528 -0.3865 -0.0996
 1862TIP3    H129781   5.084   6.351   9.193  0.5644  1.3487  0.0428
 1862TIP3    H229782   5.212   6.320   9.267  0.2570 -1.1505 -0.3793
 1863TIP3   OH229783   3.763   6.595   1.130 -0.3411  0.1186  0.0594
 1863TIP3    H129784   3.736   6.597   1.038 -0.2191  1.5163  0.0217
 1863TIP3    H229785   3.859   6.592   1.127 -0.3393  0.0958  0.1400
 1864TIP3   OH229786   4.432   5.210   0.067 -0.8115  0.2896  0.3848
 1864TIP3    H129787   4.372   5.138   0.086 -1.1007 -0.1117 -1.8275
 1864TIP3    H229788   4.441   5.210  -0.028  2.6210  0.4420  0.6052
 1865TIP3   OH229789   6.733   1.919   1.326  0.4072 -0.4502  0.3626
 1865TIP3    H129790   6.678   1.841   1.313  0.7205 -0.7283  0.7102
 1865TIP3    H229791   6.735   1.932   1.420  0.7423 -0.2959  0.3349
 1866TIP3   OH229792   2.660   5.968   2.479  0.0392  0.3282  0.1718
 1866TIP3    H129793   2.626   5.942   2.565  0.5223 -1.3663 -0.1059
 1866TIP3    H229794   2.754   5.979   2.493  0.4065 -1.6302 -0.4484
 1867TIP3   OH229795   2.696   5.220   2.480 -0.5135 -0.2271 -0.4820
 1867TIP3    H129796   2.775   5.262   2.446 -0.3651  0.3251  0.5147
 1867TIP3    H229797   2.717   5.127   2.482  0.8174  0.0662  1.4889
 1868TIP3   OH229798   3.965   6.277   8.963 -0.3315 -0.1638 -0.1808
 1868TIP3    H129799   3.965   6.183   8.946  2.2942 -0.4857  1.0399
 1868TIP3    H229800   3.925   6.315   8.885  1.6608 -2.1328 -2.3391
 1869TIP3   OH229801   4.728   0.105   8.049  0.5190  0.2066  0.1694
 1869TIP3    H129802   4.785   0.166   8.096  0.5460  0.5979 -0.3582
 1869TIP3    H229803   4.661   0.081   8.112 -1.8296  3.8210 -0.6549
 1870TIP3   OH229804   0.412   1.079   0.981  0.6702  0.4812 -0.0919
 1870TIP3    H129805   0.464   1.137   1.036 -0.7000  2.8059 -1.0819
 1870TIP3    H229806   0.331   1.065   1.030  0.3249  0.8044 -0.5556
 1871TIP3   OH229807   3.461   3.978   1.454 -0.3927  0.4298 -0.0759
 1871TIP3    H129808   3.403   3.948   1.384  2.0470 -1.5287 -1.4244
 1871TIP3    H229809   3.441   4.071   1.465 -1.2049  0.6875 -3.0466
 1872TIP3   OH229810   2.640   6.422   9.023 -0.1171 -0.5656 -0.4088
 1872TIP3    H129811   2.643   6.453   8.933  1.4040  1.5115  0.2798
 1872TIP3    H229812   2.562   6.462   9.061  0.4297  0.3506 -0.2325
 1873TIP3   OH229813   3.555   5.112   7.791  0.0659 -0.0142  0.5297
 1873TIP3    H129814   3.498   5.064   7.730  0.4270 -0.3173  0.4301
 1873TIP3    H229815   3.597   5.179   7.736 -2.0610  1.9075  1.0408
 1874TIP3   OH229816   5.558   0.687   0.166 -0.6575 -0.2074 -0.0261
 1874TIP3    H129817   5.514   0.721   0.088 -1.7758 -1.4299  0.0415
 1874TIP3    H229818   5.607   0.761   0.200 -2.0520  1.0092 -0.5627
 1875TIP3   OH229819   0.237   2.372   8.810 -0.5340 -0.0593 -0.1683
 1875TIP3    H129820   0.272   2.295   8.766 -1.6354 -0.5339 -0.2460
 1875TIP3    H229821   0.312   2.412   8.853 -0.1939 -2.0136  1.1438
 1876TIP3   OH229822   6.996   1.449   8.749  0.2367 -0.1944 -0.0917
 1876TIP3    H129823   7.009   1.359   8.717  0.7367 -0.2285  0.2042
 1876TIP3    H229824   6.939   1.439   8.825 -0.9676 -0.1124 -0.9655
 1877TIP3   OH229825   0.808   4.613   7.943 -0.2227 -0.5275 -0.3520
 1877TIP3    H129826   0.860   4.621   7.863 -0.4122 -0.3510 -0.4598
 1877TIP3    H229827   0.872   4.615   8.013  0.0911 -2.3607 -0.5500
 1878TIP3   OH229828   1.285   0.176   1.723 -0.0843  0.3726  0.1076
 1878TIP3    H129829   1.212   0.171   1.661  0.5926 -2.3772 -0.6152
 1878TIP3    H229830   1.361   0.149   1.672  1.0380  0.9786  1.4133
 1879TIP3   OH229831   7.202   4.565   0.678 -0.5754  0.9107 -0.6954
 1879TIP3    H129832   7.256   4.609   0.745  0.1672 -1.1211  0.1192
 1879TIP3    H229833   7.117   4.553   0.720 -0.0975 -0.4003 -0.0543
 1880TIP3   OH229834   4.441   2.174   8.984 -0.2767  0.0114 -0.2572
 1880TIP3    H129835   4.388   2.104   8.945 -0.7326  0.1005  0.1774
 1880TIP3    H229836   4.531   2.143   8.978 -0.3770 -0.1367 -1.0319
 1881TIP3   OH229837   1.951   5.008   9.565  0.1518 -0.2089 -0.0476
 1881TIP3    H129838   2.005   5.064   9.510  0.2620  0.8113  1.0729
 1881TIP3    H229839   1.944   5.054   9.648 -0.9097 -1.2029  0.4515
 1882TIP3   OH229840   0.924   4.585   8.191 -0.1288 -0.5902 -0.6377
 1882TIP3    H129841   0.995   4.637   8.230  1.1157 -1.8258 -1.1410
 1882TIP3    H229842   0.870   4.559   8.266  0.9737 -1.0918  0.0148
 1883TIP3   OH229843   1.960   4.893   0.174 -0.1334  0.1875 -0.5165
 1883TIP3    H129844   2.043   4.855   0.203  1.8760  1.8727 -3.4980
 1883TIP3    H229845   1.975   4.988   0.175 -2.5318  0.6245  0.0862
 1884TIP3   OH229846   6.577   3.235   6.846 -0.6486  0.9646 -0.1451
 1884TIP3    H129847   6.614   3.192   6.924 -1.1392  2.5500  1.0042
 1884TIP3    H229848   6.648   3.233   6.782 -0.4944 -1.0933  0.0107
 1885TIP3   OH229849   5.771   1.445   0.892 -0.8532  0.3252  0.0349
 1885TIP3    H129850   5.699   1.389   0.861 -0.1257 -0.9200  0.4950
 1885TIP3    H229851   5.837   1.438   0.822 -0.5276  0.1273  0.3577
 1886TIP3   OH229852   4.962   0.068   1.869  0.6165 -0.0108  0.2733
 1886TIP3    H129853   4.872   0.059   1.837  0.7149  0.3637 -0.1099
 1886TIP3    H229854   5.017   0.046   1.794  0.8537  1.2841  0.0394
 1887TIP3   OH229855   7.153   1.698   9.006  0.5433 -0.1234 -0.6529
 1887TIP3    H129856   7.140   1.617   9.055  0.8892  1.0770  1.6015
 1887TIP3    H229857   7.067   1.717   8.967  0.2783 -1.1934 -0.6044
 1888TIP3   OH229858   1.345   5.480   0.699 -0.0488 -0.2260 -0.0498
 1888TIP3    H129859   1.254   5.510   0.690 -0.1151 -0.3292  0.2787
 1888TIP3    H229860   1.384   5.541   0.761 -0.1529 -0.7491  0.5366
 1889TIP3   OH229861   2.478   4.910   7.945 -0.3931 -0.3718  0.6583
 1889TIP3    H129862   2.411   4.958   7.896 -0.8178 -0.1775  1.4064
 1889TIP3    H229863   2.555   4.912   7.889 -1.0173 -0.6341 -0.2477
 1890TIP3   OH229864   6.706   0.099   2.482  0.1685  0.3990  0.0784
 1890TIP3    H129865   6.789   0.147   2.487 -0.6723  1.8848  0.3686
 1890TIP3    H229866   6.655   0.133   2.555 -0.7858 -0.3397 -0.2330
 1891TIP3   OH229867   0.350   1.865   0.436  0.0492 -0.5684  0.4023
 1891TIP3    H129868   0.360   1.927   0.363 -1.2827  2.6330  2.7315
 1891TIP3    H229869   0.437   1.861   0.476  0.1448 -0.2409  0.2288
 1892TIP3   OH229870   0.380   7.271   9.312 -0.0458  0.3928 -0.0272
 1892TIP3    H129871   0.313   7.268   9.381 -0.7198 -1.5675 -0.7178
 1892TIP3    H229872   0.419   7.184   9.312 -0.0165  0.3687 -2.0906
 1893TIP3   OH229873   4.098   6.717   1.726 -0.2182 -0.2286 -0.9093
 1893TIP3    H129874   4.121   6.624   1.734  1.6969  0.2768 -0.1016
 1893TIP3    H229875   4.152   6.761   1.791  0.4470  1.7033 -2.6576
 1894TIP3   OH229876   3.940   6.665   1.368  0.5529 -0.2996  0.1506
 1894TIP3    H129877   3.981   6.751   1.356  2.2372 -1.2200 -0.9833
 1894TIP3    H229878   3.953   6.645   1.461 -0.8213  1.1091  0.6846
 1895TIP3   OH229879   0.054   5.830   0.355  0.4035  0.0065 -0.0056
 1895TIP3    H129880  -0.025   5.862   0.398  0.4301  0.4603 -0.2974
 1895TIP3    H229881   0.031   5.742   0.325 -0.3643  0.5618 -1.1009
 1896TIP3   OH229882   1.282   4.539   9.548 -0.0902 -0.0517 -0.3598
 1896TIP3    H129883   1.257   4.579   9.464 -0.2736 -0.4638 -0.5005
 1896TIP3    H229884   1.202   4.498   9.580 -0.1691  0.5884  0.2956
 1897TIP3   OH229885   6.878   0.367   8.600 -0.5796 -0.2172  0.6002
 1897TIP3    H129886   6.963   0.346   8.639 -0.4636 -2.3018 -0.6476
 1897TIP3    H229887   6.892   0.451   8.556  1.0940 -0.8817 -0.2418
 1898TIP3   OH229888   5.944   6.468   0.202 -0.1515  0.0538  0.5699
 1898TIP3    H129889   6.022   6.520   0.182  0.5773 -1.1793  0.0823
 1898TIP3    H229890   5.967   6.418   0.280 -0.3379 -0.5246  0.2670
 1899TIP3   OH229891   0.047   7.058   1.542  0.3709 -0.1484 -0.1175
 1899TIP3    H129892   0.067   6.986   1.602 -0.1194  1.2325  1.8283
 1899TIP3    H229893   0.040   7.135   1.599  0.5526  1.3942 -2.0596
 1900TIP3   OH229894   2.892   6.718   6.601 -0.1498  0.3052  0.1520
 1900TIP3    H129895   2.840   6.768   6.538  0.2204 -0.5082 -0.8273
 1900TIP3    H229896   2.837   6.642   6.622 -0.6868  1.0538  1.5835
 1901TIP3   OH229897   6.834   4.992   2.531 -0.2942 -0.3958  0.3804
 1901TIP3    H129898   6.828   5.046   2.452 -1.2647 -1.4137 -0.2608
 1901TIP3    H229899   6.908   4.934   2.515  0.0395 -0.0341  0.5905
 1902TIP3   OH229900   3.989   4.333   9.129  0.6083  0.0898  0.0781
 1902TIP3    H129901   3.898   4.303   9.135  0.3993  0.6677 -0.0833
 1902TIP3    H229902   3.987   4.422   9.167  1.2284 -0.1296  0.6490
 1903TIP3   OH229903   6.314   3.817   0.740 -0.2456 -0.6177 -0.1974
 1903TIP3    H129904   6.315   3.726   0.770 -1.1582 -0.3202  0.7888
 1903TIP3    H229905   6.248   3.860   0.795 -0.6129  0.3964 -1.3873
 1904TIP3   OH229906   6.173   6.361   8.280 -0.0998 -0.0821 -0.6369
 1904TIP3    H129907   6.248   6.316   8.318 -0.6360 -0.1607  0.3714
 1904TIP3    H229908   6.109   6.366   8.352 -0.1894  1.9776 -0.8019
 1905TIP3   OH229909   0.631   0.831   6.741 -0.1108  0.1016 -0.2464
 1905TIP3    H129910   0.693   0.898   6.769  1.4096 -0.7141 -1.4997
 1905TIP3    H229911   0.601   0.790   6.822  0.7983  0.6872  0.4054
 1906TIP3   OH229912   6.954   5.480   0.318 -0.7972  0.2759  0.0706
 1906TIP3    H129913   6.994   5.429   0.389 -0.3285 -0.6331 -0.8229
 1906TIP3    H229914   6.864   5.494   0.347 -0.4207  0.5562  1.1736
 1907TIP3   OH229915   4.428   2.795   1.853  0.2202  0.4891 -0.1387
 1907TIP3    H129916   4.362   2.835   1.797 -0.4353 -1.9043 -1.2402
 1907TIP3    H229917   4.485   2.867   1.878 -2.3736  2.5672  0.3135
 1908TIP3   OH229918   0.758   7.150   7.509  0.2175  0.2083 -0.4876
 1908TIP3    H129919   0.698   7.082   7.479  1.0365 -0.7419 -0.0262
 1908TIP3    H229920   0.706   7.202   7.571  0.0871 -1.1375  0.5916
 1909TIP3   OH229921   3.810   1.899   9.128  0.0979  0.3086  0.2245
 1909TIP3    H129922   3.753   1.951   9.183  0.7915 -1.0980  2.4026
 1909TIP3    H229923   3.759   1.820   9.108 -1.1268  1.8199 -3.4282
 1910TIP3   OH229924   2.494   3.322   2.395  0.1152  0.5569 -0.4882
 1910TIP3    H129925   2.583   3.286   2.395  0.2668  0.8646 -1.7154
 1910TIP3    H229926   2.453   3.283   2.318 -0.1267  2.0013 -1.1223
 1911TIP3   OH229927   3.644   4.058   9.977 -0.0014  0.2673  0.4114
 1911TIP3    H129928   3.701   4.004   9.923 -0.2867  0.5322 -0.1678
 1911TIP3    H229929   3.699   4.133  10.002  0.8206 -0.9014  2.3360
 1912TIP3   OH229930   4.414   2.661   0.116 -0.2615  0.3099 -0.4261
 1912TIP3    H129931   4.475   2.617   0.175 -0.0157  2.3327  0.9500
 1912TIP3    H229932   4.428   2.619   0.031  0.6046 -1.5473  0.5624
 1913TIP3   OH229933   3.652   0.761   1.148  0.1998 -0.3846  0.3713
 1913TIP3    H129934   3.562   0.784   1.172 -2.3339 -2.6332 -5.3127
 1913TIP3    H229935   3.678   0.827   1.084  2.2506 -0.4184  1.0802
 1914TIP3   OH229936   3.272   6.996   0.184 -0.2283 -0.1346 -0.2637
 1914TIP3    H129937   3.224   7.070   0.219 -1.1651  0.0424 -1.8420
 1914TIP3    H229938   3.344   7.035   0.134  0.0843 -0.3301  0.0303
 1915TIP3   OH229939   3.394   4.905   0.787  0.8643  0.1451  0.2977
 1915TIP3    H129940   3.363   4.825   0.830  0.3592  0.2669  0.1763
 1915TIP3    H229941   3.362   4.976   0.843 -0.0743  0.3185 -0.4222
 1916TIP3   OH229942   7.024   6.775   1.399  0.4996  0.4176  0.1487
 1916TIP3    H129943   7.080   6.705   1.366 -1.9620 -0.2588 -3.0562
 1916TIP3    H229944   6.949   6.729   1.437  0.5461  1.3301  1.4091
 1917TIP3   OH229945   7.170   0.992   9.983  0.3118  0.3404  0.5751
 1917TIP3    H129946   7.258   1.007   9.950 -1.0670  0.5028 -3.5570
 1917TIP3    H229947   7.121   1.069   9.954 -1.5397 -0.4499  1.4664
 1918TIP3   OH229948   6.717   5.101   2.745  0.3096  0.1802  0.1039
 1918TIP3    H129949   6.674   5.186   2.743  1.2898  0.6861 -0.0356
 1918TIP3    H229950   6.735   5.082   2.653 -0.1146 -0.3012  0.1119
 1919TIP3   OH229951   1.436   0.683   1.586  0.0296 -0.0969 -0.3001
 1919TIP3    H129952   1.369   0.663   1.652  0.8806 -1.2577  0.2402
 1919TIP3    H229953   1.387   0.687   1.504 -0.3283 -4.7157 -0.5440
 1920TIP3   OH229954   2.629   1.203   1.212 -0.0313 -0.0527  0.5316
 1920TIP3    H129955   2.677   1.277   1.247  0.7262  0.0921 -0.7377
 1920TIP3    H229956   2.537   1.226   1.223  0.1557  1.8038 -1.2037
 1921TIP3   OH229957   2.871   2.307   9.403  0.0790  0.0352 -0.2194
 1921TIP3    H129958   2.898   2.227   9.447  0.0076  0.4200  0.5409
 1921TIP3    H229959   2.844   2.278   9.315 -1.9572 -1.1017  0.7006
 1922TIP3   OH229960   1.804   4.207   0.739  0.5578 -0.0847  0.7345
 1922TIP3    H129961   1.751   4.260   0.798  0.2667 -0.6338  0.9659
 1922TIP3    H229962   1.808   4.259   0.658 -1.5241 -0.6503  0.2022
 1923TIP3   OH229963   4.431   0.026   1.864  0.7854  0.1967 -0.4806
 1923TIP3    H129964   4.426  -0.054   1.916 -0.3526  0.3384 -0.3345
 1923TIP3    H229965   4.406   0.096   1.925 -0.7292  0.3448 -1.2110
 1924TIP3   OH229966   6.702   0.533   1.660 -0.1671 -0.3017  0.2577
 1924TIP3    H129967   6.793   0.558   1.674 -0.2279 -0.7809  1.6609
 1924TIP3    H229968   6.674   0.586   1.585  1.2309 -0.1001 -0.1473
 1925TIP3   OH229969   1.661   4.440   0.216 -0.0812 -0.2361  0.7896
 1925TIP3    H129970   1.743   4.435   0.265  0.4726  0.9846  0.0346
 1925TIP3    H229971   1.684   4.487   0.136 -0.3356 -4.4668 -2.0534
 1926TIP3   OH229972   5.458   6.156   0.989  0.4675  0.3882 -0.1054
 1926TIP3    H129973   5.499   6.199   0.914 -0.5290 -0.5708 -1.2492
 1926TIP3    H229974   5.405   6.086   0.951 -0.7910  0.4356  1.4148
 1927TIP3   OH229975   4.449   4.089   2.225  0.2276  0.3301  0.2133
 1927TIP3    H129976   4.386   4.051   2.286 -0.3119  1.2581  0.2595
 1927TIP3    H229977   4.472   4.174   2.264 -1.3057  1.6777 -1.5763
 1928TIP3   OH229978   5.654   2.828   2.247  0.4557  0.5892 -0.7560
 1928TIP3    H129979   5.614   2.766   2.185 -1.3569 -1.1160  1.8977
 1928TIP3    H229980   5.720   2.776   2.293 -0.2779  0.9069  0.7205
 1929TIP3   OH229981   1.885   0.063   7.895 -0.2842  0.0321 -0.5172
 1929TIP3    H129982   1.858  -0.026   7.920  2.2005 -1.3393 -2.2973
 1929TIP3    H229983   1.937   0.094   7.969  0.1953 -0.6606 -0.5591
 1930TIP3   OH229984   1.587   3.862   9.259 -0.1942 -0.2556  0.1143
 1930TIP3    H129985   1.592   3.938   9.202 -1.0585 -0.5323 -0.3529
 1930TIP3    H229986   1.512   3.879   9.316 -1.0487 -1.1974 -0.6904
 1931TIP3   OH229987   1.270   1.063   1.311 -0.0254 -0.3229 -0.2211
 1931TIP3    H129988   1.239   1.105   1.231 -1.6205  0.1704  0.6222
 1931TIP3    H229989   1.319   1.132   1.357 -0.4576 -0.1285 -0.0441
 1932TIP3   OH229990   0.997   2.584   2.172  0.2575  0.1191  0.1396
 1932TIP3    H129991   1.031   2.572   2.261 -0.0457  0.2516  0.2758
 1932TIP3    H229992   1.064   2.547   2.115  0.5861  0.2915  0.4112
 1933TIP3   OH229993   3.058   5.081   2.356 -0.2066  0.1224  0.7550
 1933TIP3    H129994   3.070   5.090   2.451  1.2635  1.1338  0.5092
 1933TIP3    H229995   3.093   5.162   2.320 -1.0450 -0.1081 -0.6564
 1934TIP3   OH229996   1.977   6.174   8.855 -0.1770  0.1660 -0.0390
 1934TIP3    H129997   1.980   6.246   8.919  0.9330 -0.4604  0.6435
 1934TIP3    H229998   1.970   6.218   8.770  0.6382  1.1072  0.3591
 1935TIP3   OH229999   3.798   5.290   6.575 -0.7435  1.0186  0.3458
 1935TIP3    H130000   3.713   5.326   6.601 -0.6120  2.1002 -0.6032
 1935TIP3    H230001   3.859   5.364   6.586  0.2060  0.0769  1.6344
 1936TIP3   OH230002   0.366   3.610   8.122 -0.1987  0.0128  0.0605
 1936TIP3    H130003   0.418   3.536   8.153  0.2027 -0.2489 -1.1895
 1936TIP3    H230004   0.423   3.655   8.060 -0.0057  2.0381  1.5701
 1937TIP3   OH230005   0.955   2.260   8.762 -0.3625 -0.2421 -0.7683
 1937TIP3    H130006   0.929   2.216   8.682  0.1018  0.6039 -1.3988
 1937TIP3    H230007   1.028   2.209   8.796 -0.6625 -0.6914 -0.7974
 1938TIP3   OH230008   6.737   4.209   8.793 -0.0975  0.5716 -0.6013
 1938TIP3    H130009   6.768   4.146   8.728 -0.1439  1.0043 -1.0427
 1938TIP3    H230010   6.643   4.193   8.800 -0.0516  0.3539 -0.4481
 1939TIP3   OH230011   0.650   4.697   8.502 -0.1135 -0.0446 -0.3815
 1939TIP3    H130012   0.697   4.717   8.583  1.5487  0.2737 -1.3747
 1939TIP3    H230013   0.669   4.772   8.445 -0.3861 -0.7395 -1.4108
 1940TIP3   OH230014   4.894   1.565   7.608 -0.1947 -0.4421 -0.5727
 1940TIP3    H130015   4.886   1.548   7.702 -0.6176  0.1277 -0.4954
 1940TIP3    H230016   4.833   1.637   7.592  1.5040  0.9985 -0.8698
 1941TIP3   OH230017   4.996   2.773   9.708  0.3291  0.0287  0.8556
 1941TIP3    H130018   4.915   2.822   9.717 -0.2942 -0.9639  0.7869
 1941TIP3    H230019   4.998   2.747   9.615  1.3669  1.1184  0.5470
 1942TIP3   OH230020   1.779   1.775   1.545 -0.2809 -0.5029 -0.1770
 1942TIP3    H130021   1.834   1.817   1.611  0.6016 -0.1180 -1.1349
 1942TIP3    H230022   1.726   1.712   1.594  0.5020 -0.3696  0.8634
 1943TIP3   OH230023   1.524   5.939   1.174  0.2449  0.2264 -0.4557
 1943TIP3    H130024   1.588   5.884   1.219  1.0652  1.1595 -0.4656
 1943TIP3    H230025   1.555   5.944   1.084 -0.9497 -0.9576 -0.9793
 1944TIP3   OH230026   0.462   5.067   1.946 -0.2842 -0.2308  0.1595
 1944TIP3    H130027   0.500   4.989   1.905 -0.1330 -0.2110  0.2613
 1944TIP3    H230028   0.368   5.050   1.946 -0.3031 -0.1393 -0.3843
 1945TIP3   OH230029   3.637   6.866   9.713 -0.8731  0.4684  0.4043
 1945TIP3    H130030   3.721   6.837   9.678 -0.4205 -0.5630  2.2335
 1945TIP3    H230031   3.617   6.946   9.663  2.6118  2.4362  1.7866
 1946TIP3   OH230032   1.861   0.625   9.270 -0.3573 -0.5298  0.3448
 1946TIP3    H130033   1.883   0.596   9.359  0.0793  2.6252  1.4003
 1946TIP3    H230034   1.772   0.660   9.278  0.1231  0.8408 -0.1544
 1947TIP3   OH230035   6.862   2.224   7.000 -0.6193 -0.1092  0.3730
 1947TIP3    H130036   6.887   2.264   6.916  0.2614 -3.0056 -0.8530
 1947TIP3    H230037   6.770   2.246   7.011 -0.0809  2.6805  0.1285
 1948TIP3   OH230038   7.019   4.336   8.279 -0.5780  0.8813 -0.1269
 1948TIP3    H130039   7.107   4.316   8.248 -0.4550  0.0474  0.7109
 1948TIP3    H230040   7.011   4.431   8.269 -0.2178  0.7673 -1.7986
 1949TIP3   OH230041   1.904   2.574   9.846 -0.8751  0.3372  0.2560
 1949TIP3    H130042   1.903   2.547   9.754  0.3823  0.7491  0.0978
 1949TIP3    H230043   1.964   2.512   9.888 -1.6724 -0.0324  0.8693
 1950TIP3   OH230044   4.056   0.205   7.232 -0.8144 -0.6178 -0.0022
 1950TIP3    H130045   3.979   0.149   7.222 -0.7286 -0.3966 -2.2955
 1950TIP3    H230046   4.098   0.204   7.147  0.7020  0.7912  0.6717
 1951TIP3   OH230047   2.561   6.928   7.888  0.0492  0.2967  0.1582
 1951TIP3    H130048   2.493   6.865   7.866  0.3299 -0.1054  0.4245
 1951TIP3    H230049   2.567   6.925   7.984  0.4375  0.3305  0.1397
 1952TIP3   OH230050   2.141   4.393   9.742  0.3434  0.0903 -0.4165
 1952TIP3    H130051   2.144   4.363   9.833 -0.6557 -0.4394 -0.5401
 1952TIP3    H230052   2.215   4.349   9.700  1.5015  1.2259  0.3726
 1953TIP3   OH230053   3.273   3.707   2.452  0.3008  0.0285 -0.2929
 1953TIP3    H130054   3.276   3.725   2.546 -0.5713 -1.3033  0.0162
 1953TIP3    H230055   3.265   3.794   2.411 -0.8390  0.5394  0.9588
 1954TIP3   OH230056   1.086   1.307   9.772  0.4507 -0.1329  0.0059
 1954TIP3    H130057   0.995   1.333   9.783  0.6744  0.6747  0.0519
 1954TIP3    H230058   1.083   1.223   9.726 -0.2949  0.1952 -0.5545
 1955TIP3   OH230059   6.982   0.862   7.383 -0.1505  1.0536  0.4072
 1955TIP3    H130060   6.922   0.876   7.310 -0.3706 -0.3567  0.3000
 1955TIP3    H230061   6.937   0.801   7.441  1.8329 -1.5185 -0.5522
 1956TIP3   OH230062   4.033   6.581   2.506  0.1020 -0.3951 -0.2198
 1956TIP3    H130063   3.965   6.635   2.546 -0.2037 -0.9747  0.0521
 1956TIP3    H230064   4.114   6.629   2.522  0.3294 -1.6751  3.1854
 1957TIP3   OH230065   3.330   5.839   2.049 -0.8336 -0.3575  0.2467
 1957TIP3    H130066   3.261   5.833   2.116 -1.2911 -1.0343 -0.2688
 1957TIP3    H230067   3.409   5.860   2.098 -0.5798 -3.5055  1.4160
 1958TIP3   OH230068   3.916   0.602   1.131  0.0262  0.0318  0.2720
 1958TIP3    H130069   3.970   0.675   1.099  1.7339 -0.4639  1.8341
 1958TIP3    H230070   3.830   0.640   1.144  0.5912  1.4896 -0.0061
 1959TIP3   OH230071   5.843   5.913   0.477  0.1872 -0.1684 -0.4528
 1959TIP3    H130072   5.899   5.914   0.554 -0.5768 -0.1075  0.1144
 1959TIP3    H230073   5.879   5.844   0.422  0.8974 -0.0342 -0.1703
 1960TIP3   OH230074   5.892   1.068   1.832  0.0115  0.1490 -0.4632
 1960TIP3    H130075   5.955   1.035   1.897  1.1932  0.6447 -1.3165
 1960TIP3    H230076   5.828   1.117   1.883  0.2593 -0.4550  0.4457
 1961TIP3   OH230077   5.178   6.771   9.493 -0.3539  0.3974 -0.0724
 1961TIP3    H130078   5.206   6.705   9.556 -0.1482 -0.1789 -0.7570
 1961TIP3    H230079   5.257   6.791   9.442 -0.8418 -0.1982 -1.0895
 1962TIP3   OH230080   1.417   1.283   7.785  0.8507 -0.3014 -0.8833
 1962TIP3    H130081   1.430   1.377   7.800  0.4541 -0.0425 -2.0620
 1962TIP3    H230082   1.322   1.270   7.794  0.9252 -0.6318 -0.5333
 1963TIP3   OH230083   3.819   0.466   7.706 -0.2755 -0.0878 -0.2744
 1963TIP3    H130084   3.759   0.392   7.719  0.3615 -0.5764 -0.0541
 1963TIP3    H230085   3.790   0.505   7.623 -1.2130  0.0009  0.0803
 1964TIP3   OH230086   0.347   3.166   7.932 -0.4626 -0.1313  0.3766
 1964TIP3    H130087   0.270   3.153   7.988  0.1584 -0.0669  1.2731
 1964TIP3    H230088   0.338   3.102   7.862 -1.2163 -0.2720  0.6010
 1965TIP3   OH230089   2.411   0.738   1.494 -0.0376  0.7313 -0.2939
 1965TIP3    H130090   2.367   0.738   1.409  2.3212 -2.4026 -1.7374
 1965TIP3    H230091   2.374   0.662   1.540  0.1268  1.2323  0.7022
 1966TIP3   OH230092   0.957   2.502   7.053  0.0665 -0.2489  0.9209
 1966TIP3    H130093   0.918   2.485   7.139 -0.7205  1.0435  0.8421
 1966TIP3    H230094   0.952   2.597   7.043  0.4464 -0.3568 -0.4235
 1967TIP3   OH230095   3.269   2.297   8.377 -0.1011  0.4079 -0.0993
 1967TIP3    H130096   3.222   2.302   8.294  0.0671  2.4052 -0.1338
 1967TIP3    H230097   3.357   2.329   8.357  0.5166 -0.8379  0.4913
 1968TIP3   OH230098   5.615   1.594   1.059  0.0312 -0.1111  0.2196
 1968TIP3    H130099   5.631   1.585   1.153  0.8522  2.4298  0.4108
 1968TIP3    H230100   5.673   1.530   1.018 -1.6916 -2.6101  1.4067
 1969TIP3   OH230101   3.500   5.861   1.304  0.2723 -0.1309  0.4317
 1969TIP3    H130102   3.483   5.835   1.213 -0.0734 -1.1019  0.7585
 1969TIP3    H230103   3.420   5.837   1.351 -0.3259  2.1022  0.6829
 1970TIP3   OH230104   2.186   3.361   9.841 -1.0947  0.1927  0.0528
 1970TIP3    H130105   2.197   3.452   9.815 -0.2832 -0.4491 -2.0005
 1970TIP3    H230106   2.267   3.339   9.887 -0.8446  0.2057 -0.3828
 1971TIP3   OH230107   5.500   4.625   9.963  0.0095 -0.0285 -0.4127
 1971TIP3    H130108   5.455   4.610  10.046  0.5493 -1.3517 -0.3246
 1971TIP3    H230109   5.497   4.719   9.950 -0.9776  0.0960  0.6030
 1972TIP3   OH230110   6.846   0.983   1.640 -0.6864  0.2507 -0.4205
 1972TIP3    H130111   6.818   1.041   1.569 -0.3959 -0.1473 -0.8610
 1972TIP3    H230112   6.770   0.978   1.698 -1.5181 -0.7074 -1.5390
 1973TIP3   OH230113   1.084   4.794   8.251  0.3314 -0.0765  0.1547
 1973TIP3    H130114   1.123   4.815   8.166 -0.4797  2.5563  0.3531
 1973TIP3    H230115   1.144   4.834   8.315 -0.9714  1.2462  0.6003
 1974TIP3   OH230116   0.619   3.874   2.070 -0.3534 -0.5630  0.0990
 1974TIP3    H130117   0.604   3.838   2.158 -1.0216 -1.1857 -0.2610
 1974TIP3    H230118   0.618   3.969   2.083 -2.1022 -0.6014  0.5279
 1975TIP3   OH230119   0.995   6.082   1.146  0.3643 -0.5208 -0.2816
 1975TIP3    H130120   1.038   6.060   1.063  0.3488 -1.2317 -0.1090
 1975TIP3    H230121   1.051   6.148   1.185 -0.2739  0.7589 -1.4197
 1976TIP3   OH230122   0.398   5.633   9.528 -0.3281 -0.0800 -0.2181
 1976TIP3    H130123   0.342   5.709   9.539 -0.6646 -0.2484 -0.7463
 1976TIP3    H230124   0.377   5.599   9.441  1.0295  0.2236 -0.6989
 1977TIP3   OH230125   0.461   6.718   0.173  0.4900  0.0218 -0.2279
 1977TIP3    H130126   0.404   6.643   0.192  3.5168 -2.3909  0.2508
 1977TIP3    H230127   0.480   6.711   0.080 -1.2590  1.8647 -0.7761
 1978TIP3   OH230128   1.743   4.682   0.509 -0.0379 -0.0450  0.3114
 1978TIP3    H130129   1.822   4.678   0.563 -0.1924 -2.0149  0.4680
 1978TIP3    H230130   1.676   4.719   0.566  0.4814  0.5643  0.5387
 1979TIP3   OH230131   3.145   5.574   9.410  0.2238 -0.4747  0.2415
 1979TIP3    H130132   3.110   5.507   9.351 -0.6016 -0.9438  1.2499
 1979TIP3    H230133   3.231   5.540   9.436 -0.9711 -2.1145  2.2537
 1980TIP3   OH230134   5.727   4.169   0.098  0.1278  0.2010 -0.0579
 1980TIP3    H130135   5.756   4.254   0.065  0.1407  1.4719  2.9224
 1980TIP3    H230136   5.632   4.176   0.105  0.2752  0.6456  1.7990
 1981TIP3   OH230137   4.126   5.301   8.917 -0.3824  0.5987  0.2588
 1981TIP3    H130138   4.084   5.311   8.832 -0.8544 -1.9285  0.1341
 1981TIP3    H230139   4.218   5.322   8.901 -0.8340  2.2238 -0.3604
 1982TIP3   OH230140   4.354   5.750   7.077 -0.3527  0.7485 -0.2528
 1982TIP3    H130141   4.415   5.798   7.021 -0.2410 -0.0726 -0.8579
 1982TIP3    H230142   4.319   5.681   7.020 -0.2509 -0.0939  0.6786
 1983TIP3   OH230143   7.188   6.280   2.436  0.3091 -0.8221  0.2253
 1983TIP3    H130144   7.135   6.305   2.511  0.0676  1.0049 -0.5008
 1983TIP3    H230145   7.205   6.187   2.448  1.1110 -0.3925  3.0348
 1984TIP3   OH230146   5.488   1.532   9.843  0.2705  0.2695 -0.1569
 1984TIP3    H130147   5.439   1.487   9.912  1.1277  1.0440  0.9963
 1984TIP3    H230148   5.562   1.474   9.825  0.5894  0.5192  0.3085
 1985TIP3   OH230149   2.264   1.448   8.880  0.0749  0.2455 -0.2461
 1985TIP3    H130150   2.202   1.426   8.949  0.0561  2.3112  0.4572
 1985TIP3    H230151   2.303   1.364   8.856  0.8995 -0.4679  3.0530
 1986TIP3   OH230152   3.470   0.031   8.016  0.0280 -0.0389  0.1023
 1986TIP3    H130153   3.431   0.102   7.965  0.9095 -0.8102 -1.7435
 1986TIP3    H230154   3.450   0.053   8.107 -1.3429  1.5668 -0.5350
 1987TIP3   OH230155   4.849   6.052   8.798  0.6135 -0.2843  0.6131
 1987TIP3    H130156   4.935   6.056   8.840  0.6276 -0.3926  0.5943
 1987TIP3    H230157   4.835   6.141   8.764  0.4432 -0.1008  1.1578
 1988TIP3   OH230158   1.875   3.623   9.649 -0.8311 -0.0321 -0.2838
 1988TIP3    H130159   1.923   3.541   9.660  0.3309  0.5073 -1.1742
 1988TIP3    H230160   1.812   3.605   9.579 -1.5485 -0.5586  0.4728
 1989TIP3   OH230161   0.373   3.167   9.825  0.1363  0.0972 -0.1943
 1989TIP3    H130162   0.382   3.182   9.731 -0.1066  1.7477  0.0162
 1989TIP3    H230163   0.434   3.228   9.865 -0.5896  0.2286  0.7460
 1990TIP3   OH230164   3.481   0.791   9.884  0.2280 -0.0838  0.2268
 1990TIP3    H130165   3.533   0.752   9.813  0.9746  0.3671  0.5156
 1990TIP3    H230166   3.413   0.726   9.903  1.5535 -1.3468  0.8204
 1991TIP3   OH230167   3.940   1.625   9.990  0.4612  0.5091  0.1717
 1991TIP3    H130168   3.896   1.692   9.938  0.4961 -0.5527 -1.3187
 1991TIP3    H230169   3.981   1.568   9.924  1.5156 -0.2347  1.4261
 1992TIP3   OH230170   6.400   2.259   1.328  0.3266 -0.1451  0.1321
 1992TIP3    H130171   6.489   2.248   1.361 -0.0670 -0.0097  1.3003
 1992TIP3    H230172   6.408   2.322   1.257  0.9788  0.9563  1.1565
 1993TIP3   OH230173   0.130   5.519   2.895 -0.1255  0.7037 -0.1990
 1993TIP3    H130174   0.047   5.524   2.940  0.8401 -1.6069  2.0581
 1993TIP3    H230175   0.184   5.588   2.935  0.3662 -0.6177  1.5531
 1994TIP3   OH230176   3.007   0.759   0.631 -0.0728 -0.3919  0.2862
 1994TIP3    H130177   2.989   0.665   0.640 -0.4931 -0.4218 -0.7754
 1994TIP3    H230178   2.944   0.801   0.689  0.4656 -0.7813  1.1727
 1995TIP3   OH230179   3.440   0.761   0.885  0.1950  0.5078  0.1823
 1995TIP3    H130180   3.429   0.800   0.799  2.1460 -1.1885 -0.9391
 1995TIP3    H230181   3.530   0.783   0.910 -0.4358  1.2722  1.9940
 1996TIP3   OH230182   6.172   2.164   9.120 -0.0955  0.4528  0.1304
 1996TIP3    H130183   6.205   2.179   9.032  0.5506  0.8402  0.4384
 1996TIP3    H230184   6.121   2.083   9.112 -0.2561  0.6212 -0.6502
 1997TIP3   OH230185   0.856   3.355   2.059  0.0444 -0.3520  0.4913
 1997TIP3    H130186   0.801   3.290   2.016  0.0897  0.4010 -0.7305
 1997TIP3    H230187   0.944   3.339   2.025  0.1439  0.0222  0.5630
 1998TIP3   OH230188   6.798   1.335   1.210 -0.4624  0.2756 -0.3055
 1998TIP3    H130189   6.736   1.272   1.173 -1.5265  1.6444 -0.9938
 1998TIP3    H230190   6.778   1.417   1.164  0.2604  1.3210  1.1541
 1999TIP3   OH230191   3.469   3.403   0.705  0.0634  0.1280  0.1944
 1999TIP3    H130192   3.520   3.461   0.647 -0.0773  1.5109  1.4030
 1999TIP3    H230193   3.499   3.315   0.682  1.2860  0.7526 -0.7591
 2000TIP3   OH230194   2.076   5.551   7.311  0.3328 -0.4349  0.6959
 2000TIP3    H130195   2.117   5.494   7.376  1.5602 -1.0824 -0.5805
 2000TIP3    H230196   2.113   5.521   7.227  0.3646  1.6927 -0.1046
 2001TIP3   OH230197   6.156   2.047   8.105 -0.2411 -0.1251 -0.4683
 2001TIP3    H130198   6.137   2.020   8.015 -2.0879 -2.5823  0.5366
 2001TIP3    H230199   6.239   2.003   8.126  0.0711  0.2620 -0.8662
 2002TIP3   OH230200   7.222   0.962   0.646 -0.0927 -0.2434 -0.0989
 2002TIP3    H130201   7.246   1.019   0.719 -1.2489  0.4594 -0.2501
 2002TIP3    H230202   7.242   0.873   0.677  0.3359  0.1236  0.6903
 2003TIP3   OH230203   6.196   4.790   9.540  0.7870 -0.3122 -0.7667
 2003TIP3    H130204   6.127   4.734   9.505 -0.2036 -0.0901  0.6911
 2003TIP3    H230205   6.153   4.875   9.552  1.2636 -0.1950  0.2443
 2004TIP3   OH230206   2.400   0.817   7.849 -0.3185  0.0901  0.0139
 2004TIP3    H130207   2.449   0.891   7.811  0.4980  0.1665  1.1528
 2004TIP3    H230208   2.464   0.745   7.851  0.4928  0.7377  3.3521
 2005TIP3   OH230209   7.180   1.148   9.617 -0.3261 -0.1623  0.6749
 2005TIP3    H130210   7.209   1.058   9.629 -0.0704 -0.4114 -1.3475
 2005TIP3    H230211   7.254   1.201   9.647  0.1242 -0.6728  0.4894
 2006TIP3   OH230212   3.659   4.437   0.735  1.1230 -0.3430 -0.1413
 2006TIP3    H130213   3.565   4.442   0.722  1.3476  0.6056 -1.5974
 2006TIP3    H230214   3.693   4.404   0.652  2.2241  1.1988 -0.3395
 2007TIP3   OH230215   3.907   5.756   8.806  0.4568 -0.3359 -0.3114
 2007TIP3    H130216   3.856   5.679   8.781  1.5846 -1.3862  0.5162
 2007TIP3    H230217   3.996   5.738   8.775  1.2174 -0.3564  1.7192
 2008TIP3   OH230218   5.124   3.724   1.118  0.0802  0.1101 -0.2740
 2008TIP3    H130219   5.197   3.695   1.173  1.0544  0.3213 -1.3961
 2008TIP3    H230220   5.054   3.661   1.136  0.5440 -0.1239  0.7992
 2009TIP3   OH230221   1.579   4.050   8.217 -0.5765 -0.0733  0.6461
 2009TIP3    H130222   1.664   4.094   8.219 -0.3293 -0.4599 -0.4855
 2009TIP3    H230223   1.563   4.023   8.307  0.3513  0.2780  0.9238
 2010TIP3   OH230224   3.269   2.440   0.342 -0.0839 -0.4225  0.2135
 2010TIP3    H130225   3.213   2.464   0.416  1.1317  0.7605  0.7853
 2010TIP3    H230226   3.354   2.421   0.380  0.0887 -1.7097 -0.7036
 2011TIP3   OH230227   6.777   2.561   8.139 -0.0421 -0.0541  0.0737
 2011TIP3    H130228   6.709   2.614   8.181 -2.3229 -1.6057 -1.4309
 2011TIP3    H230229   6.741   2.472   8.137  1.7344 -0.8159 -1.4377
 2012TIP3   OH230230   6.915   0.683   0.479 -0.7277  0.7141  0.0285
 2012TIP3    H130231   6.834   0.667   0.431  0.1284 -0.1420 -1.2200
 2012TIP3    H230232   6.920   0.778   0.489 -1.0634  0.8985 -1.3858
 2013TIP3   OH230233   3.601   1.195   2.637 -0.2387  0.0281  0.1171
 2013TIP3    H130234   3.601   1.228   2.547  0.0090  0.1615  0.1664
 2013TIP3    H230235   3.572   1.269   2.690  0.1741  0.1249  0.2111
 2014TIP3   OH230236   1.178   5.238   0.180 -0.1803 -0.1773  0.4892
 2014TIP3    H130237   1.127   5.201   0.108  0.3852  0.7290 -0.4053
 2014TIP3    H230238   1.260   5.189   0.178  0.9028  1.5877 -1.2289
 2015TIP3   OH230239   3.776   5.489   1.551  0.7757  0.3703 -0.0223
 2015TIP3    H130240   3.737   5.466   1.467  2.2019 -2.4579 -0.0278
 2015TIP3    H230241   3.701   5.516   1.605 -0.5227 -0.2786 -1.4110
 2016TIP3   OH230242   4.254   0.597   8.381 -0.6809 -0.5040  0.0942
 2016TIP3    H130243   4.314   0.542   8.331 -1.3859 -1.3512  0.1437
 2016TIP3    H230244   4.299   0.612   8.464  0.0554  0.0540 -0.4002
 2017TIP3   OH230245   4.607   6.004   2.123 -0.0162 -0.3724  0.8633
 2017TIP3    H130246   4.675   6.071   2.127 -2.9528  2.9252  0.3149
 2017TIP3    H230247   4.579   6.003   2.031 -0.8848 -1.4682  1.1138
 2018TIP3   OH230248   1.204   4.850   2.525 -0.0507  0.0270 -0.8448
 2018TIP3    H130249   1.142   4.923   2.524 -0.3763 -0.2390 -2.0978
 2018TIP3    H230250   1.248   4.855   2.440 -0.3854 -1.4808 -1.1378
 2019TIP3   OH230251   7.041   1.754   2.535 -0.2501  0.1878 -0.3292
 2019TIP3    H130252   7.069   1.748   2.627  1.3854 -0.3273 -0.8176
 2019TIP3    H230253   7.123   1.755   2.486 -1.0889  0.8892 -1.7813
 2020TIP3   OH230254   2.961   0.473   0.679 -0.3310 -0.1853 -0.3261
 2020TIP3    H130255   2.912   0.422   0.614  3.9180 -1.7028 -2.7306
 2020TIP3    H230256   2.977   0.411   0.751 -0.7048 -0.1440 -0.2069
 2021TIP3   OH230257   5.254   2.905   9.986 -0.3306 -0.1070 -0.7409
 2021TIP3    H130258   5.320   2.836   9.991 -0.0261 -0.2146 -3.8680
 2021TIP3    H230259   5.296   2.982  10.023  0.5410 -0.8085 -0.2302
 2022TIP3   OH230260   6.833   0.634   7.125 -0.1070  1.1574  0.5681
 2022TIP3    H130261   6.844   0.729   7.124 -0.4721  1.2004  0.1496
 2022TIP3    H230262   6.792   0.614   7.041  2.7521  0.2732 -0.7157
 2023TIP3   OH230263   2.071   7.119   7.096 -0.6607  0.2414 -0.3529
 2023TIP3    H130264   2.166   7.115   7.085 -0.4935  0.9574  0.7280
 2023TIP3    H230265   2.041   7.030   7.076  0.3751 -0.3248  0.5244
 2024TIP3   OH230266   5.679   4.221   1.512  0.5001 -0.1708  0.1280
 2024TIP3    H130267   5.652   4.281   1.582  0.0824 -1.9038  1.5272
 2024TIP3    H230268   5.767   4.193   1.538  1.2787  0.8877 -1.2674
 2025TIP3   OH230269   5.120   0.497   2.773 -0.0812  0.1672  0.0749
 2025TIP3    H130270   5.170   0.551   2.834 -0.4750  1.8405 -1.0157
 2025TIP3    H230271   5.036   0.484   2.817 -0.1765  0.9213  0.1356
 2026TIP3   OH230272   7.006   7.214   8.856  0.1061  0.6924 -0.2310
 2026TIP3    H130273   7.088   7.263   8.847  0.1044  0.6917 -0.2523
 2026TIP3    H230274   6.998   7.199   8.951 -0.0384  0.9794 -0.1979
 2027TIP3   OH230275   6.551   6.437   1.997  0.6155  0.1636  0.2117
 2027TIP3    H130276   6.465   6.433   2.039  0.8740 -1.9750  0.6697
 2027TIP3    H230277   6.613   6.431   2.069  1.1212 -0.0421 -0.2323
 2028TIP3   OH230278   3.922   7.004   9.654  0.2467 -0.4217  0.2640
 2028TIP3    H130279   3.910   7.057   9.576 -1.2401 -0.3957  0.4782
 2028TIP3    H230280   3.896   6.916   9.628  0.6984 -0.6250  0.4757
 2029TIP3   OH230281   1.595   1.477   7.424  0.4889 -0.0539  0.1819
 2029TIP3    H130282   1.687   1.498   7.439  0.2616  0.6915  0.5767
 2029TIP3    H230283   1.592   1.381   7.426  1.6608 -0.2240 -2.2504
 2030TIP3   OH230284   5.854   7.106   8.335 -0.5195  0.3027 -0.5827
 2030TIP3    H130285   5.804   7.166   8.391 -0.0297 -1.4383  1.9085
 2030TIP3    H230286   5.945   7.128   8.352 -0.3537 -0.6121 -0.2658
 2031TIP3   OH230287   0.842   5.402   9.261  0.6704 -0.0992  0.2802
 2031TIP3    H130288   0.785   5.455   9.317  1.7747  0.4084  0.9573
 2031TIP3    H230289   0.904   5.465   9.223  2.5748 -0.9429  1.7923
 2032TIP3   OH230290   3.892   0.182   1.266  0.4342 -0.8616  0.4289
 2032TIP3    H130291   3.965   0.137   1.309  2.3073  0.2534 -1.3961
 2032TIP3    H230292   3.934   0.245   1.208 -1.9743 -0.7511 -1.3448
 2033TIP3   OH230293   2.615   4.550   7.448  0.2584 -0.3356  0.2554
 2033TIP3    H130294   2.614   4.454   7.443 -1.5427 -0.3391 -0.0991
 2033TIP3    H230295   2.551   4.578   7.382 -1.3775  0.9619  2.2414
 2034TIP3   OH230296   7.225   0.249   8.646  0.0440  0.4265 -0.3641
 2034TIP3    H130297   7.254   0.325   8.697  0.8016 -0.4323  0.5472
 2034TIP3    H230298   7.233   0.175   8.708 -1.1357 -0.3180 -1.0698
 2035TIP3   OH230299   4.332   2.871   9.565 -0.1090  0.1681  0.4040
 2035TIP3    H130300   4.304   2.822   9.488  0.3757 -1.4531  1.2226
 2035TIP3    H230301   4.396   2.934   9.531 -0.9120  0.4409 -0.6971
 2036TIP3   OH230302   6.098   1.555   7.852  0.0152  0.3601  0.4444
 2036TIP3    H130303   6.045   1.635   7.849  0.1409  0.5074  1.6527
 2036TIP3    H230304   6.044   1.492   7.900  1.1904  0.7529  2.3797
 2037TIP3   OH230305   2.829   4.303   9.459 -0.1155  0.5599 -0.2335
 2037TIP3    H130306   2.924   4.300   9.461 -0.1075  0.9584 -0.0205
 2037TIP3    H230307   2.809   4.386   9.414 -0.3556  0.0669 -1.0585
 2038TIP3   OH230308   1.132   6.876   1.120  0.6367 -0.2909 -0.3585
 2038TIP3    H130309   1.113   6.816   1.192 -2.2409  2.0192  1.0168
 2038TIP3    H230310   1.202   6.933   1.153 -0.5051  0.6015  0.6313
 2039TIP3   OH230311   6.173   3.922   1.151  0.0657 -0.1486  0.2311
 2039TIP3    H130312   6.187   3.971   1.071  0.2997 -0.1758  0.2544
 2039TIP3    H230313   6.113   3.852   1.126  0.2684 -0.2563  0.0401
 2040TIP3   OH230314   7.260   3.699   8.380 -0.4181 -0.9159 -0.5097
 2040TIP3    H130315   7.356   3.689   8.381  0.0009  1.9219  2.2713
 2040TIP3    H230316   7.243   3.757   8.307  0.6366  2.0185  1.3824
 2041TIP3   OH230317   4.201   2.263   7.383 -0.2245 -0.6023 -0.5844
 2041TIP3    H130318   4.266   2.193   7.396 -0.8137 -0.8953  0.9688
 2041TIP3    H230319   4.150   2.234   7.308 -0.2998 -1.7346 -0.1148
 2042TIP3   OH230320   3.296   4.679   2.410 -0.3530  0.7361 -0.0215
 2042TIP3    H130321   3.384   4.716   2.401  0.0353 -0.4552 -1.3478
 2042TIP3    H230322   3.311   4.592   2.448 -0.8615  0.2103 -0.9889
 2043TIP3   OH230323   0.625   0.918   8.511  0.9119 -0.8195 -0.4237
 2043TIP3    H130324   0.536   0.948   8.527  0.3747 -1.8167 -1.4772
 2043TIP3    H230325   0.635   0.839   8.565  1.7774  0.2347  1.0569
 2044TIP3   OH230326   0.873   7.001   9.558  0.5055  0.1983 -0.3583
 2044TIP3    H130327   0.892   6.964   9.644  1.9081  0.6038 -0.4745
 2044TIP3    H230328   0.914   6.941   9.496 -0.2602  0.0568 -0.7350
 2045TIP3   OH230329   3.543   6.150   1.443  0.0417  0.1194  0.0742
 2045TIP3    H130330   3.597   6.073   1.424 -0.0776 -0.3940  1.6588
 2045TIP3    H230331   3.536   6.195   1.359  0.8344 -1.1348 -0.7097
 2046TIP3   OH230332   3.233   0.324   7.517  0.1485 -1.0599 -0.4152
 2046TIP3    H130333   3.153   0.341   7.567  0.6036  1.0675 -0.3559
 2046TIP3    H230334   3.230   0.229   7.501 -1.1241 -1.4536  1.7101
 2047TIP3   OH230335   5.494   5.841   8.304  0.2065  0.4142 -0.0281
 2047TIP3    H130336   5.427   5.829   8.371 -0.2006 -0.7312 -0.6269
 2047TIP3    H230337   5.574   5.860   8.354  0.0555 -1.0737  0.8214
 2048TIP3   OH230338   1.924   4.302   1.510  0.1043  0.6799 -0.0075
 2048TIP3    H130339   1.916   4.244   1.434 -2.4181  1.4449 -0.4283
 2048TIP3    H230340   1.886   4.251   1.582 -0.4113  1.0979  0.0230
 2049TIP3   OH230341   1.680   4.773   0.924  0.1060  0.4856 -0.4448
 2049TIP3    H130342   1.698   4.694   0.975  1.0733  1.4869  0.8322
 2049TIP3    H230343   1.737   4.840   0.962 -0.6444  1.7965 -1.5290
 2050TIP3   OH230344   4.770   0.865   0.282  0.1030  0.1897  0.4699
 2050TIP3    H130345   4.847   0.812   0.263 -0.1033  0.0514  0.0019
 2050TIP3    H230346   4.697   0.802   0.282 -0.1152  0.4384  0.1103
 2051TIP3   OH230347   4.339   2.343   0.226 -0.8583  0.2828 -0.0035
 2051TIP3    H130348   4.273   2.276   0.245 -0.2275 -0.0689  0.9811
 2051TIP3    H230349   4.345   2.394   0.306 -0.4911  0.8026 -0.3591
 2052TIP3   OH230350   3.964   3.317   1.793  0.4527 -0.3389 -0.3886
 2052TIP3    H130351   3.876   3.339   1.763  0.4990 -0.0601 -0.3240
 2052TIP3    H230352   3.992   3.246   1.736  0.2283 -0.3568 -0.4791
 2053TIP3   OH230353   1.202   1.125   7.536  0.1727  0.0901  0.6418
 2053TIP3    H130354   1.286   1.091   7.505 -1.5551 -3.4924 -0.6094
 2053TIP3    H230355   1.154   1.145   7.455 -1.3026 -1.0052  1.2206
 2054TIP3   OH230356   4.539   0.041   7.357  0.0736  0.8856  0.2800
 2054TIP3    H130357   4.548   0.008   7.268  2.4751  0.3669  0.6528
 2054TIP3    H230358   4.474   0.111   7.350 -1.8861 -0.9270 -1.3231
 2055TIP3   OH230359   6.921   0.415   9.863 -0.0137  0.0226 -0.3682
 2055TIP3    H130360   7.005   0.458   9.878 -0.0153 -0.2866  0.5618
 2055TIP3    H230361   6.941   0.346   9.800 -0.1595  1.8171 -2.5133
 2056TIP3   OH230362   5.332   6.397   7.723  0.5663  0.7397 -0.8407
 2056TIP3    H130363   5.362   6.447   7.647  0.6859  1.5748 -0.2601
 2056TIP3    H230364   5.402   6.408   7.787 -0.2400  1.3684 -0.0434
 2057TIP3   OH230365   2.484   2.575   1.980 -0.1261  0.2359 -0.1671
 2057TIP3    H130366   2.531   2.633   1.921 -0.7788 -0.5402 -1.5018
 2057TIP3    H230367   2.545   2.503   1.996 -0.8727 -0.9031 -2.1071
 2058TIP3   OH230368   4.643   0.178   7.582  0.0467 -0.4840 -0.4846
 2058TIP3    H130369   4.668   0.129   7.660 -2.5165  0.2708  0.9329
 2058TIP3    H230370   4.597   0.114   7.527 -0.2028 -0.4910 -0.2701
 2059TIP3   OH230371   5.196   4.451   6.639 -0.4384 -0.0531  0.0642
 2059TIP3    H130372   5.205   4.440   6.544  0.5744 -1.2698  0.2824
 2059TIP3    H230373   5.102   4.440   6.656 -0.5301 -0.5086 -0.7078
 2060TIP3   OH230374   4.826   5.041   8.063  0.3483 -0.0598 -0.7946
 2060TIP3    H130375   4.828   4.962   8.117 -0.7965  0.2532 -0.2642
 2060TIP3    H230376   4.875   5.017   7.984  1.8995 -0.5816  0.2785
 2061TIP3   OH230377   0.343   6.544   8.505 -0.1566  0.1978  0.2663
 2061TIP3    H130378   0.324   6.473   8.567  0.0620  0.2133  0.3552
 2061TIP3    H230379   0.439   6.546   8.501 -0.1280  1.1425  1.0337
 2062TIP3   OH230380   0.163   3.826   7.792 -0.1278 -0.7785  0.5541
 2062TIP3    H130381   0.101   3.870   7.735  0.2286 -1.2895 -0.2457
 2062TIP3    H230382   0.136   3.734   7.790 -1.8598 -0.4725  3.4497
 2063TIP3   OH230383   1.698   6.103   7.571  0.4712  0.2119  0.4394
 2063TIP3    H130384   1.680   6.010   7.585 -0.4084  0.2435 -0.3791
 2063TIP3    H230385   1.773   6.122   7.628  0.8838 -1.0771  0.3609
 2064TIP3   OH230386   1.442   5.847   1.424 -0.5924 -0.0857 -0.5228
 2064TIP3    H130387   1.441   5.928   1.476  0.5349 -0.4517  0.0964
 2064TIP3    H230388   1.472   5.875   1.338 -1.9421  0.4364 -0.8488
 2065TIP3   OH230389   0.590   6.826   0.884  0.0232 -0.0749 -0.5234
 2065TIP3    H130390   0.680   6.816   0.915  0.4356 -1.8220 -2.0852
 2065TIP3    H230391   0.566   6.914   0.910  1.7137 -0.0289  1.1047
 2066TIP3   OH230392   6.751   5.790   2.980 -0.4210 -0.0654  0.0145
 2066TIP3    H130393   6.752   5.858   2.913 -0.4772  0.0363  0.1176
 2066TIP3    H230394   6.658   5.769   2.991 -0.3123 -2.7417 -2.6619
 2067TIP3   OH230395   2.113   4.555   8.700  0.2069 -0.2194 -0.1682
 2067TIP3    H130396   2.181   4.500   8.739  1.7724  2.1177  0.6350
 2067TIP3    H230397   2.147   4.576   8.613  0.9567  1.5276  0.4930
 2068TIP3   OH230398   5.506   0.460   8.609 -0.4737 -0.2496  0.5643
 2068TIP3    H130399   5.585   0.513   8.600 -0.5899 -0.2710 -0.9965
 2068TIP3    H230400   5.446   0.496   8.544 -2.5062  1.0025  2.9763
 2069TIP3   OH230401   6.543   3.227   2.461 -0.1687 -0.1799 -0.3574
 2069TIP3    H130402   6.635   3.253   2.459  0.1227 -1.1921 -0.8090
 2069TIP3    H230403   6.516   3.241   2.552  0.4061  0.1964 -0.2396
 2070TIP3   OH230404   0.607   4.433   0.594 -1.1720 -0.4295  0.3948
 2070TIP3    H130405   0.572   4.486   0.522  0.2981 -0.4112 -0.3494
 2070TIP3    H230406   0.644   4.497   0.655  1.4008 -0.5055 -0.9237
 2071TIP3   OH230407   0.459   6.254   8.244 -0.0067  0.1690 -0.0327
 2071TIP3    H130408   0.425   6.260   8.333 -0.7355  0.8591 -0.3560
 2071TIP3    H230409   0.510   6.334   8.232 -0.2247  0.2598 -0.3667
 2072TIP3   OH230410   7.238   0.300   6.783  0.2709  0.2728  0.3418
 2072TIP3    H130411   7.240   0.206   6.797 -0.4071  0.4580  1.9596
 2072TIP3    H230412   7.321   0.331   6.819 -0.6075  0.5317  2.2798
 2073TIP3   OH230413   6.976   6.615   8.019  0.1049  0.2260 -0.2493
 2073TIP3    H130414   7.015   6.703   8.020  0.1976  0.1846 -0.2490
 2073TIP3    H230415   6.898   6.624   8.073  0.0446  0.3407 -0.3554
 2074TIP3   OH230416   5.865   2.473   8.093  0.4982 -0.3672  0.0647
 2074TIP3    H130417   5.946   2.423   8.082  0.4634 -0.3641 -0.2258
 2074TIP3    H230418   5.832   2.485   8.004  0.8661  0.7870  0.0668
 2075TIP3   OH230419   1.404   3.371   8.594 -0.2001  0.1571 -0.4269
 2075TIP3    H130420   1.448   3.380   8.679 -2.4567 -0.6514  0.8988
 2075TIP3    H230421   1.475   3.381   8.530  1.7209  0.0136  1.5409
 2076TIP3   OH230422   0.111   5.341   7.586 -0.4273 -0.3322  0.8735
 2076TIP3    H130423   0.098   5.286   7.509 -3.1130  0.4335  0.6839
 2076TIP3    H230424   0.138   5.280   7.655  1.5493 -1.0926 -0.5090
 2077TIP3   OH230425   4.897   3.909   7.775 -0.1615 -0.5229 -0.1944
 2077TIP3    H130426   4.961   3.839   7.777 -0.0544 -0.4032  1.2377
 2077TIP3    H230427   4.949   3.990   7.772 -0.2821 -0.4588 -1.7974
 2078TIP3   OH230428   4.687   3.663   1.104  0.0193 -0.1913  0.3966
 2078TIP3    H130429   4.659   3.695   1.019 -0.0713  0.2950  0.6096
 2078TIP3    H230430   4.618   3.690   1.165  1.3179  1.8216  1.0921
 2079TIP3   OH230431   7.099   6.315   9.486  0.1464  0.0711 -0.3123
 2079TIP3    H130432   7.041   6.270   9.425 -2.1955  2.0904  0.2748
 2079TIP3    H230433   7.149   6.376   9.431  0.2747 -0.2688 -0.5755
 2080TIP3   OH230434   1.026   4.582   8.931  0.5884  0.7826 -0.4922
 2080TIP3    H130435   1.036   4.506   8.874  0.4967  0.9129 -0.6834
 2080TIP3    H230436   1.078   4.650   8.889 -0.4480  1.2376 -1.0775
 2081TIP3   OH230437   2.910   3.668   0.834  0.2079  0.3065  0.0327
 2081TIP3    H130438   2.997   3.676   0.795 -1.0957  0.6067 -3.0690
 2081TIP3    H230439   2.882   3.758   0.848 -0.9218  0.3792 -2.3237
 2082TIP3   OH230440   4.683   7.011   8.591 -0.5721  0.2002 -0.6249
 2082TIP3    H130441   4.693   7.099   8.627  1.4477  0.2555 -1.1738
 2082TIP3    H230442   4.737   7.011   8.512  1.1106 -2.0725  0.4011
 2083TIP3   OH230443   4.353   0.087   8.039 -0.3916  0.0638 -0.2513
 2083TIP3    H130444   4.411   0.064   8.112  1.2863  2.0992 -0.8411
 2083TIP3    H230445   4.385   0.035   7.965  0.2915  0.6832 -0.4057
 2084TIP3   OH230446   3.879   5.502   2.137 -0.5600  0.1791  0.1611
 2084TIP3    H130447   3.818   5.428   2.139 -0.2695 -0.0571  0.4539
 2084TIP3    H230448   3.851   5.555   2.063 -0.8966 -0.1191  0.0739
 2085TIP3   OH230449   4.154   0.723   2.031 -0.3084 -0.0616  0.2070
 2085TIP3    H130450   4.115   0.780   1.965  1.7773 -0.1443 -1.1920
 2085TIP3    H230451   4.107   0.745   2.112 -0.3829  2.8332 -0.4925
 2086TIP3   OH230452   2.759   6.414   6.278 -0.0206 -0.0477  0.5082
 2086TIP3    H130453   2.829   6.448   6.333  0.0198 -0.6103  0.8154
 2086TIP3    H230454   2.790   6.327   6.251 -0.5864 -0.2965  0.6386
 2087TIP3   OH230455   5.553   4.011   1.961 -0.2867  0.2020  0.0345
 2087TIP3    H130456   5.484   4.063   1.920 -0.7285 -0.0916  0.3961
 2087TIP3    H230457   5.633   4.061   1.947 -0.8943  1.6965  1.6088
 2088TIP3   OH230458   1.722   6.351   7.387  0.4234  0.0131  0.1408
 2088TIP3    H130459   1.652   6.417   7.394 -0.5502 -1.0535  0.8602
 2088TIP3    H230460   1.682   6.279   7.338  1.2814 -0.2971 -0.1103
 2089TIP3   OH230461   2.938   1.275   2.529 -0.0101 -0.1510  0.0513
 2089TIP3    H130462   2.873   1.330   2.484  0.4268  0.1341 -0.2416
 2089TIP3    H230463   2.994   1.338   2.575 -0.1356 -0.4126  0.5700
 2090TIP3   OH230464   7.114   6.676   9.678 -0.4106 -0.5052  0.0106
 2090TIP3    H130465   7.075   6.752   9.635 -0.3204 -0.5733 -0.1969
 2090TIP3    H230466   7.208   6.682   9.657 -0.6360 -1.5955 -1.4582
 2091TIP3   OH230467   4.127   0.099   8.755  0.0647  0.3862 -0.0918
 2091TIP3    H130468   4.198   0.151   8.715 -2.5813  1.9040 -3.3120
 2091TIP3    H230469   4.075   0.163   8.803 -0.5816 -0.2071  0.0117
 2092TIP3   OH230470   5.193   4.939   8.029 -0.2604  0.1827  0.0459
 2092TIP3    H130471   5.165   4.914   7.942 -0.6771  0.8309 -0.0094
 2092TIP3    H230472   5.243   5.020   8.017  0.5197 -0.2493  0.2960
 2093TIP3   OH230473   2.427   2.385   9.212  0.4942 -0.0419  0.2257
 2093TIP3    H130474   2.387   2.455   9.264  1.3764  1.3835 -0.9394
 2093TIP3    H230475   2.414   2.306   9.265  0.9086  1.2332  2.3919
 2094TIP3   OH230476   6.707   3.807   7.049  0.2967 -0.8787 -0.3751
 2094TIP3    H130477   6.619   3.836   7.071  0.9111 -0.7884  2.2092
 2094TIP3    H230478   6.694   3.726   6.999 -1.2237 -0.8403 -0.0916
 2095TIP3   OH230479   6.686   2.180   9.379  0.3361 -0.3187 -0.3805
 2095TIP3    H130480   6.690   2.269   9.414 -2.6113 -0.7555  1.4691
 2095TIP3    H230481   6.683   2.191   9.284 -1.6454  1.7395 -0.1612
 2096TIP3   OH230482   0.396   4.697   8.586  0.1787 -0.2183  0.0350
 2096TIP3    H130483   0.333   4.698   8.514 -0.3283 -0.0741  0.4722
 2096TIP3    H230484   0.480   4.677   8.545  0.5179  2.9710 -1.0830
 2097TIP3   OH230485   5.443   4.261   8.578  0.2384 -0.2255  0.5203
 2097TIP3    H130486   5.387   4.331   8.545  1.6191  0.6008 -0.1507
 2097TIP3    H230487   5.409   4.181   8.538 -0.5692  0.2266  0.2945
 2098TIP3   OH230488   2.234   4.194   1.344  0.2955  0.3308 -0.7733
 2098TIP3    H130489   2.169   4.126   1.327  0.0092 -0.2811  2.1933
 2098TIP3    H230490   2.315   4.147   1.361  0.9392  0.9540 -2.0314
 2099TIP3   OH230491   3.369   3.842   7.205 -0.7016 -0.1166  0.0639
 2099TIP3    H130492   3.442   3.780   7.200 -1.3335 -0.9295  0.5978
 2099TIP3    H230493   3.404   3.917   7.252  0.2910  0.2723 -1.2174
 2100TIP3   OH230494   6.995   6.311   8.791 -0.2147  0.0784 -0.2889
 2100TIP3    H130495   7.071   6.364   8.813 -0.8291  0.6368  0.5861
 2100TIP3    H230496   7.005   6.292   8.698 -0.6028  2.8586 -1.0106
 2101TIP3   OH230497   1.589   0.268   3.019 -0.1089 -0.2101  0.4710
 2101TIP3    H130498   1.535   0.191   3.002 -0.4471  0.0751  0.2473
 2101TIP3    H230499   1.669   0.233   3.059  0.1104 -0.7660 -0.4337
 2102TIP3   OH230500   4.960   5.909   1.705  0.0581  0.0322 -0.0143
 2102TIP3    H130501   4.924   5.821   1.703 -0.3150  0.1549  1.0751
 2102TIP3    H230502   4.962   5.935   1.613  0.1513 -1.0945 -0.3494
 2103TIP3   OH230503   1.591   4.406   8.659 -0.0852  0.2284  0.5688
 2103TIP3    H130504   1.681   4.428   8.635  0.1298 -2.2669 -1.4486
 2103TIP3    H230505   1.537   4.445   8.590 -0.6441  1.8535  1.8558
 2104TIP3   OH230506   1.185   6.973   1.628 -0.0780 -0.1067  1.2270
 2104TIP3    H130507   1.194   6.888   1.585  1.5159  0.0992  1.0860
 2104TIP3    H230508   1.271   7.014   1.617 -1.2199  2.1427 -0.0095
 2105TIP3   OH230509   5.057   2.181   0.588 -0.0943  0.1967 -0.1739
 2105TIP3    H130510   5.099   2.151   0.508 -0.3569  0.1925 -0.3129
 2105TIP3    H230511   5.117   2.245   0.625 -0.5832  1.2248 -1.0910
 2106TIP3   OH230512   6.314   6.057   7.565 -0.5338 -0.1861  0.4599
 2106TIP3    H130513   6.248   6.069   7.632 -1.7131 -0.9611 -0.5219
 2106TIP3    H230514   6.310   6.138   7.513 -1.9374 -0.9115 -0.6110
 2107TIP3   OH230515   2.903   5.400   1.851 -0.2072 -0.0630  0.1123
 2107TIP3    H130516   2.992   5.393   1.816  0.1035 -1.7125  1.0883
 2107TIP3    H230517   2.888   5.315   1.894 -1.7566  0.6630  1.0963
 2108TIP3   OH230518   3.105   5.793   8.783  0.0289 -0.4309 -0.0062
 2108TIP3    H130519   3.141   5.748   8.706  1.9506 -0.6051  0.9266
 2108TIP3    H230520   3.112   5.729   8.853 -2.2959 -0.4967  0.2300
 2109TIP3   OH230521   5.961   6.191   1.238  0.2300  0.0755  0.1474
 2109TIP3    H130522   5.969   6.230   1.151 -0.5744 -1.2311 -0.5365
 2109TIP3    H230523   6.051   6.191   1.272  0.7109 -0.2564 -1.0587
 2110TIP3   OH230524   1.425   4.088   8.965  0.5466 -0.0485  0.2301
 2110TIP3    H130525   1.488   4.150   8.926 -2.2517  1.0674 -2.9878
 2110TIP3    H230526   1.444   4.005   8.922  0.4292  0.0744 -0.0656
 2111TIP3   OH230527   5.879   2.800   9.157 -0.6653  0.4234  0.8403
 2111TIP3    H130528   5.943   2.862   9.123 -3.4041  3.1121  0.0756
 2111TIP3    H230529   5.830   2.771   9.079 -1.4832 -0.2005  1.5625
 2112TIP3   OH230530   2.125   1.503   7.687  0.1972 -0.1391 -0.6069
 2112TIP3    H130531   2.106   1.596   7.702 -1.1381 -0.1727 -1.7903
 2112TIP3    H230532   2.090   1.459   7.765 -0.1152  0.2744 -0.5053
 2113TIP3   OH230533   6.188   2.216   1.010  0.0712 -0.1458  0.2069
 2113TIP3    H130534   6.188   2.156   0.935  1.5706 -0.3724  0.3547
 2113TIP3    H230535   6.129   2.175   1.074 -0.6268 -0.3326 -0.5379
 2114TIP3   OH230536   7.093   4.651   2.907 -0.4628 -0.0031 -0.1927
 2114TIP3    H130537   7.141   4.594   2.967  3.1864  1.4476 -1.3986
 2114TIP3    H230538   7.006   4.613   2.901  0.4964 -2.9632  2.2222
 2115TIP3   OH230539   6.228   6.670   2.316 -0.4402  0.2180 -0.2741
 2115TIP3    H130540   6.217   6.745   2.257  1.9690  1.2153  0.4583
 2115TIP3    H230541   6.322   6.665   2.332 -0.6867 -2.0987  0.8674
 2116TIP3   OH230542   5.682   7.241   9.120  0.1496  0.0131  0.1088
 2116TIP3    H130543   5.670   7.310   9.186  2.5061  0.5582  0.0787
 2116TIP3    H230544   5.681   7.160   9.170  0.7725  0.3423  0.6851
 2117TIP3   OH230545   2.509   2.554   9.906  0.5345  0.3297  0.6314
 2117TIP3    H130546   2.479   2.552   9.997  2.1100  0.2916  1.1746
 2117TIP3    H230547   2.521   2.647   9.886  0.7845  0.3062  0.6700
 2118TIP3   OH230548   1.497   6.606   2.122 -0.2612  0.0462 -0.0800
 2118TIP3    H130549   1.418   6.598   2.068 -0.0549 -0.9018 -0.2615
 2118TIP3    H230550   1.466   6.592   2.211 -0.5769  1.4614  0.0592
 2119TIP3   OH230551   4.396   2.461   9.339 -0.7368 -0.1872  0.1378
 2119TIP3    H130552   4.407   2.519   9.263 -1.1013  0.4096  0.5360
 2119TIP3    H230553   4.485   2.451   9.374 -0.6174 -0.1716 -0.1568
 2120TIP3   OH230554   6.190   4.381   1.798 -0.4635  0.4947  0.1425
 2120TIP3    H130555   6.194   4.352   1.707  1.0842 -2.9474  1.1171
 2120TIP3    H230556   6.277   4.416   1.816  0.4227 -1.9543  1.0546
 2121TIP3   OH230557   6.372   0.278   1.447 -0.4416  0.3221 -0.6335
 2121TIP3    H130558   6.379   0.197   1.398  2.1095 -1.1673  1.8689
 2121TIP3    H230559   6.456   0.322   1.433 -0.9026  1.4076 -0.1439
 2122TIP3   OH230560   1.495   6.859   8.174 -0.3831  0.1435  0.6125
 2122TIP3    H130561   1.466   6.777   8.215 -2.5810  0.5284 -0.0081
 2122TIP3    H230562   1.590   6.856   8.178 -0.3990 -2.3912  0.7017
 2123TIP3   OH230563   4.950   4.371   0.872 -0.0056  0.4346  0.2900
 2123TIP3    H130564   4.978   4.424   0.946  1.7265 -0.0462  0.0069
 2123TIP3    H230565   5.025   4.316   0.850 -2.1056 -3.3373  1.5257
 2124TIP3   OH230566   1.584   2.454   9.862 -0.1944  0.0237  0.6381
 2124TIP3    H130567   1.595   2.536   9.814 -1.6229  0.9847  1.8278
 2124TIP3    H230568   1.600   2.385   9.798  0.6669  1.2344 -0.4903
 2125TIP3   OH230569   2.002   0.830   2.040  0.3718  0.3533 -0.4263
 2125TIP3    H130570   1.993   0.740   2.071 -0.8410  0.4411 -0.4694
 2125TIP3    H230571   1.994   0.823   1.945 -0.4771  0.5679 -0.3833
 2126TIP3   OH230572   2.816   0.100   8.131 -0.5380 -0.1732 -0.1356
 2126TIP3    H130573   2.830   0.144   8.215 -0.1005 -0.4312 -0.0729
 2126TIP3    H230574   2.891   0.125   8.077 -0.6909 -0.2075 -0.3664
 2127TIP3   OH230575   2.999   2.406   9.120  0.3672  0.5598  0.5697
 2127TIP3    H130576   3.064   2.338   9.102  0.0239  0.5772 -0.8573
 2127TIP3    H230577   2.917   2.370   9.087 -0.0163  1.2652  0.7334
 2128TIP3   OH230578   4.169   0.260   9.087  0.5619 -0.4579 -0.6723
 2128TIP3    H130579   4.150   0.298   9.173  0.7174  1.1650 -1.3120
 2128TIP3    H230580   4.220   0.181   9.106 -0.4449 -0.8064  0.7585
 2129TIP3   OH230581   3.352   2.575   9.382 -0.6501 -0.5353  0.0369
 2129TIP3    H130582   3.383   2.551   9.295 -2.0743 -2.7801  0.0394
 2129TIP3    H230583   3.430   2.576   9.437  0.3722  1.6054 -1.3275
 2130TIP3   OH230584   5.756   1.807   9.706  0.0918  0.1561  0.6893
 2130TIP3    H130585   5.831   1.766   9.663 -0.0291 -0.7636  1.3191
 2130TIP3    H230586   5.684   1.746   9.690  0.4156 -1.1644  3.6620
 2131TIP3   OH230587   0.168   4.990   2.149 -0.1167  0.1962  0.1154
 2131TIP3    H130588   0.261   4.973   2.160 -0.4808 -0.4188  3.0626
 2131TIP3    H230589   0.162   5.048   2.074  2.6750  0.7053  0.2107
 2132TIP3   OH230590   2.466   5.339   2.619  0.3881  0.2958 -0.2301
 2132TIP3    H130591   2.436   5.427   2.593  3.0121  1.6683  1.0219
 2132TIP3    H230592   2.545   5.325   2.567 -0.0802 -1.4537 -0.5223
 2133TIP3   OH230593   4.518   1.074   9.055  0.4550  0.1116 -0.3743
 2133TIP3    H130594   4.550   0.992   9.093  0.9081 -0.9517 -2.8150
 2133TIP3    H230595   4.572   1.086   8.977 -1.2977  1.3696 -1.4633
 2134TIP3   OH230596   4.222   2.008   8.894 -0.3941 -0.2506  0.5283
 2134TIP3    H130597   4.170   1.976   8.968 -0.5135  0.4997  0.7812
 2134TIP3    H230598   4.157   2.036   8.829 -0.2945 -0.4087  0.3599
 2135TIP3   OH230599   6.019   2.042   2.618 -0.2738  0.0897 -1.0671
 2135TIP3    H130600   6.064   2.125   2.629 -0.7557  0.1906  0.4845
 2135TIP3    H230601   5.974   2.028   2.702  0.7771 -2.2950 -0.7966
 2136TIP3   OH230602   7.051   3.903   7.022  0.3339  0.2336 -0.4993
 2136TIP3    H130603   7.056   3.836   6.954  2.0152  0.0799 -0.2730
 2136TIP3    H230604   7.035   3.855   7.103  0.4430  0.2095 -0.4921
 2137TIP3   OH230605   5.276   1.457   9.402 -0.0221 -0.3269 -0.2715
 2137TIP3    H130606   5.244   1.528   9.457  2.3309  0.6494 -0.0597
 2137TIP3    H230607   5.197   1.418   9.365 -1.5136  0.8210  1.5076
 2138TIP3   OH230608   2.256   1.036   1.747 -0.3698  0.6297  0.0100
 2138TIP3    H130609   2.258   1.020   1.841 -1.2861  1.2847  0.1514
 2138TIP3    H230610   2.326   0.981   1.712 -1.1954 -1.0140  0.8582
 2139TIP3   OH230611   5.438   6.449   9.290  0.3300 -0.1465  0.2173
 2139TIP3    H130612   5.447   6.504   9.213 -1.9858 -0.5967 -0.4416
 2139TIP3    H230613   5.485   6.369   9.269  0.1308 -0.0683 -0.5286
 2140TIP3   OH230614   4.464   2.583   7.616 -0.7587 -0.1220 -0.1633
 2140TIP3    H130615   4.477   2.653   7.680 -0.6446 -0.5227  0.2598
 2140TIP3    H230616   4.426   2.511   7.667  0.0184 -0.7060 -0.3804
 2141TIP3   OH230617   1.239   4.282   0.327 -0.1158 -0.6454 -0.1372
 2141TIP3    H130618   1.153   4.319   0.305  1.1073  2.6365 -0.0431
 2141TIP3    H230619   1.239   4.278   0.423 -0.1974 -0.6585 -0.1377
 2142TIP3   OH230620   1.042   4.919   9.647 -0.1287 -0.3098  0.3137
 2142TIP3    H130621   1.005   4.833   9.626  1.2509 -0.6244 -0.9150
 2142TIP3    H230622   1.072   4.910   9.738  0.5742 -1.3333 -0.0039
 2143TIP3   OH230623   4.666   1.367   8.248 -0.1931  0.1084 -0.2490
 2143TIP3    H130624   4.755   1.400   8.241  0.0079  0.2149  2.0501
 2143TIP3    H230625   4.613   1.431   8.200  0.7402  1.1999  0.1384
 2144TIP3   OH230626   3.634   6.392   8.993 -0.1705  0.2899 -0.0259
 2144TIP3    H130627   3.665   6.336   8.921  0.5273  0.3851  0.2012
 2144TIP3    H230628   3.615   6.476   8.951 -0.6570  0.0756 -0.2591
 2145TIP3   OH230629   3.369   2.485   8.821 -0.1131  0.3687  0.4061
 2145TIP3    H130630   3.387   2.484   8.727  0.4813 -0.4589  0.5227
 2145TIP3    H230631   3.311   2.410   8.835 -1.5928  1.4588  0.4567
 2146TIP3   OH230632   3.917   2.354   1.475  0.2617  0.0036 -0.6003
 2146TIP3    H130633   3.985   2.402   1.429 -2.3478  3.5250 -1.2312
 2146TIP3    H230634   3.912   2.396   1.561  0.3522 -1.7477  0.2992
 2147TIP3   OH230635   1.402   2.624   2.135 -0.2892  0.3588  0.0732
 2147TIP3    H130636   1.364   2.596   2.052  0.0186  1.9817 -0.6611
 2147TIP3    H230637   1.342   2.691   2.167  0.3667  0.7967  0.4102
 2148TIP3   OH230638   0.394   2.922   7.295 -0.0325  0.8230 -0.5517
 2148TIP3    H130639   0.480   2.891   7.267 -0.7701 -0.6632 -1.3278
 2148TIP3    H230640   0.412   2.999   7.348  1.8283  0.0719  0.0063
 2149TIP3   OH230641   1.691   0.686   6.728  0.4195  0.1996 -0.0004
 2149TIP3    H130642   1.777   0.694   6.687  0.2992  1.6860 -0.0103
 2149TIP3    H230643   1.656   0.775   6.729 -1.1868 -0.3994 -0.1221
 2150TIP3   OH230644   4.779   3.961   1.398 -0.0449  0.0820 -0.1124
 2150TIP3    H130645   4.831   4.019   1.453  1.9983  0.0317 -1.8295
 2150TIP3    H230646   4.775   3.878   1.446  0.9580  0.2930  0.3586
 2151TIP3   OH230647   2.359   2.690   0.652  0.7835 -0.3380 -0.3767
 2151TIP3    H130648   2.301   2.614   0.651 -0.9376  0.9100  0.3391
 2151TIP3    H230649   2.320   2.751   0.590  2.1838 -0.0234 -1.0037
 2152TIP3   OH230650   6.861   2.685   2.646  0.1406 -0.4580 -0.1032
 2152TIP3    H130651   6.869   2.709   2.738 -0.7038 -1.8192  0.3540
 2152TIP3    H230652   6.924   2.614   2.635  1.8263  1.0938 -1.1626
 2153TIP3   OH230653   1.766   0.277   9.775  0.1916 -0.7284  0.1869
 2153TIP3    H130654   1.728   0.221   9.841 -0.3439 -2.2161 -1.3068
 2153TIP3    H230655   1.834   0.223   9.734 -0.2416 -0.2699 -1.2009
 2154TIP3   OH230656   1.899   5.910   9.179  0.3618  0.6034 -0.6647
 2154TIP3    H130657   1.939   5.931   9.094  0.8589 -1.3949 -0.9722
 2154TIP3    H230658   1.813   5.875   9.157 -0.6405  2.5634 -0.1355
 2155TIP3   OH230659   5.999   6.100   9.107  0.4727  0.0491  0.1429
 2155TIP3    H130660   5.969   6.098   9.017 -0.0723  0.3062  0.3179
 2155TIP3    H230661   5.929   6.057   9.157  1.2695 -1.1229  0.3052
 2156TIP3   OH230662   5.400   5.146   7.960  0.1827 -0.3218 -0.2161
 2156TIP3    H130663   5.394   5.239   7.984 -2.2665 -0.3715 -0.3361
 2156TIP3    H230664   5.480   5.115   8.003  0.3918  1.5565  0.8690
 2157TIP3   OH230665   6.116   0.179   1.311 -0.2014  0.3537 -0.0012
 2157TIP3    H130666   6.092   0.256   1.260  0.5944  0.0196 -0.9132
 2157TIP3    H230667   6.197   0.148   1.270 -0.5244 -0.9785  0.3367
 2158TIP3   OH230668   6.431   5.646   1.271  0.3728  0.6556  0.6813
 2158TIP3    H130669   6.406   5.613   1.185 -0.1589  0.4369  0.9167
 2158TIP3    H230670   6.503   5.589   1.298  0.3650  0.5578  0.4949
 2159TIP3   OH230671   4.350   2.202   9.299  0.2821  0.1176  0.0423
 2159TIP3    H130672   4.393   2.202   9.214  1.1849 -0.1199  0.4764
 2159TIP3    H230673   4.354   2.293   9.328 -1.8863  0.6276 -1.0329
 2160TIP3   OH230674   3.953   0.337   0.782  0.4697  0.0706 -0.2469
 2160TIP3    H130675   3.994   0.257   0.817  1.0866  0.5305  0.0917
 2160TIP3    H230676   3.903   0.372   0.856 -2.9571 -1.9923 -1.3810
 2161TIP3   OH230677   2.456   0.539   0.228  0.8210  0.0171  0.3149
 2161TIP3    H130678   2.428   0.621   0.270  1.8047  1.1649 -1.1758
 2161TIP3    H230679   2.380   0.510   0.178  0.7608  0.5054  0.1231
 2162TIP3   OH230680   7.012   1.279   2.520 -0.6115  1.4008  0.0289
 2162TIP3    H130681   7.045   1.214   2.583 -1.5445  0.7412 -0.1411
 2162TIP3    H230682   7.073   1.274   2.447 -0.4494  0.9933  0.1865
 2163TIP3   OH230683   6.417   0.156   2.156 -0.4190 -0.6495  0.3980
 2163TIP3    H130684   6.384   0.097   2.089 -1.0454 -0.2032  0.3088
 2163TIP3    H230685   6.408   0.243   2.117  0.0031 -0.4532  0.7345
 2164TIP3   OH230686   3.167   0.249   8.718 -0.2039  0.0919  0.1093
 2164TIP3    H130687   3.207   0.226   8.801  0.1491 -1.0527 -0.3610
 2164TIP3    H230688   3.083   0.203   8.719 -0.7790  1.1155  0.3689
 2165TIP3   OH230689   2.251   0.394   8.831 -0.6176 -0.0087 -0.8067
 2165TIP3    H130690   2.241   0.479   8.787 -1.2737 -0.3023 -1.2524
 2165TIP3    H230691   2.245   0.330   8.760 -1.4894 -0.4883 -0.3189
 2166TIP3   OH230692   5.196   6.434   0.467  0.5424 -0.0431  0.1008
 2166TIP3    H130693   5.277   6.436   0.517  0.0225 -0.4626  0.9674
 2166TIP3    H230694   5.128   6.460   0.528 -0.3111 -1.9394  0.0529
 2167TIP3   OH230695   2.292   1.444   0.182 -0.0496  0.2228 -0.2960
 2167TIP3    H130696   2.231   1.372   0.171  0.5710 -0.3225 -0.2702
 2167TIP3    H230697   2.379   1.404   0.169  0.5431  0.2619  2.7925
 2168TIP3   OH230698   4.765   5.157   8.955 -0.3537 -0.4603 -0.3050
 2168TIP3    H130699   4.690   5.136   8.899  0.2578 -2.9340 -0.3217
 2168TIP3    H230700   4.783   5.076   9.002  1.0261  0.6851  1.2777
 2169TIP3   OH230701   2.181   3.617   1.119  0.1908  0.5426  0.2515
 2169TIP3    H130702   2.157   3.703   1.085 -0.8054 -0.4790 -1.8257
 2169TIP3    H230703   2.125   3.555   1.072  2.8152 -1.4890 -0.4884
 2170TIP3   OH230704   7.275   0.479   8.799  0.8351  0.1102 -0.5737
 2170TIP3    H130705   7.255   0.470   8.892  0.2831 -0.1888 -0.7189
 2170TIP3    H230706   7.251   0.569   8.777 -0.7789 -0.3613 -0.8421
 2171TIP3   OH230707   0.280   3.013   7.074 -0.0886 -0.6373  0.0999
 2171TIP3    H130708   0.312   2.948   7.137  0.7291 -1.5429 -1.1898
 2171TIP3    H230709   0.359   3.047   7.033 -0.6164 -2.1244 -2.3944
 2172TIP3   OH230710   6.157   7.037   7.796 -0.2813 -0.2211 -0.6458
 2172TIP3    H130711   6.118   7.111   7.750  0.4876  0.2505 -0.5407
 2172TIP3    H230712   6.227   7.075   7.849  0.3357 -1.0599 -0.8355
 2173TIP3   OH230713   0.371   1.253   0.205  0.5882  0.1193  0.3218
 2173TIP3    H130714   0.346   1.275   0.294 -1.4266  2.8441 -0.7725
 2173TIP3    H230715   0.453   1.300   0.190  0.5822  0.1980  0.5415
 2174TIP3   OH230716   3.648   5.641   2.886  0.5306  0.3025  0.2075
 2174TIP3    H130717   3.646   5.555   2.844  1.2301  0.6103 -0.4947
 2174TIP3    H230718   3.624   5.624   2.977  0.1093 -0.5507 -0.0528
 2175TIP3   OH230719   2.968   0.355   6.072  0.2879  0.5282 -0.5756
 2175TIP3    H130720   3.045   0.369   6.127 -0.4826  1.5722  0.2638
 2175TIP3    H230721   2.948   0.262   6.082  0.3436  0.6347  0.6884
 2176TIP3   OH230722   5.514   0.090   0.871 -0.4093  0.8407  0.2595
 2176TIP3    H130723   5.546   0.155   0.934 -0.8944  0.7256  0.6376
 2176TIP3    H230724   5.506   0.010   0.922  1.2812  0.1608 -0.4674
 2177TIP3   OH230725   5.262   5.385   9.400 -0.0258  0.1083 -0.3181
 2177TIP3    H130726   5.300   5.445   9.465  0.6040 -1.5007  0.8583
 2177TIP3    H230727   5.336   5.334   9.369 -0.7658 -1.1178 -0.1309
 2178TIP3   OH230728   5.124   6.135   0.484 -0.2402 -0.1652  0.1579
 2178TIP3    H130729   5.135   6.225   0.454  0.0114 -0.0734  0.5174
 2178TIP3    H230730   5.208   6.113   0.524  0.5482 -1.3619 -1.9686
 2179TIP3   OH230731   6.486   5.084   8.917  0.1601  0.2277 -0.0864
 2179TIP3    H130732   6.561   5.043   8.875 -1.2092 -0.8752 -1.5689
 2179TIP3    H230733   6.488   5.051   9.007  1.8269  0.8133  0.1342
 2180TIP3   OH230734   1.859   3.993   8.677 -0.3672  0.1599  0.1656
 2180TIP3    H130735   1.793   4.038   8.624 -0.4641 -0.0740  0.0871
 2180TIP3    H230736   1.811   3.961   8.753 -0.2282  0.4939  0.3970
 2181TIP3   OH230737   5.688   2.519   0.346  0.1678  0.0768  0.7158
 2181TIP3    H130738   5.719   2.454   0.409 -1.4236 -0.7086  0.7582
 2181TIP3    H230739   5.671   2.468   0.266  0.4443  0.7326  0.2367
 2182TIP3   OH230740   0.246   1.470   8.743 -0.1770 -0.2529 -0.4917
 2182TIP3    H130741   0.167   1.474   8.796 -0.1293  1.9922 -0.5057
 2182TIP3    H230742   0.308   1.420   8.796 -0.8057  0.1176  0.6178
 2183TIP3   OH230743   6.221   7.215   0.584  0.1227 -0.3047  0.2386
 2183TIP3    H130744   6.189   7.191   0.498  3.8718 -1.9961 -0.9065
 2183TIP3    H230745   6.289   7.281   0.567 -0.0067  0.3480  2.0306
 2184TIP3   OH230746   6.915   6.647   2.310  0.2613  0.0930  0.2415
 2184TIP3    H130747   6.856   6.619   2.380 -1.2129  0.0838 -0.9384
 2184TIP3    H230748   6.933   6.739   2.329 -1.9529  0.7401 -0.5192
 2185TIP3   OH230749   2.191   3.802   0.248  0.0352  0.3304  0.3265
 2185TIP3    H130750   2.235   3.792   0.332 -1.2249  1.3947  1.1453
 2185TIP3    H230751   2.177   3.896   0.239 -1.6725  0.0766 -0.0886
 2186TIP3   OH230752   3.477   5.119   8.171  0.0665  0.0792  0.2728
 2186TIP3    H130753   3.432   5.178   8.111  0.6000 -1.1993 -1.4799
 2186TIP3    H230754   3.446   5.032   8.146 -1.8079 -0.3910  3.7277
 2187TIP3   OH230755   2.377   1.296   2.088 -0.1275  0.4779  0.0055
 2187TIP3    H130756   2.353   1.377   2.044 -1.4207 -0.6446 -1.5043
 2187TIP3    H230757   2.394   1.234   2.016 -1.0218 -1.0895  1.0738
 2188TIP3   OH230758   6.940   2.272   1.949  0.1416 -0.6786  0.3581
 2188TIP3    H130759   6.996   2.306   2.018  0.7373  0.2392 -0.5627
 2188TIP3    H230760   6.997   2.214   1.898 -0.3454 -1.5024  0.7272
 2189TIP3   OH230761   0.223   3.322   1.519  0.2263  0.3459 -0.6511
 2189TIP3    H130762   0.318   3.319   1.528  0.2246  0.1490 -0.6958
 2189TIP3    H230763   0.205   3.402   1.471  0.4571 -0.2644 -1.7894
 2190TIP3   OH230764   1.200   4.907   0.461  0.5127 -0.1993 -0.3244
 2190TIP3    H130765   1.152   4.861   0.530 -0.9511  0.8946 -0.5786
 2190TIP3    H230766   1.292   4.885   0.478  0.0889 -0.9242  1.2321
 2191TIP3   OH230767   4.701   5.925   7.799 -0.2075  0.1780 -0.1279
 2191TIP3    H130768   4.688   5.958   7.888  2.4451  0.8955  0.0785
 2191TIP3    H230769   4.612   5.915   7.763 -1.2715  1.8294  1.8778
 2192TIP3   OH230770   1.203   6.535   9.463 -0.0962 -0.5595 -0.0614
 2192TIP3    H130771   1.285   6.489   9.443 -1.2122 -2.4654 -0.5339
 2192TIP3    H230772   1.224   6.628   9.451  1.2305 -1.1292 -3.0949
 2193TIP3   OH230773   1.136   2.720   8.417  0.2959 -0.6017 -0.5021
 2193TIP3    H130774   1.150   2.645   8.474 -1.7772 -0.5691  0.0970
 2193TIP3    H230775   1.042   2.720   8.398  0.1136  2.1266 -0.0588
 2194TIP3   OH230776   4.910   1.617   2.103  0.0286 -0.1089  0.6014
 2194TIP3    H130777   4.966   1.677   2.053 -0.1308  1.9606  2.7505
 2194TIP3    H230778   4.966   1.541   2.121  0.6870 -0.0460 -0.9837
 2195TIP3   OH230779   4.894   5.782   7.655 -0.4858  0.5097 -0.2198
 2195TIP3    H130780   4.850   5.701   7.679  1.2012  0.1513  1.8669
 2195TIP3    H230781   4.858   5.848   7.715 -0.1496  0.7960 -0.3286
 2196TIP3   OH230782   6.815   6.929   0.352  0.0616 -0.2464 -0.2800
 2196TIP3    H130783   6.859   6.890   0.428 -0.4376 -0.5077 -0.1183
 2196TIP3    H230784   6.847   6.877   0.278  0.0887 -0.3854 -0.1731
 2197TIP3   OH230785   1.866   4.771   8.317 -0.2603  0.5536  0.5699
 2197TIP3    H130786   1.860   4.820   8.235  1.0791 -0.1005  0.0404
 2197TIP3    H230787   1.797   4.806   8.372  0.0205  2.3302 -0.1597
 2198TIP3   OH230788   7.031   3.047   9.046  0.3025 -0.4720  0.1778
 2198TIP3    H130789   7.054   3.092   9.128  0.8148 -1.0751  0.3748
 2198TIP3    H230790   6.957   2.991   9.070  0.1113 -0.2541  0.0991
 2199TIP3   OH230791   0.795   4.156   9.173  0.1480 -0.1982 -0.0464
 2199TIP3    H130792   0.772   4.143   9.265  0.2287  0.8563  0.1385
 2199TIP3    H230793   0.746   4.234   9.148  0.3750 -0.3007 -0.8147
 2200TIP3   OH230794   2.203   1.149   8.923 -0.0148 -0.4905  0.7146
 2200TIP3    H130795   2.288   1.166   8.963 -0.8069  2.4895  1.3729
 2200TIP3    H230796   2.172   1.069   8.966  1.6317 -0.5661  1.8555
 2201TIP3   OH230797   4.513   1.286   9.963 -0.0058  0.3438  0.4280
 2201TIP3    H130798   4.471   1.362  10.005  2.7947 -0.2083  4.8381
 2201TIP3    H230799   4.464   1.211   9.996 -0.0732 -0.0105 -0.4425
 2202TIP3   OH230800   3.647   7.223   0.299  0.5481  0.0515 -0.0252
 2202TIP3    H130801   3.582   7.170   0.346  1.6566  0.3511  1.9897
 2202TIP3    H230802   3.606   7.243   0.215 -2.6235  1.4870  1.6817
 2203TIP3   OH230803   4.178   0.478   0.665  0.2004  0.3141  0.1487
 2203TIP3    H130804   4.259   0.437   0.694 -0.1861 -0.3404  0.3228
 2203TIP3    H230805   4.109   0.423   0.701 -0.3496  1.4730  0.9311
 2204TIP3   OH230806   3.307   6.694   1.764 -0.2512  0.4854 -0.1813
 2204TIP3    H130807   3.235   6.640   1.731 -0.9320 -0.1045  2.0759
 2204TIP3    H230808   3.381   6.634   1.770 -0.7107  0.0069  1.2774
 2205TIP3   OH230809   2.095   5.490   0.941  0.1921  0.2643  0.4152
 2205TIP3    H130810   2.167   5.551   0.957 -1.1939  1.9999  0.2520
 2205TIP3    H230811   2.090   5.436   1.020  0.7604  1.0716  1.0060
 2206TIP3   OH230812   3.869   4.951   1.434  0.6180 -0.1929  0.2787
 2206TIP3    H130813   3.878   5.045   1.421 -0.9517  0.4187  2.8202
 2206TIP3    H230814   3.949   4.913   1.397  0.8840  1.9938 -1.6052
 2207TIP3   OH230815   6.551   2.953   9.611 -0.0605 -0.0647 -0.1266
 2207TIP3    H130816   6.564   3.047   9.595  0.7133 -0.1196  0.1497
 2207TIP3    H230817   6.487   2.926   9.546  0.0059  0.5754 -0.4617
 2208TIP3   OH230818   5.121   0.861   2.692 -0.2199 -0.2513  0.0561
 2208TIP3    H130819   5.179   0.930   2.725 -1.1862  0.9809 -0.7076
 2208TIP3    H230820   5.038   0.876   2.737 -1.4631  1.2668 -2.5075
 2209TIP3   OH230821   5.170   6.697   1.588  0.4547 -0.1393  0.2705
 2209TIP3    H130822   5.082   6.677   1.621  0.9772 -0.4374  1.5419
 2209TIP3    H230823   5.217   6.729   1.664  1.6935 -0.7461 -0.2254
 2210TIP3   OH230824   6.257   1.505   9.629  0.4307 -0.2528  0.1317
 2210TIP3    H130825   6.312   1.451   9.686  0.3796 -0.3862  0.0549
 2210TIP3    H230826   6.313   1.524   9.553  1.4961  2.2054  1.4031
 2211TIP3   OH230827   3.306   6.353   2.098  0.4997  0.1292 -0.2754
 2211TIP3    H130828   3.281   6.417   2.164 -1.6915 -1.6988  0.7850
 2211TIP3    H230829   3.273   6.389   2.016 -1.0365  0.2337  0.3564
 2212TIP3   OH230830   1.385   4.699   9.125  0.0361 -0.0127 -0.2025
 2212TIP3    H130831   1.310   4.725   9.071  0.6248  0.7328 -0.6794
 2212TIP3    H230832   1.409   4.778   9.172 -0.7820 -0.7687  1.5780
 2213TIP3   OH230833   5.605   3.979   0.857 -0.1629  0.0438 -0.5325
 2213TIP3    H130834   5.669   3.907   0.859 -2.2329 -1.8800  0.1920
 2213TIP3    H230835   5.584   3.989   0.764 -1.1135 -1.5491 -0.5341
 2214TIP3   OH230836   5.738   1.744   7.985 -0.4050 -0.0440  0.5861
 2214TIP3    H130837   5.657   1.785   8.015 -1.0075 -1.0419  0.3750
 2214TIP3    H230838   5.709   1.682   7.918  0.6878  0.6244 -0.5578
 2215TIP3   OH230839   3.024   0.671   1.883  0.1439  0.6752  0.0742
 2215TIP3    H130840   3.025   0.751   1.935  1.8549  0.7258  0.0465
 2215TIP3    H230841   3.018   0.700   1.793  0.3448  0.7581  0.0870
 2216TIP3   OH230842   3.160   0.185   8.082  0.1120 -0.2621  0.0148
 2216TIP3    H130843   3.245   0.211   8.046  0.6054 -0.4242  1.0326
 2216TIP3    H230844   3.140   0.102   8.038  0.7142 -0.4669  0.1176
 2217TIP3   OH230845   2.383   2.422   1.601 -0.3717  0.1123  1.1313
 2217TIP3    H130846   2.468   2.382   1.622 -0.3500 -0.9034 -0.7494
 2217TIP3    H230847   2.327   2.349   1.578 -0.5004  1.0334 -1.8388
 2218TIP3   OH230848   6.027   7.191   1.953  0.1554 -0.3089 -0.6542
 2218TIP3    H130849   5.942   7.167   1.989 -1.1446  0.7932 -2.7906
 2218TIP3    H230850   6.090   7.136   2.000 -1.3288  0.8922  3.1309
 2219TIP3   OH230851   1.103   1.815   1.975 -0.2616 -0.2082  0.0323
 2219TIP3    H130852   1.089   1.873   2.050  0.3003  0.2549 -0.2145
 2219TIP3    H230853   1.108   1.874   1.900 -0.6248 -0.6543 -0.3502
 2220TIP3   OH230854   0.141   1.300   9.488 -0.2498  0.2078  0.5101
 2220TIP3    H130855   0.065   1.256   9.450 -0.3415  0.4125  0.4540
 2220TIP3    H230856   0.197   1.320   9.414  0.8193 -1.7310  0.7355
 2221TIP3   OH230857   5.547   1.281   0.825 -0.2664 -0.2653  0.6646
 2221TIP3    H130858   5.503   1.352   0.779  0.2763  0.3476  1.0772
 2221TIP3    H230859   5.477   1.219   0.845 -0.6365 -0.1727 -0.2912
 2222TIP3   OH230860   6.757   2.037   1.616 -0.4993 -0.1862 -0.1623
 2222TIP3    H130861   6.827   2.063   1.676  2.9391  0.7608 -4.0849
 2222TIP3    H230862   6.750   2.111   1.555 -1.8518 -2.0207 -2.4006
 2223TIP3   OH230863   6.191   1.098   7.002 -0.3894  0.3508  0.0664
 2223TIP3    H130864   6.223   1.021   6.955 -0.5176  0.2170  0.1984
 2223TIP3    H230865   6.096   1.086   7.004 -0.3520  0.1370  0.7438
 2224TIP3   OH230866   3.021   6.227   0.993  0.2423  0.4164  0.4415
 2224TIP3    H130867   2.928   6.214   1.013  0.0864  1.1780  0.2083
 2224TIP3    H230868   3.037   6.170   0.918 -0.2032  0.8144  0.0434
 2225TIP3   OH230869   5.196   1.504   0.575 -0.3528 -0.0052 -0.4150
 2225TIP3    H130870   5.125   1.536   0.519 -1.4831 -1.6855 -0.0244
 2225TIP3    H230871   5.177   1.411   0.587  2.1222 -0.6084 -0.5636
 2226TIP3   OH230872   1.744   0.092   2.199 -0.3518 -0.4791  0.5359
 2226TIP3    H130873   1.766   0.139   2.280  0.7290 -0.2213  0.1139
 2226TIP3    H230874   1.701   0.158   2.144  0.2189 -0.2466  0.3536
 2227TIP3   OH230875   2.611   3.831   8.958 -0.3048  0.1211  0.4503
 2227TIP3    H130876   2.604   3.921   8.926 -0.2369  0.6246  1.7477
 2227TIP3    H230877   2.690   3.797   8.918 -0.2502  0.6979  0.0504
 2228TIP3   OH230878   1.057   3.573   9.893  0.4156  0.1086 -0.2571
 2228TIP3    H130879   1.059   3.577   9.988 -1.6815  1.3442 -0.2146
 2228TIP3    H230880   0.974   3.530   9.872  0.1297  1.2169 -1.5263
 2229TIP3   OH230881   1.382   5.811   9.853  0.3618 -0.5661 -0.4210
 2229TIP3    H130882   1.476   5.829   9.847  0.4485 -0.6887  0.4273
 2229TIP3    H230883   1.340   5.892   9.823  0.7451  0.3428  1.3832
 2230TIP3   OH230884   4.387   3.187   0.303 -0.2654  0.0437  0.7921
 2230TIP3    H130885   4.405   3.129   0.230 -1.1175 -0.7829  1.2139
 2230TIP3    H230886   4.443   3.155   0.374  0.3215  0.6401  0.6030
 2231TIP3   OH230887   1.146   1.357   8.787  0.3186  0.2250  0.2817
 2231TIP3    H130888   1.093   1.311   8.721 -0.5432  2.1787 -0.4481
 2231TIP3    H230889   1.100   1.342   8.869  0.0837 -0.2437  0.0711
 2232TIP3   OH230890   2.341   6.238   9.146  0.0336  0.5935 -0.2773
 2232TIP3    H130891   2.432   6.209   9.157 -0.7809 -1.6596  1.2208
 2232TIP3    H230892   2.348   6.332   9.130  2.6348  0.4648 -0.3263
 2233TIP3   OH230893   3.848   5.781   0.243 -0.0157  0.5867 -0.5346
 2233TIP3    H130894   3.902   5.845   0.196  0.8535  0.9743  0.9258
 2233TIP3    H230895   3.850   5.702   0.189  1.7941  0.6881 -0.6556
 2234TIP3   OH230896   0.545   6.748   1.810  0.0997  0.0994 -0.2981
 2234TIP3    H130897   0.481   6.811   1.844 -0.1484  0.0097 -0.5975
 2234TIP3    H230898   0.543   6.760   1.715  0.0216 -0.3891 -0.3611
 2235TIP3   OH230899   1.952   3.082   0.401 -0.0415 -0.1499  0.1890
 2235TIP3    H130900   1.973   3.095   0.494  0.3332 -0.3262  0.1312
 2235TIP3    H230901   1.861   3.109   0.393 -0.0412 -0.0232  0.5872
 2236TIP3   OH230902   1.474   2.606   0.634  0.1320  0.7437 -0.6278
 2236TIP3    H130903   1.551   2.582   0.584  1.5910 -0.4663  1.9764
 2236TIP3    H230904   1.401   2.598   0.572  1.7931 -0.4311 -2.5517
 2237TIP3   OH230905   5.931   1.301   0.438  0.4615 -0.0474  0.1621
 2237TIP3    H130906   6.014   1.279   0.395  0.9328 -0.1882  1.1255
 2237TIP3    H230907   5.875   1.331   0.367  1.0772 -0.7035 -0.6219
 2238TIP3   OH230908   6.199   5.377   1.497  0.0553 -0.1237  0.2704
 2238TIP3    H130909   6.266   5.316   1.465  0.7226  0.2324  0.9546
 2238TIP3    H230910   6.127   5.320   1.524  0.4086 -0.5752  0.2960
 2239TIP3   OH230911   4.034   4.113   7.846 -0.3874 -0.0744 -0.3939
 2239TIP3    H130912   4.128   4.109   7.862 -0.3732  0.0643 -0.4405
 2239TIP3    H230913   4.018   4.204   7.820 -0.6136  0.0333  0.1090
 2240TIP3   OH230914   4.117   0.941   1.813  0.1526 -0.0826  0.2898
 2240TIP3    H130915   4.149   0.969   1.728 -0.9648 -0.0828 -0.1446
 2240TIP3    H230916   4.159   1.000   1.875  1.4407 -0.4690 -0.1937
 2241TIP3   OH230917   1.095   4.799   6.861  0.0147 -0.1693 -0.0328
 2241TIP3    H130918   1.131   4.754   6.937  1.8451  1.7983  0.3627
 2241TIP3    H230919   1.097   4.733   6.791  1.2491 -1.1260  0.8616
 2242TIP3   OH230920   3.891   3.128   2.792 -0.1264 -0.1801 -0.0962
 2242TIP3    H130921   3.956   3.168   2.734  1.0386 -0.9239  0.6498
 2242TIP3    H230922   3.864   3.049   2.746  0.0496 -0.2539 -0.0736
 2243TIP3   OH230923   6.064   3.466   9.249  0.0796  0.4960  0.3033
 2243TIP3    H130924   5.986   3.513   9.280 -0.0331 -0.1983  1.1234
 2243TIP3    H230925   6.077   3.397   9.315  0.7876 -0.0226 -0.3717
 2244TIP3   OH230926   2.501   2.293   8.959  0.0849 -0.3059  0.0276
 2244TIP3    H130927   2.434   2.333   8.905 -0.6683 -0.5171  0.7827
 2244TIP3    H230928   2.466   2.296   9.048  1.9267  1.4060  0.7738
 2245TIP3   OH230929   5.282   0.108   1.944 -0.3371  0.3590 -0.5149
 2245TIP3    H130930   5.316   0.077   1.860 -0.9830 -0.0505 -0.6327
 2245TIP3    H230931   5.225   0.037   1.974 -0.9588  0.9601 -0.2548
 2246TIP3   OH230932   6.086   1.699   1.736  0.0030  0.3533 -0.4357
 2246TIP3    H130933   6.136   1.628   1.778 -0.4534  0.1727 -0.2004
 2246TIP3    H230934   5.995   1.676   1.749 -0.1744  1.5746  0.6503
 2247TIP3   OH230935   3.442   1.907   8.212  0.6880  0.1099  0.5416
 2247TIP3    H130936   3.479   1.995   8.218  0.2942  0.2525  0.8973
 2247TIP3    H230937   3.457   1.881   8.121  1.0244  0.4443  0.5004
 2248TIP3   OH230938   0.791   6.844   2.756 -0.3028 -0.1368 -0.4437
 2248TIP3    H130939   0.772   6.833   2.849  1.9012 -1.1255 -0.0380
 2248TIP3    H230940   0.738   6.779   2.711 -2.5000  1.3069 -0.0943
 2249TIP3   OH230941   2.304   5.960   8.047  0.0875 -0.3744  0.3840
 2249TIP3    H130942   2.300   6.035   7.988 -1.7533 -0.8350 -0.1367
 2249TIP3    H230943   2.371   5.903   8.009 -0.3248 -0.1711 -0.6877
 2250TIP3   OH230944   0.251   3.987   8.294  0.3089  0.3592 -0.2972
 2250TIP3    H130945   0.161   3.966   8.319  0.1754  1.6864  0.4243
 2250TIP3    H230946   0.305   3.950   8.364  0.2867  0.1218 -0.4025
 2251TIP3   OH230947   2.026   5.146   1.484  0.3577  0.1288 -0.7293
 2251TIP3    H130948   1.992   5.146   1.573  1.7477 -1.0350 -0.1522
 2251TIP3    H230949   1.948   5.141   1.428 -0.4824 -1.0502  0.4797
 2252TIP3   OH230950   2.045   5.235   3.064  0.5026  0.2152  0.1660
 2252TIP3    H130951   2.054   5.141   3.081 -3.8535 -0.4839 -0.3861
 2252TIP3    H230952   2.016   5.240   2.973 -0.0107  2.0638  0.3881
 2253TIP3   OH230953   1.174   3.804   8.445  0.1606 -0.1588 -0.4972
 2253TIP3    H130954   1.079   3.799   8.446 -0.0679  2.4590  1.5932
 2253TIP3    H230955   1.194   3.875   8.385  0.5389  1.3537  1.3293
 2254TIP3   OH230956   0.462   3.295   0.341 -0.1955  0.4472 -0.2285
 2254TIP3    H130957   0.488   3.209   0.307  0.5268  0.9311 -0.9224
 2254TIP3    H230958   0.422   3.340   0.267 -1.7755  0.2432  0.4727
 2255TIP3   OH230959   6.114   0.102   0.876 -0.0513 -0.1471 -0.4830
 2255TIP3    H130960   6.104   0.196   0.859  2.3501 -0.0055 -1.4499
 2255TIP3    H230961   6.097   0.061   0.791  2.7194 -0.2054 -1.0971
 2256TIP3   OH230962   5.940   3.492   9.584  0.4882  0.0670 -0.2959
 2256TIP3    H130963   5.923   3.534   9.499 -1.8154  0.9605  0.5536
 2256TIP3    H230964   5.904   3.404   9.575  1.4119 -0.2938 -0.6322
 2257TIP3   OH230965   0.983   0.148   1.658  0.3701 -0.1356  0.3069
 2257TIP3    H130966   0.958   0.234   1.692  1.0781 -0.3727  1.5120
 2257TIP3    H230967   0.902   0.097   1.662  0.1549  0.2116  0.4894
 2258TIP3   OH230968   6.173   2.687   0.009 -0.2344 -0.5784  0.0015
 2258TIP3    H130969   6.119   2.670  -0.068 -0.3779  1.6280 -0.4639
 2258TIP3    H230970   6.112   2.685   0.083 -0.1817 -2.2294  0.0195
 2259TIP3   OH230971   7.199   5.669   0.675 -0.0913 -0.1406  0.0926
 2259TIP3    H130972   7.203   5.744   0.735  0.2705  0.4196 -0.6261
 2259TIP3    H230973   7.273   5.614   0.701  0.0983  0.1270  0.1234
 2260TIP3   OH230974   5.080   6.690   7.751  0.0928 -0.4324  0.6208
 2260TIP3    H130975   5.141   6.720   7.684  0.2725  0.2163  1.0668
 2260TIP3    H230976   5.134   6.678   7.829 -0.2402 -0.4654  0.8481
 2261TIP3   OH230977   5.989   7.215   9.309 -0.0654  0.0407 -0.0756
 2261TIP3    H130978   6.035   7.185   9.388  0.1629 -0.9433 -0.5776
 2261TIP3    H230979   5.920   7.150   9.295  0.4230 -0.2489 -1.1683
 2262TIP3   OH230980   2.907   1.894   1.005  0.1946 -0.3576  0.4228
 2262TIP3    H130981   2.986   1.858   1.045  0.4294 -1.2014 -0.7386
 2262TIP3    H230982   2.931   1.984   0.981  1.2075 -0.9583 -0.9405
 2263TIP3   OH230983   0.686   4.505   0.181 -0.5497  0.0366 -0.1722
 2263TIP3    H130984   0.628   4.518   0.256 -2.3113 -2.2903 -1.0051
 2263TIP3    H230985   0.752   4.445   0.213 -0.7985 -0.2768 -0.2451
 2264TIP3   OH230986   6.290   5.406   1.783  0.1087  0.0635 -0.4403
 2264TIP3    H130987   6.276   5.410   1.689  1.8327  1.0070 -0.7005
 2264TIP3    H230988   6.241   5.480   1.818  0.2196  0.2574 -0.6951
 2265TIP3   OH230989   5.439   5.575   0.694  0.5791  0.1723  0.2212
 2265TIP3    H130990   5.518   5.605   0.651 -1.2534  1.6328 -2.4026
 2265TIP3    H230991   5.423   5.488   0.657  0.8250 -0.0378  0.6004
 2266TIP3   OH230992   3.434   3.816   0.937  0.0909  0.1895 -0.3911
 2266TIP3    H130993   3.423   3.910   0.922  0.0341  0.2810  0.1826
 2266TIP3    H230994   3.419   3.775   0.852 -0.4900  0.6522 -0.5108
 2267TIP3   OH230995   5.285   7.078   2.807 -0.5940  0.2504  0.3266
 2267TIP3    H130996   5.279   7.097   2.714  0.9959  0.2110  0.1821
 2267TIP3    H230997   5.310   7.161   2.847 -1.4805  0.3189  0.7556
 2268TIP3   OH230998   3.430   2.950   8.099 -0.1814  0.0555 -0.3440
 2268TIP3    H130999   3.352   2.945   8.154  0.0771 -0.4808 -0.0142
 2268TIP3    H231000   3.466   3.037   8.115 -0.2872  0.0208  0.0888
 2269TIP3   OH231001   3.311   1.240   2.410  0.0104  0.1016  0.2423
 2269TIP3    H131002   3.252   1.167   2.429 -1.4566  0.8068 -1.3644
 2269TIP3    H231003   3.258   1.318   2.423  0.2370  0.7353 -2.1882
 2270TIP3   OH231004   0.476   2.417   6.944  0.2371 -0.0013 -0.3349
 2270TIP3    H131005   0.477   2.488   7.008 -0.1742 -0.1705 -0.1345
 2270TIP3    H231006   0.567   2.393   6.933  0.2719 -0.3382  0.6040
 2271TIP3   OH231007   2.212   2.135   2.304  0.0155 -0.0704 -0.0298
 2271TIP3    H131008   2.132   2.109   2.259 -1.1944  1.9752  0.7910
 2271TIP3    H231009   2.222   2.072   2.375  0.0186 -1.2540 -1.0428
 2272TIP3   OH231010   7.147   7.267   2.761  0.0451 -0.1756 -0.5313
 2272TIP3    H131011   7.227   7.306   2.797 -0.1674 -0.9305  0.8438
 2272TIP3    H231012   7.080   7.286   2.826 -0.9835  0.6827 -1.7980
 2273TIP3   OH231013   5.182   4.015   9.511  0.2376 -0.3656  0.0284
 2273TIP3    H131014   5.203   4.024   9.418 -0.4855  0.3966 -0.0844
 2273TIP3    H231015   5.221   4.092   9.552  0.1495 -0.4480  0.2687
 2274TIP3   OH231016   2.249   3.955   1.088  0.2023  0.1112  0.1854
 2274TIP3    H131017   2.157   3.974   1.071  0.0095 -1.0366 -0.1660
 2274TIP3    H231018   2.255   3.944   1.183 -0.2563 -0.8848  0.1089
 2275TIP3   OH231019   7.278   0.095   0.062 -0.1278  0.2293 -0.5347
 2275TIP3    H131020   7.365   0.137   0.064  0.0721 -0.1808  0.5451
 2275TIP3    H231021   7.226   0.147   0.124 -0.6585  0.4680 -1.1775
 2276TIP3   OH231022   6.350   0.115   1.005  0.5552 -0.0587  0.5697
 2276TIP3    H131023   6.371   0.169   0.929 -1.0062  0.0987  0.2176
 2276TIP3    H231024   6.256   0.100   0.998  0.1371  0.9070  3.0665
 2277TIP3   OH231025   5.060   0.846   2.007  0.1198 -0.2096 -0.2745
 2277TIP3    H131026   5.008   0.819   2.083  3.3101 -2.3527  1.3598
 2277TIP3    H231027   5.093   0.764   1.971  1.8819  0.9894 -1.5376
 2278TIP3   OH231028   6.678   5.896   9.656  0.1355  0.7559 -0.6478
 2278TIP3    H131029   6.599   5.853   9.621 -0.2035  0.1445  0.8242
 2278TIP3    H231030   6.750   5.856   9.608 -0.1863 -1.3033  0.4576
 2279TIP3   OH231031   5.298   7.209   8.220  0.2118  0.3769 -0.1751
 2279TIP3    H131032   5.301   7.211   8.315 -1.0757 -0.4529 -0.0931
 2279TIP3    H231033   5.242   7.283   8.195 -0.8547 -0.3972 -0.1674
 2280TIP3   OH231034   0.500   3.829   1.247  0.4878 -0.4789  0.5231
 2280TIP3    H131035   0.496   3.833   1.152 -1.5452 -1.2630  0.5286
 2280TIP3    H231036   0.469   3.915   1.276 -0.2419 -0.7107  0.4583
 2281TIP3   OH231037   4.906   1.305   0.150 -0.7153 -0.0300  0.1059
 2281TIP3    H131038   4.933   1.395   0.133 -2.1305  0.2476 -0.7602
 2281TIP3    H231039   4.861   1.277   0.070  1.1449 -2.0988 -0.3297
 2282TIP3   OH231040   6.062   3.005   0.603  0.5089  0.1040 -0.7238
 2282TIP3    H131041   6.090   3.068   0.537  1.2244  0.7615  0.1894
 2282TIP3    H231042   6.046   3.057   0.682  1.2832 -0.8598  0.1028
 2283TIP3   OH231043   5.478   3.352   2.309  0.2705 -0.6902  0.2544
 2283TIP3    H131044   5.489   3.341   2.215 -1.0613  0.4332 -0.0775
 2283TIP3    H231045   5.383   3.351   2.322  0.3955  0.3087  1.4204
 2284TIP3   OH231046   0.487   6.446   0.566  0.1207  0.6647  0.0073
 2284TIP3    H131047   0.565   6.486   0.527  1.6748  0.8174  2.9791
 2284TIP3    H231048   0.438   6.519   0.604  0.7581  0.2344  1.7576
 2285TIP3   OH231049   2.020   0.043   7.656 -0.4186  0.0442 -0.0548
 2285TIP3    H131050   2.108   0.041   7.694 -0.0127  0.7631 -0.9139
 2285TIP3    H231051   1.961   0.047   7.731  0.3577  1.3976  0.5037
 2286TIP3   OH231052   6.904   5.003   0.461  0.0492 -0.5398 -0.2985
 2286TIP3    H131053   6.963   4.981   0.389 -1.5542 -0.6044 -1.6601
 2286TIP3    H231054   6.863   5.085   0.435 -0.6217 -0.6004  0.5020
 2287TIP3   OH231055   4.473   2.053   8.625 -0.2634  0.0107 -0.7189
 2287TIP3    H131056   4.408   2.109   8.667  1.9906  0.6683  2.2060
 2287TIP3    H231057   4.534   2.113   8.583  0.1668 -0.4353 -0.7440
 2288TIP3   OH231058   1.137   6.773   1.420  0.2130 -0.3473 -0.1198
 2288TIP3    H131059   1.189   6.841   1.376  0.8082 -0.8701 -0.2332
 2288TIP3    H231060   1.199   6.702   1.436 -0.4631 -0.9653 -0.2113
 2289TIP3   OH231061   3.061   2.562   8.011  0.2009 -0.5849 -0.2860
 2289TIP3    H131062   2.992   2.550   8.076 -0.7650  2.0133 -0.7062
 2289TIP3    H231063   3.036   2.503   7.940 -1.7739  0.3746 -0.4864
 2290TIP3   OH231064   2.930   3.988   7.956  0.2224 -0.1739  0.0024
 2290TIP3    H131065   2.911   4.075   7.921 -0.7005  1.4610  3.9700
 2290TIP3    H231066   3.023   3.991   7.979 -0.2351  0.6136  1.9466
 2291TIP3   OH231067   1.573   3.341   0.881 -0.5742 -0.1513 -0.1384
 2291TIP3    H131068   1.495   3.309   0.836 -0.7440  2.4475 -1.8971
 2291TIP3    H231069   1.544   3.418   0.929  0.5459 -0.2853  0.8078
 2292TIP3   OH231070   2.651   0.162   1.518  0.4196  0.2211  0.3613
 2292TIP3    H131071   2.727   0.136   1.571  0.6746 -0.5233 -0.3494
 2292TIP3    H231072   2.666   0.121   1.433 -0.3926  0.7268 -0.0365
 2293TIP3   OH231073   3.478   6.754   9.890 -0.0339  0.3625 -0.0330
 2293TIP3    H131074   3.535   6.795   9.825  0.8445 -1.6488 -0.6043
 2293TIP3    H231075   3.415   6.703   9.839 -0.6980  0.4548  0.6699
 2294TIP3   OH231076   5.354   2.861   1.190 -0.8642 -0.1256 -0.2015
 2294TIP3    H131077   5.400   2.943   1.207  1.4993 -1.3051 -0.5246
 2294TIP3    H231078   5.317   2.873   1.102 -1.7989  1.0903  0.3267
 2295TIP3   OH231079   2.316   4.914   8.412  0.2116 -0.7082  0.2912
 2295TIP3    H131080   2.311   4.866   8.329 -0.9231 -0.7661  0.3748
 2295TIP3    H231081   2.362   4.854   8.471 -0.7381 -1.5132  0.2495
 2296TIP3   OH231082   1.683   0.587   1.584  0.1032  0.8783  0.2863
 2296TIP3    H131083   1.708   0.659   1.527 -0.4553  0.9693  0.1554
 2296TIP3    H231084   1.589   0.597   1.597  0.1650  0.6710  0.9612
 2297TIP3   OH231085   6.998   6.868   9.515  0.6325  0.4869  0.2039
 2297TIP3    H131086   7.068   6.933   9.514  1.1011 -0.0066  0.3649
 2297TIP3    H231087   6.982   6.848   9.423  1.7270 -0.4692  0.1954
 2298TIP3   OH231088   6.571   0.572   9.943 -0.3496  0.8033  0.1858
 2298TIP3    H131089   6.586   0.644  10.004 -2.8611  1.9903 -0.4611
 2298TIP3    H231090   6.586   0.493   9.995  0.9201  1.7535  1.3441
 2299TIP3   OH231091   5.129   6.429   0.995 -0.6514  0.3339  0.0670
 2299TIP3    H131092   5.084   6.501   1.039  1.6763  0.8283  1.8083
 2299TIP3    H231093   5.221   6.440   1.018 -0.1039 -2.8151 -0.1733
 2300TIP3   OH231094   0.150   4.176   9.182  0.2881 -0.5868  0.5545
 2300TIP3    H131095   0.237   4.205   9.155  0.7138 -0.7220  1.7260
 2300TIP3    H231096   0.104   4.157   9.100  0.8028  1.0533 -0.1442
 2301TIP3   OH231097   3.211   6.002   6.775  0.4840 -0.0188  0.4008
 2301TIP3    H131098   3.241   6.092   6.791 -1.0380  0.3887  1.0892
 2301TIP3    H231099   3.125   6.012   6.735  0.8430 -1.1793 -0.7428
 2302TIP3   OH231100   7.124   3.016   9.419 -0.8154 -0.3648 -0.3833
 2302TIP3    H131101   7.097   3.097   9.375 -0.4297  0.7080  1.2643
 2302TIP3    H231102   7.160   2.962   9.349 -0.2532  1.2477 -1.4123
 2303TIP3   OH231103   4.419   0.445   0.806 -0.2234  0.0314  0.5907
 2303TIP3    H131104   4.461   0.529   0.828  0.7075 -0.2162 -0.1770
 2303TIP3    H231105   4.440   0.388   0.880 -0.8253  0.4492  1.0985
 2304TIP3   OH231106   5.061   3.444   1.141  0.4186  0.4261  0.2565
 2304TIP3    H131107   5.060   3.426   1.234 -0.6134 -0.3006  0.1225
 2304TIP3    H231108   5.151   3.429   1.114  0.2919 -1.4877  0.7499
 2305TIP3   OH231109   3.712   2.569   8.676 -0.8320 -0.3617  0.0735
 2305TIP3    H131110   3.747   2.651   8.710  0.2416 -0.0866 -1.5509
 2305TIP3    H231111   3.617   2.582   8.673 -0.6842  0.7627 -0.0221
 2306TIP3   OH231112   5.670   1.623   8.506  0.6180 -0.0203  0.2350
 2306TIP3    H131113   5.754   1.668   8.518 -0.0080  1.1189  0.5013
 2306TIP3    H231114   5.632   1.665   8.429  0.1050 -0.2325  0.3727
 2307TIP3   OH231115   4.185   7.104   1.201 -0.1823  0.1214 -0.0095
 2307TIP3    H131116   4.265   7.105   1.149 -0.5103 -1.2955 -0.6196
 2307TIP3    H231117   4.196   7.173   1.266  0.8593  0.9822 -1.0672
 2308TIP3   OH231118   0.492   1.200   8.090 -0.3824  0.6765  0.0600
 2308TIP3    H131119   0.545   1.217   8.167  0.2635 -1.7095  0.2093
 2308TIP3    H231120   0.403   1.226   8.116 -0.3173 -0.7108  1.9024
 2309TIP3   OH231121   5.700   0.271   7.700  0.1560  0.4601 -0.1132
 2309TIP3    H131122   5.768   0.204   7.704 -2.1761 -2.0938  0.1080
 2309TIP3    H231123   5.674   0.285   7.791  0.3450  1.3816 -0.1948
 2310TIP3   OH231124   5.099   0.964   9.993 -0.2757 -0.3484 -0.3031
 2310TIP3    H131125   5.169   0.958   9.929 -2.3102  2.0290 -2.9621
 2310TIP3    H231126   5.116   1.045  10.040 -1.1100  0.1529 -0.8480
 2311TIP3   OH231127   6.047   2.276   0.089  0.7814 -0.2070 -0.3194
 2311TIP3    H131128   6.035   2.341   0.158  1.3400  0.2026 -0.5998
 2311TIP3    H231129   6.138   2.286   0.062  1.1169 -1.6476  0.1704
 2312TIP3   OH231130   3.683   3.257   0.344 -0.0437  0.3406  0.4785
 2312TIP3    H131131   3.726   3.249   0.429  1.6696 -0.7581 -0.4283
 2312TIP3    H231132   3.682   3.351   0.326  0.6021  0.4946  1.2131
 2313TIP3   OH231133   1.659   2.739   9.776  0.5968 -0.3893  0.4778
 2313TIP3    H131134   1.740   2.716   9.821  1.2087  0.5847 -0.0927
 2313TIP3    H231135   1.686   2.796   9.705 -0.7194  1.1724  1.1518
 2314TIP3   OH231136   6.703   3.588   9.957 -0.1465 -0.2911  0.0267
 2314TIP3    H131137   6.680   3.622  10.043 -1.1296 -2.1953  0.5678
 2314TIP3    H231138   6.797   3.569   9.964 -0.2753 -0.7031  0.7960
 2315TIP3   OH231139   0.147   1.744   0.166 -0.6077 -0.0235 -0.0559
 2315TIP3    H131140   0.093   1.816   0.199 -1.0056 -0.8474  1.1619
 2315TIP3    H231141   0.226   1.786   0.132 -1.4554  1.0922 -0.6922
 2316TIP3   OH231142   1.751   6.517   9.021  0.5736 -0.6959  0.0610
 2316TIP3    H131143   1.729   6.501   9.113 -2.3169  0.0504 -0.4225
 2316TIP3    H231144   1.742   6.612   9.011 -2.0266 -1.0268 -1.5875
 2317TIP3   OH231145   4.859   6.596   8.018 -0.0009  0.2007 -0.0960
 2317TIP3    H131146   4.856   6.627   7.928  1.0648  1.5641  0.2841
 2317TIP3    H231147   4.768   6.596   8.047 -0.3470 -0.2124 -1.1544
 2318TIP3   OH231148   2.740   5.941   7.833 -0.0010  0.4443  0.4285
 2318TIP3    H131149   2.794   5.865   7.809 -1.5106  0.0717 -2.0926
 2318TIP3    H231150   2.786   6.015   7.795 -0.5359  0.2899 -0.5411
 2319TIP3   OH231151   7.185   4.686   7.402  0.8570  0.1493  0.0757
 2319TIP3    H131152   7.117   4.659   7.464 -0.0281 -0.2574 -1.0287
 2319TIP3    H231153   7.252   4.618   7.408 -0.7456 -1.7407 -1.7372
 2320TIP3   OH231154   3.390   4.209   9.896  0.3767  0.1240 -0.0662
 2320TIP3    H131155   3.443   4.182   9.821  0.0835  1.2087 -0.6901
 2320TIP3    H231156   3.455   4.229   9.964  0.6806 -0.1544 -0.2700
 2321TIP3   OH231157   1.604   1.745   1.349  0.1846 -0.4166 -0.0160
 2321TIP3    H131158   1.680   1.758   1.405 -0.4298  0.3296  0.6714
 2321TIP3    H231159   1.616   1.806   1.277 -0.2052  0.3811  0.5788
 2322TIP3   OH231160   1.305   6.552   0.606 -0.4591 -0.2301 -0.1674
 2322TIP3    H131161   1.313   6.461   0.578  1.0414  0.4657 -2.2054
 2322TIP3    H231162   1.352   6.556   0.689  0.3060 -1.1100 -0.5446
 2323TIP3   OH231163   2.489   2.975   7.542 -0.9739  0.1659  0.1364
 2323TIP3    H131164   2.492   3.001   7.634 -0.4470  0.0229  0.1632
 2323TIP3    H231165   2.563   2.915   7.532 -0.3740  1.0121 -0.6327
 2324TIP3   OH231166   0.117   2.173   2.292  0.1274  0.1617  0.3409
 2324TIP3    H131167   0.022   2.172   2.299  0.1918 -0.2974  1.2407
 2324TIP3    H231168   0.137   2.253   2.243 -0.7574 -0.1427 -0.5331
 2325TIP3   OH231169   4.557   0.267   0.959 -0.5611 -0.7862 -0.4036
 2325TIP3    H131170   4.538   0.208   1.033 -0.4101  1.8371  1.9241
 2325TIP3    H231171   4.651   0.259   0.946 -0.1217  0.5464  1.5086
 2326TIP3   OH231172   4.479   4.588   7.959 -0.0875  0.8942 -0.4603
 2326TIP3    H131173   4.509   4.518   7.902 -2.9366 -0.8481 -0.0077
 2326TIP3    H231174   4.551   4.602   8.021  1.4454  0.0451 -1.9988
 2327TIP3   OH231175   1.163   3.821   8.841  0.5997  0.2247  0.6776
 2327TIP3    H131176   1.148   3.908   8.877 -1.3977 -0.5759  1.9181
 2327TIP3    H231177   1.083   3.799   8.795  1.5819 -0.4661 -0.7917
 2328TIP3   OH231178   4.948   2.300   7.964 -0.1295  0.1898  0.0418
 2328TIP3    H131179   4.938   2.206   7.979  1.5902 -0.1466 -0.7644
 2328TIP3    H231180   4.979   2.307   7.874 -1.0621  1.6079 -0.2059
 2329TIP3   OH231181   2.131   6.192   0.372 -0.0770 -0.0511  0.9077
 2329TIP3    H131182   2.175   6.189   0.457  1.7168  3.1175  0.2832
 2329TIP3    H231183   2.187   6.140   0.314 -1.1544 -1.9881  1.5474
 2330TIP3   OH231184   1.725   5.214   9.400 -0.6020 -0.1824 -0.0982
 2330TIP3    H131185   1.640   5.171   9.410 -1.3272  0.7700 -1.6413
 2330TIP3    H231186   1.781   5.147   9.361 -1.8366  0.2785 -2.8956
 2331TIP3   OH231187   2.153   3.869   9.233 -0.1803  0.1604  0.6153
 2331TIP3    H131188   2.163   3.895   9.141  0.2026 -1.7920  0.0758
 2331TIP3    H231189   2.064   3.835   9.238  0.0562 -0.4478  0.7715
 2332TIP3   OH231190   2.145   6.615   8.971  0.2977 -0.1297 -0.1463
 2332TIP3    H131191   2.103   6.664   8.901 -1.0957 -1.1157 -0.0505
 2332TIP3    H231192   2.083   6.545   8.992  1.1974 -0.5532  1.2772
 2333TIP3   OH231193   2.354   3.277   2.153 -0.6564  0.0794  0.3125
 2333TIP3    H131194   2.362   3.277   2.058 -0.3985  0.9302  0.3312
 2333TIP3    H231195   2.353   3.184   2.177 -2.0878 -0.1861 -0.6265
 2334TIP3   OH231196   4.841   7.004   1.529  0.0564  0.1611  0.3317
 2334TIP3    H131197   4.898   7.075   1.557 -0.0823  0.0523  0.9039
 2334TIP3    H231198   4.856   6.934   1.593  0.6594 -0.5683 -0.5813
 2335TIP3   OH231199   4.633   6.185   8.976 -0.0776  0.3583  0.0728
 2335TIP3    H131200   4.675   6.114   8.927 -1.0166  0.1580 -0.4690
 2335TIP3    H231201   4.542   6.184   8.946 -0.6139  0.4297  1.5905
 2336TIP3   OH231202   6.243   4.224   0.120  0.2632  0.6344 -0.1398
 2336TIP3    H131203   6.222   4.312   0.091 -1.8852 -0.2003 -1.3885
 2336TIP3    H231204   6.158   4.182   0.134  1.0786 -2.0364 -2.1925
 2337TIP3   OH231205   4.917   0.215   1.579  0.5674 -0.2011  0.3345
 2337TIP3    H131206   4.984   0.255   1.524  0.6351 -0.7727 -0.0129
 2337TIP3    H231207   4.861   0.288   1.606  1.6516  0.3657  1.1097
 2338TIP3   OH231208   3.104   1.387   9.021 -0.1044 -0.1513  0.2426
 2338TIP3    H131209   3.171   1.442   9.060  0.2772 -1.6015  1.7593
 2338TIP3    H231210   3.053   1.354   9.095 -2.1910  0.4867 -0.8356
 2339TIP3   OH231211   6.736   6.288   9.378 -0.1885 -0.3249 -0.2479
 2339TIP3    H131212   6.776   6.372   9.398  0.9673 -1.4377  2.7874
 2339TIP3    H231213   6.795   6.247   9.315 -1.4182  1.4820 -2.7714
 2340TIP3   OH231214   4.806   3.939   9.433  0.4232  0.1947  0.0999
 2340TIP3    H131215   4.726   3.990   9.444  0.6407  0.3732  0.9254
 2340TIP3    H231216   4.872   4.003   9.409  0.4741  0.1528  0.1272
 2341TIP3   OH231217   3.737   1.252   2.092  0.3523  0.1833 -0.2675
 2341TIP3    H131218   3.776   1.222   2.174  0.5283  1.0003 -0.0505
 2341TIP3    H231219   3.647   1.219   2.095  0.1629  0.7506  0.5515
 2342TIP3   OH231220   1.606   0.152   9.334  0.1194  0.1435 -0.1629
 2342TIP3    H131221   1.511   0.140   9.327 -0.1240  2.1671 -1.0038
 2342TIP3    H231222   1.618   0.247   9.335  2.1926 -0.0545 -1.1732
 2343TIP3   OH231223   5.747   5.205   0.718 -0.2777  0.2328  0.4408
 2343TIP3    H131224   5.688   5.187   0.645  0.1259 -1.1127  0.4078
 2343TIP3    H231225   5.693   5.251   0.782 -0.7982  0.8863 -0.4454
 2344TIP3   OH231226   4.933   4.071   7.429 -0.8504  0.1767  0.4788
 2344TIP3    H131227   4.916   4.163   7.411 -1.2441 -0.1231 -0.8433
 2344TIP3    H231228   4.997   4.071   7.500 -0.0088  1.4899 -0.2308
 2345TIP3   OH231229   3.639   6.755   8.509  0.6840 -0.2122 -0.4488
 2345TIP3    H131230   3.569   6.810   8.543  1.6617 -0.3864  2.0765
 2345TIP3    H231231   3.671   6.800   8.431  0.4910  2.0533  0.7247
 2346TIP3   OH231232   6.199   7.116   0.113 -0.2889 -0.1068  0.4991
 2346TIP3    H131233   6.183   7.039   0.167 -0.5350 -0.9709 -0.7756
 2346TIP3    H231234   6.232   7.082   0.030 -1.8572  1.0239 -0.6688
 2347TIP3   OH231235   2.865   0.481   8.787  0.0243 -0.0154 -0.1582
 2347TIP3    H131236   2.874   0.390   8.817  0.5770 -0.2760 -1.0755
 2347TIP3    H231237   2.954   0.513   8.780 -0.1668  1.6771  3.1838
 2348TIP3   OH231238   5.568   7.253   0.429 -0.5256 -0.0434 -0.1596
 2348TIP3    H131239   5.632   7.239   0.498  0.6048 -0.8829 -1.3320
 2348TIP3    H231240   5.580   7.344   0.403 -0.6730  0.1578  0.4628
 2349TIP3   OH231241   2.362   1.702   7.821 -0.3051  0.3362 -0.4152
 2349TIP3    H131242   2.413   1.732   7.895  1.1794  1.9528 -1.9834
 2349TIP3    H231243   2.345   1.610   7.839  0.7077  0.4714  1.5106
 2350TIP3   OH231244   1.559   0.103   0.429 -0.6277 -0.3979  0.2330
 2350TIP3    H131245   1.630   0.068   0.376 -1.7946 -0.9016 -1.0609
 2350TIP3    H231246   1.572   0.064   0.516  0.2896 -0.9959 -0.1691
 2351TIP3   OH231247   5.566   0.270   1.829 -0.4751 -0.3312 -0.6885
 2351TIP3    H131248   5.535   0.355   1.859 -1.7598 -0.1490 -2.3811
 2351TIP3    H231249   5.659   0.283   1.809 -0.2443  0.1969  0.6348
 2352TIP3   OH231250   0.953   2.406   9.153  0.2922  0.6524  0.3762
 2352TIP3    H131251   1.004   2.447   9.083  0.4483  2.1468  1.3121
 2352TIP3    H231252   1.018   2.372   9.214  0.1608 -0.9136 -0.3116
 2353TIP3   OH231253   3.671   5.608   0.024 -0.0882 -0.2939  0.0124
 2353TIP3    H131254   3.613   5.542  -0.012 -0.8500  1.0195 -1.2666
 2353TIP3    H231255   3.731   5.559   0.080 -0.7991 -2.0153 -0.6617
 2354TIP3   OH231256   2.781   0.360   0.967 -0.2638 -0.2051  0.2079
 2354TIP3    H131257   2.740   0.386   1.050 -1.0478 -0.7842  0.0131
 2354TIP3    H231258   2.866   0.404   0.967 -0.9817  1.2416  0.5193
 2355TIP3   OH231259   5.727   3.684   7.960 -0.5237 -0.3869 -0.2884
 2355TIP3    H131260   5.728   3.589   7.947  0.1382 -0.1315 -2.4203
 2355TIP3    H231261   5.648   3.713   7.914  1.7325  0.5283 -4.0028
 2356TIP3   OH231262   2.931   4.866   0.506  0.3510  0.4997 -0.2376
 2356TIP3    H131263   2.913   4.808   0.580 -0.8350  0.4381 -0.5522
 2356TIP3    H231264   2.979   4.811   0.444  0.8605  0.3957  0.2427
 2357TIP3   OH231265   1.220   2.079   6.498 -0.1446 -0.2261 -0.0915
 2357TIP3    H131266   1.159   2.110   6.565  0.0867 -0.2095  0.1142
 2357TIP3    H231267   1.276   2.155   6.481 -1.1930  0.2697 -1.4529
 2358TIP3   OH231268   1.004   6.678   7.618 -0.3201 -0.1765  0.1692
 2358TIP3    H131269   0.925   6.732   7.621 -0.6002 -0.5920  0.3145
 2358TIP3    H231270   1.038   6.679   7.707 -0.8408 -0.9839  0.3978
 2359TIP3   OH231271   1.149   6.142   8.823  0.1379  0.4842  0.0640
 2359TIP3    H131272   1.239   6.110   8.823 -1.0275 -3.2411 -0.0411
 2359TIP3    H231273   1.129   6.155   8.730  1.1888  3.8095  0.1655
 2360TIP3   OH231274   6.811   4.058   7.098  0.0007 -0.0930 -0.5682
 2360TIP3    H131275   6.780   3.973   7.069 -0.3957 -0.4193  0.7430
 2360TIP3    H231276   6.905   4.058   7.077  0.9718 -2.4930  2.9010
 2361TIP3   OH231277   2.625   3.231   2.676  0.0732 -0.0226  0.0275
 2361TIP3    H131278   2.543   3.263   2.637  0.0088  0.4251  0.5210
 2361TIP3    H231279   2.693   3.285   2.636 -0.1556  1.8418  1.9520
 2362TIP3   OH231280   1.035   4.630   9.747  0.1955 -0.4945 -0.6388
 2362TIP3    H131281   1.047   4.543   9.708  0.3330 -1.1501  0.7840
 2362TIP3    H231282   0.941   4.645   9.745  0.0601 -1.1630  0.0464
 2363TIP3   OH231283   5.217   7.188   6.941  0.8227 -0.3449  0.3671
 2363TIP3    H131284   5.174   7.257   6.891 -1.5743 -3.4239 -2.2639
 2363TIP3    H231285   5.301   7.225   6.966 -0.4338  3.5718 -0.5354
 2364TIP3   OH231286   3.430   6.737   0.160 -0.5120  0.8725 -0.1923
 2364TIP3    H131287   3.423   6.747   0.065 -0.4083  0.9221 -0.1946
 2364TIP3    H231288   3.371   6.804   0.196 -2.3854 -0.6611 -0.2445
 2365TIP3   OH231289   6.371   6.884   2.201  0.1114 -0.1655  0.1139
 2365TIP3    H131290   6.429   6.908   2.274  0.3168  0.1471 -0.1537
 2365TIP3    H231291   6.327   6.965   2.177  0.4828 -0.1329 -0.4956
 2366TIP3   OH231292   2.062   3.018   1.283 -0.1361  0.2515  0.1797
 2366TIP3    H131293   2.014   2.958   1.225 -2.9803  1.3442  1.2351
 2366TIP3    H231294   2.121   2.961   1.332  1.2851 -0.8928 -2.6420
 2367TIP3   OH231295   5.377   4.411   7.274  0.0070  0.0620 -0.0191
 2367TIP3    H131296   5.395   4.318   7.261  2.9585  0.6058 -0.5985
 2367TIP3    H231297   5.286   4.415   7.302 -0.0366 -3.0462  0.5681
 2368TIP3   OH231298   6.927   2.842   2.027  0.2251  0.3060 -0.1559
 2368TIP3    H131299   6.923   2.927   2.070 -0.2604 -0.0534  0.5323
 2368TIP3    H231300   7.020   2.820   2.024  0.2751  0.4138  0.5672
 2369TIP3   OH231301   3.445   3.092   7.589 -0.3031  0.2991  0.1881
 2369TIP3    H131302   3.539   3.104   7.577 -0.1827 -1.2053 -0.6384
 2369TIP3    H231303   3.411   3.085   7.500 -1.0845 -0.0087  0.5048
 2370TIP3   OH231304   3.011   0.362   9.206  0.2279 -0.1151 -0.1708
 2370TIP3    H131305   2.923   0.357   9.170 -0.3148  0.5764  0.9809
 2370TIP3    H231306   3.023   0.278   9.251 -0.2093  0.1212  0.4136
 2371TIP3   OH231307   3.282   2.325   2.137 -0.3672  0.7559  0.0234
 2371TIP3    H131308   3.210   2.387   2.149 -0.0980  1.0334  0.2375
 2371TIP3    H231309   3.250   2.243   2.177 -1.4094  0.2209 -1.7974
 2372TIP3   OH231310   1.521   1.861   8.357 -0.2142 -0.2056 -0.1771
 2372TIP3    H131311   1.501   1.789   8.297  1.4859 -1.1067  0.2600
 2372TIP3    H231312   1.533   1.937   8.300 -1.5012 -0.3655 -0.6940
 2373TIP3   OH231313   6.581   6.229   1.821 -0.0564 -0.0001 -0.2196
 2373TIP3    H131314   6.635   6.155   1.848  1.5152  0.5662 -1.6161
 2373TIP3    H231315   6.580   6.287   1.897  2.3471  0.5076 -0.4889
 2374TIP3   OH231316   5.440   5.781   8.954 -0.2569  0.6201  0.5775
 2374TIP3    H131317   5.391   5.863   8.952 -0.0753  0.7132 -0.5062
 2374TIP3    H231318   5.374   5.713   8.939 -0.5018  0.5023  2.0582
 2375TIP3   OH231319   3.242   6.014   3.197  0.2778 -0.1218 -0.2527
 2375TIP3    H131320   3.148   6.030   3.185  0.2237 -0.0368  0.2579
 2375TIP3    H231321   3.281   6.036   3.113 -0.2754 -1.0659 -0.7859
 2376TIP3   OH231322   2.503   2.326   0.715 -0.3464  0.2209 -0.0132
 2376TIP3    H131323   2.585   2.283   0.738 -0.5426 -0.0916  0.1047
 2376TIP3    H231324   2.521   2.369   0.631 -0.5915 -1.3306 -0.8933
 2377TIP3   OH231325   1.250   3.741   8.067  0.1096 -0.7594 -0.2002
 2377TIP3    H131326   1.302   3.665   8.093  1.6615  0.5769  0.7474
 2377TIP3    H231327   1.185   3.751   8.137  1.9700  0.6599  1.4311
 2378TIP3   OH231328   1.046   1.911   0.585 -0.3550 -0.4191  0.0859
 2378TIP3    H131329   1.037   1.861   0.666 -0.4754 -0.7049 -0.1026
 2378TIP3    H231330   1.132   1.952   0.592 -0.0774 -0.9895  0.0525
 2379TIP3   OH231331   2.655   6.631   3.060  0.5634  0.7370 -0.7429
 2379TIP3    H131332   2.567   6.666   3.048 -0.7379 -1.9797 -0.0245
 2379TIP3    H231333   2.661   6.613   3.154  1.4983 -0.0454 -0.9326
 2380TIP3   OH231334   0.467   6.492   1.880 -0.8634  0.3796 -0.2104
 2380TIP3    H131335   0.449   6.463   1.791  1.9575 -2.1493 -0.1076
 2380TIP3    H231336   0.512   6.576   1.870 -1.6056  0.6890 -1.0447
 2381TIP3   OH231337   5.115   1.275   9.274  0.2856  0.4683 -0.1434
 2381TIP3    H131338   5.124   1.180   9.264  0.9273  0.5923 -0.8814
 2381TIP3    H231339   5.025   1.288   9.303  0.5501 -0.4418  1.1439
 2382TIP3   OH231340   6.538   4.659   8.427 -0.3140 -0.0442 -0.1706
 2382TIP3    H131341   6.477   4.731   8.442 -0.8378 -0.4165 -0.4854
 2382TIP3    H231342   6.542   4.614   8.512 -0.2922  0.1208 -0.0834
 2383TIP3   OH231343   2.313   0.608   7.599 -0.4462 -0.4584  0.4698
 2383TIP3    H131344   2.282   0.692   7.635 -0.3741 -0.2527  0.0548
 2383TIP3    H231345   2.239   0.548   7.611 -1.6388  0.4101 -1.9096
 2384TIP3   OH231346   2.945   4.217   1.937 -0.5170 -0.0999 -0.6788
 2384TIP3    H131347   2.870   4.242   1.884 -1.7821  1.0675  1.5094
 2384TIP3    H231348   3.009   4.286   1.921 -1.2821  0.7983  0.0372
 2385TIP3   OH231349   2.445   4.947   0.999 -0.3029 -0.2367  0.4840
 2385TIP3    H131350   2.463   5.037   0.971 -0.3296 -0.2558  0.4045
 2385TIP3    H231351   2.406   4.906   0.922 -0.0613 -0.3881  0.4425
 2386TIP3   OH231352   5.675   1.249   7.379 -0.5461  0.4093 -0.0244
 2386TIP3    H131353   5.735   1.197   7.433  1.2163  1.4599 -0.8559
 2386TIP3    H231354   5.589   1.209   7.392  0.5471 -2.0805  0.1364
 2387TIP3   OH231355   6.829   0.012   7.271 -0.2479 -0.2857  0.0977
 2387TIP3    H131356   6.916   0.050   7.273 -0.0716 -0.6946  0.4045
 2387TIP3    H231357   6.804   0.004   7.364 -0.5649 -0.2751  0.0151
 2388TIP3   OH231358   2.710   2.188   2.992 -0.6205 -0.6041 -0.1129
 2388TIP3    H131359   2.627   2.141   2.985 -1.0378  0.2820 -1.8875
 2388TIP3    H231360   2.716   2.237   2.910  1.8143 -0.8807 -0.1744
 2389TIP3   OH231361   5.722   7.091   7.752 -0.5299  0.7379 -0.4615
 2389TIP3    H131362   5.736   7.027   7.683  0.1837 -0.4019  0.6991
 2389TIP3    H231363   5.767   7.055   7.828 -1.7755  1.6681  0.7733
 2390TIP3   OH231364   5.440   3.767   7.327 -0.0482  0.0416 -0.0891
 2390TIP3    H131365   5.410   3.743   7.239  0.9523 -1.3153 -0.1068
 2390TIP3    H231366   5.360   3.776   7.378 -0.6193 -2.7981 -0.2870
 2391TIP3   OH231367   5.390   3.884   0.248  0.2165 -0.2082  0.1716
 2391TIP3    H131368   5.424   3.967   0.214 -0.3381 -0.8078 -2.0564
 2391TIP3    H231369   5.419   3.819   0.184 -1.4356 -1.3389  0.5109
 2392TIP3   OH231370   0.289   0.633   0.788  0.5739 -0.0956  0.3804
 2392TIP3    H131371   0.257   0.623   0.699  0.9162  1.2853  0.0755
 2392TIP3    H231372   0.364   0.692   0.780 -1.1890  2.5594  1.8674
 2393TIP3   OH231373   3.264   1.124   9.867  0.0581 -0.4664 -0.1184
 2393TIP3    H131374   3.356   1.131   9.890  0.4162  3.5005 -1.9091
 2393TIP3    H231375   3.263   1.065   9.791  1.1290 -0.6270 -0.0235
 2394TIP3   OH231376   7.028   2.562   8.595  0.0215  0.1757  0.1554
 2394TIP3    H131377   7.114   2.525   8.576  0.4280  0.9187  0.4796
 2394TIP3    H231378   6.966   2.491   8.577  0.7290 -0.4873  0.2825
 2395TIP3   OH231379   0.134   5.407   8.430  0.2485  0.5368 -0.4552
 2395TIP3    H131380   0.215   5.397   8.480  0.8580 -2.6696 -1.8776
 2395TIP3    H231381   0.094   5.320   8.430 -1.9435  1.4462 -1.9089
 2396TIP3   OH231382   7.259   7.201   8.297 -0.1788  0.2802  0.2139
 2396TIP3    H131383   7.262   7.131   8.362  1.4088  0.4011  0.3019
 2396TIP3    H231384   7.287   7.160   8.216  1.0565  0.8450  0.3279
 2397TIP3   OH231385   6.727   3.653   1.040 -0.4963 -0.1931  0.4164
 2397TIP3    H131386   6.746   3.589   0.972 -1.6978  0.0854 -0.2078
 2397TIP3    H231387   6.639   3.632   1.069 -1.1349  1.4805 -0.1711
 2398TIP3   OH231388   5.500   6.403   8.992 -0.5330  0.0316  0.3051
 2398TIP3    H131389   5.459   6.488   9.009 -0.1010  0.6988 -1.6986
 2398TIP3    H231390   5.436   6.356   8.937 -0.4133 -0.6283  0.7146
 2399TIP3   OH231391   1.446   4.591   1.179 -0.0653 -0.1556 -0.0283
 2399TIP3    H131392   1.383   4.564   1.245  0.2176 -0.2402  0.2104
 2399TIP3    H231393   1.517   4.526   1.186  0.6909  0.7136  0.6438
 2400TIP3   OH231394   4.612   3.639   8.599 -0.6710 -0.5511  0.1162
 2400TIP3    H131395   4.632   3.546   8.614  1.4298  0.0364  1.4049
 2400TIP3    H231396   4.675   3.667   8.533 -0.7634  0.1309  0.3085
 2401TIP3   OH231397   4.728   1.457   1.964  0.8692 -0.2346 -0.1937
 2401TIP3    H131398   4.797   1.515   1.995  1.1914 -0.7597  0.0855
 2401TIP3    H231399   4.647   1.507   1.978  1.1374  0.1324  0.0704
 2402TIP3   OH231400   7.221   5.607   2.080  0.2282  0.9771 -0.0793
 2402TIP3    H131401   7.210   5.696   2.112 -1.9404  0.6053  0.4103
 2402TIP3    H231402   7.265   5.561   2.151  2.8202  1.9377 -0.9478
 2403TIP3   OH231403   6.636   5.329   0.741 -0.0479 -0.1863 -0.0714
 2403TIP3    H131404   6.648   5.266   0.813  1.6660 -0.4232 -0.5121
 2403TIP3    H231405   6.664   5.413   0.778 -0.7751  0.0206  0.0254
 2404TIP3   OH231406   4.655   4.980   1.019 -0.0678 -0.0742  0.4124
 2404TIP3    H131407   4.647   4.958   0.926 -0.2199 -0.8731  0.6125
 2404TIP3    H231408   4.638   4.898   1.065 -0.7600  0.4803  1.1723
 2405TIP3   OH231409   2.902   3.039   8.132 -0.2721 -0.0363  0.5599
 2405TIP3    H131410   2.965   3.094   8.086  0.7031  0.6185  2.5673
 2405TIP3    H231411   2.827   3.034   8.072  1.4525 -0.4825 -1.7163
 2406TIP3   OH231412   3.106   5.507   2.670  0.4841 -0.2029  0.2671
 2406TIP3    H131413   3.019   5.496   2.632  1.0364 -1.0815 -0.8269
 2406TIP3    H231414   3.138   5.589   2.633  0.6330 -0.5636 -0.4365
 2407TIP3   OH231415   0.678   2.066   1.478 -0.3006  0.2486  0.0657
 2407TIP3    H131416   0.673   2.147   1.428 -1.0844  0.2154  0.0751
 2407TIP3    H231417   0.616   2.078   1.549 -0.0450 -0.1648  0.3628
 2408TIP3   OH231418   3.422   1.149   8.667  0.1056 -0.6261 -0.3615
 2408TIP3    H131419   3.406   1.076   8.607  0.5469 -0.1642 -1.0586
 2408TIP3    H231420   3.369   1.129   8.744 -0.8204 -1.0277 -1.0786
 2409TIP3   OH231421   4.126   6.839   7.428 -0.0428 -0.2555  0.6276
 2409TIP3    H131422   4.127   6.919   7.376  1.6687 -0.0304  0.9721
 2409TIP3    H231423   4.072   6.778   7.377 -0.7341  0.8536 -0.0033
 2410TIP3   OH231424   3.064   0.410   1.949  0.2042 -1.3028  0.2982
 2410TIP3    H131425   3.040   0.492   1.907  0.5092  0.2486  2.9308
 2410TIP3    H231426   3.145   0.383   1.906 -0.1820 -0.5244 -0.9568
 2411TIP3   OH231427   4.734   4.236   2.768 -0.1331 -0.4633 -0.4235
 2411TIP3    H131428   4.663   4.221   2.830  0.1916 -1.6025 -0.2991
 2411TIP3    H231429   4.704   4.309   2.714 -1.2533 -0.7064 -0.1582
 2412TIP3   OH231430   5.108   6.713   2.706 -0.7559 -0.5516  0.3563
 2412TIP3    H131431   5.053   6.791   2.711  0.4737  0.3360  0.5457
 2412TIP3    H231432   5.194   6.742   2.737  0.3775 -1.3675 -1.7758
 2413TIP3   OH231433   6.358   2.488   9.794 -0.3969 -0.4083  0.1307
 2413TIP3    H131434   6.451   2.499   9.775 -0.1155 -1.0786  1.0432
 2413TIP3    H231435   6.320   2.575   9.781  0.3938 -0.0844 -0.0438
 2414TIP3   OH231436   1.900   0.840   9.658 -0.3807  0.1985  0.6315
 2414TIP3    H131437   1.822   0.891   9.682 -0.6867 -0.6370  1.4677
 2414TIP3    H231438   1.881   0.752   9.688  0.3160 -0.3388 -0.4258
 2415TIP3   OH231439   6.249   1.613   1.122  0.3572  0.0530 -0.4325
 2415TIP3    H131440   6.303   1.545   1.163  0.0501 -0.2198 -0.4767
 2415TIP3    H231441   6.163   1.573   1.113 -0.1909  0.8995  0.7614
 2416TIP3   OH231442   0.022   4.055   2.268  0.2278 -0.2951 -0.2029
 2416TIP3    H131443  -0.006   4.144   2.287 -0.4215 -0.8260  1.5406
 2416TIP3    H231444  -0.026   4.031   2.189 -2.3781 -0.2637  1.2571
 2417TIP3   OH231445   2.132   4.931   7.966 -0.0045  0.0036 -0.1208
 2417TIP3    H131446   2.059   4.883   7.927 -0.6417 -1.1713  2.2745
 2417TIP3    H231447   2.178   4.969   7.892 -2.1461 -0.5075 -1.8350
 2418TIP3   OH231448   5.092   1.430   1.909 -0.9009 -0.4564 -0.4414
 2418TIP3    H131449   5.038   1.471   1.841 -0.6324 -5.6123 -4.4897
 2418TIP3    H231450   5.182   1.450   1.883 -0.7727  0.6839  0.8145
 2419TIP3   OH231451   2.035   1.447   8.160 -0.2263 -0.0029  0.5296
 2419TIP3    H131452   2.124   1.412   8.163  0.0337  0.3146 -1.6825
 2419TIP3    H231453   2.046   1.539   8.134 -1.2215 -0.6406 -2.6453
 2420TIP3   OH231454   3.084   2.980   8.355  0.1842 -0.7882 -0.2917
 2420TIP3    H131455   3.155   3.043   8.343  0.1157 -0.3245  1.4526
 2420TIP3    H231456   3.007   3.025   8.319  0.3311 -0.3068 -0.0125
 2421TIP3   OH231457   1.774   4.863   1.272 -0.0410 -0.2977 -0.4414
 2421TIP3    H131458   1.819   4.912   1.341  2.5010 -2.2900 -0.5285
 2421TIP3    H231459   1.686   4.847   1.307  0.6423  0.1948  1.6296
 2422TIP3   OH231460   5.952   1.021   7.065  0.1855 -0.4281  0.0531
 2422TIP3    H131461   5.911   0.982   6.988  0.1975  0.3953 -0.3842
 2422TIP3    H231462   5.880   1.068   7.109  0.1994 -0.8106  0.4882
 2423TIP3   OH231463   2.009   0.524   8.228 -0.0998 -0.1825  0.2373
 2423TIP3    H131464   2.002   0.612   8.263 -0.8110 -0.3082  0.4183
 2423TIP3    H231465   2.007   0.467   8.305  0.0400 -0.3752  0.1005
 2424TIP3   OH231466   1.683   0.344   2.050  0.3285 -0.3350  0.2281
 2424TIP3    H131467   1.613   0.390   2.097  0.1671  0.3277 -0.6306
 2424TIP3    H231468   1.641   0.311   1.971  0.5652 -1.5621  0.5966
 2425TIP3   OH231469   4.939   1.980   1.799 -0.5640  0.1282  0.2358
 2425TIP3    H131470   4.871   2.046   1.784  0.4380  1.2023  0.3347
 2425TIP3    H231471   5.004   1.996   1.731 -0.9418 -1.6491 -0.5850
 2426TIP3   OH231472   0.868   4.900   8.429 -0.1328 -0.5079 -0.1175
 2426TIP3    H131473   0.858   4.984   8.385  0.8273 -1.1683 -1.6712
 2426TIP3    H231474   0.929   4.851   8.374  1.4911 -1.2238  2.1728
 2427TIP3   OH231475   6.949   6.120   9.845  0.1371  0.2619 -0.5586
 2427TIP3    H131476   6.856   6.111   9.827  0.1812 -0.7721 -0.3473
 2427TIP3    H231477   6.959   6.086   9.934  0.8842 -0.8034 -1.0251
 2428TIP3   OH231478   5.814   1.559   8.186 -0.3987  0.3826  0.2467
 2428TIP3    H131479   5.871   1.615   8.133 -0.8269 -0.3750 -1.0879
 2428TIP3    H231480   5.744   1.617   8.216  0.4615  1.0728  0.9558
 2429TIP3   OH231481   1.795   2.288   2.170 -0.0487  0.3985  0.3460
 2429TIP3    H131482   1.744   2.366   2.189 -1.2758 -0.0127 -1.0364
 2429TIP3    H231483   1.737   2.215   2.191  0.8024 -0.1460  0.8917
 2430TIP3   OH231484   7.225   1.074   8.468 -0.0722 -0.0373  0.5120
 2430TIP3    H131485   7.223   0.992   8.517  0.0452 -0.3873 -0.0628
 2430TIP3    H231486   7.316   1.084   8.440 -0.3575 -0.4191 -0.5878
 2431TIP3   OH231487   5.880   0.949   9.043  0.5813  0.0726 -0.2730
 2431TIP3    H131488   5.845   0.860   9.050  0.6370  0.0424 -0.3809
 2431TIP3    H231489   5.862   0.976   8.953  0.7450  0.0946 -0.3004
 2432TIP3   OH231490   0.084   2.526   9.465  0.1349  0.0576 -0.4790
 2432TIP3    H131491   0.016   2.480   9.514  0.5835 -0.4491 -0.3200
 2432TIP3    H231492   0.095   2.474   9.385 -0.0477  0.4437 -0.7566
 2433TIP3   OH231493   7.093   3.605   0.651  0.2397 -0.0773 -0.0320
 2433TIP3    H131494   7.187   3.610   0.632 -0.1090 -0.4004 -2.0695
 2433TIP3    H231495   7.084   3.527   0.706  1.2927  0.6902  1.2863
 2434TIP3   OH231496   1.461   3.737   0.634 -0.4417  0.5468  0.6067
 2434TIP3    H131497   1.447   3.754   0.540 -0.9116 -0.1035  0.5517
 2434TIP3    H231498   1.377   3.701   0.664  0.8896 -3.1657  0.3579
 2435TIP3   OH231499   3.570   3.373   9.805 -0.4516 -0.1634  0.2409
 2435TIP3    H131500   3.558   3.310   9.734 -0.0390  0.2148 -0.1684
 2435TIP3    H231501   3.657   3.411   9.789  0.3481 -1.2003  1.8314
 2436TIP3   OH231502   6.275   5.103   7.372  0.8597 -0.1919  0.4294
 2436TIP3    H131503   6.355   5.144   7.404  1.3335 -0.4918 -0.3332
 2436TIP3    H231504   6.267   5.134   7.282 -0.1126  0.1627  0.6269
 2437TIP3   OH231505   2.224   1.053   0.060 -0.2097 -0.3260  0.2971
 2437TIP3    H131506   2.195   1.125   0.117 -2.2920  0.1560 -1.2659
 2437TIP3    H231507   2.192   0.974   0.103 -0.8988 -0.0498  0.2935
 2438TIP3   OH231508   0.493   6.731   6.908 -0.3480  0.2661  0.3391
 2438TIP3    H131509   0.462   6.788   6.837 -0.9841 -0.2058  0.2308
 2438TIP3    H231510   0.413   6.698   6.949 -0.0644 -1.9255 -0.7041
 2439TIP3   OH231511   1.597   4.702   2.551  0.3499  0.1172 -0.0737
 2439TIP3    H131512   1.536   4.700   2.624 -0.2537  3.0471 -0.3792
 2439TIP3    H231513   1.544   4.682   2.474 -0.0856  1.5852 -0.2010
 2440TIP3   OH231514   0.617   6.965   7.351  0.3260  0.7108 -0.1544
 2440TIP3    H131515   0.551   6.902   7.322  1.2002 -0.5014  0.4359
 2440TIP3    H231516   0.698   6.938   7.307  1.3832 -0.3881  2.3128
 2441TIP3   OH231517   5.905   6.014   9.806  0.3674  0.4606 -0.2631
 2441TIP3    H131518   5.893   6.108   9.791  0.5655  0.4704 -0.3587
 2441TIP3    H231519   5.894   6.003   9.900  0.5013  0.6024 -0.2310
 2442TIP3   OH231520   5.851   2.074   8.006  0.1294 -0.6415 -0.2692
 2442TIP3    H131521   5.762   2.105   8.026 -0.2135 -1.3044 -0.7267
 2442TIP3    H231522   5.880   2.033   8.087 -0.2651 -1.0590 -0.3325
 2443TIP3   OH231523   2.101   1.353   6.784 -0.1559  0.3197 -0.1072
 2443TIP3    H131524   2.159   1.386   6.852  0.5485  0.3445 -0.6970
 2443TIP3    H231525   2.020   1.401   6.795  0.1389  0.7172  0.3675
 2444TIP3   OH231526   4.592   2.575   1.854  0.4303  0.3299  0.3626
 2444TIP3    H131527   4.526   2.642   1.871  0.3576 -0.3669  3.4771
 2444TIP3    H231528   4.543   2.494   1.842  0.6261  0.3581 -0.7455
 2445TIP3   OH231529   0.910   6.948   7.243  0.1774 -0.8126  0.0753
 2445TIP3    H131530   0.952   6.867   7.213  4.2031  1.0564 -0.0097
 2445TIP3    H231531   0.956   6.970   7.324 -0.4567  1.6058 -0.1475
 2446TIP3   OH231532   5.234   1.780   2.618  0.5832  0.0007  0.7127
 2446TIP3    H131533   5.176   1.785   2.543 -1.4824 -0.1226  2.2130
 2446TIP3    H231534   5.251   1.686   2.630 -0.9912 -0.1986  1.7084
 2447TIP3   OH231535   2.265   2.149   9.823 -0.4267 -0.3230  0.3142
 2447TIP3    H131536   2.221   2.081   9.771  1.7082 -1.4345 -0.1653
 2447TIP3    H231537   2.232   2.231   9.789 -2.0864 -1.0862 -0.0106
 2448TIP3   OH231538   1.446   7.088   1.551 -0.3553  0.3594  0.4055
 2448TIP3    H131539   1.521   7.131   1.509 -0.8544  0.4400 -0.4487
 2448TIP3    H231540   1.467   7.087   1.644  1.2355 -0.6946  0.0598
 2449TIP3   OH231541   1.294   1.462   7.303  0.6540 -0.2054  0.0269
 2449TIP3    H131542   1.199   1.456   7.293  0.5511 -0.4555  1.0508
 2449TIP3    H231543   1.319   1.380   7.346  1.2409  0.1214  0.3207
 2450TIP3   OH231544   1.020   1.762   2.362 -0.4834  0.3352 -1.2613
 2450TIP3    H131545   1.052   1.847   2.392  0.5626 -0.2792 -0.5517
 2450TIP3    H231546   1.095   1.721   2.321 -0.4775 -0.9004 -0.1097
 2451TIP3   OH231547   3.037   7.150   0.830  0.3227 -0.4330 -0.0325
 2451TIP3    H131548   2.977   7.218   0.801  0.6584 -0.5028 -0.9168
 2451TIP3    H231549   3.023   7.144   0.925  1.4981  2.0296  0.3569
 2452TIP3   OH231550   7.166   5.487   7.759  0.5324 -0.7884  0.2322
 2452TIP3    H131551   7.112   5.559   7.792 -0.8972 -1.1274 -1.2553
 2452TIP3    H231552   7.160   5.420   7.827 -0.1125 -0.4447  0.5244
 2453TIP3   OH231553   4.897   3.191   0.508  0.0207  0.1212  0.0919
 2453TIP3    H131554   4.817   3.157   0.547  0.5436  2.1606  3.3030
 2453TIP3    H231555   4.881   3.284   0.496  1.4277  0.3129 -0.5213
 2454TIP3   OH231556   3.487   4.791   8.818  0.1947  0.3767 -0.4885
 2454TIP3    H131557   3.397   4.774   8.789 -0.0350  1.5525 -0.4948
 2454TIP3    H231558   3.481   4.796   8.913 -0.2218  2.8922 -0.5911
 2455TIP3   OH231559   3.490   6.919   1.457 -0.1577 -0.0749  0.1651
 2455TIP3    H131560   3.550   6.877   1.395  1.0545  3.2052 -1.1228
 2455TIP3    H231561   3.403   6.901   1.422  0.3785 -0.4514 -1.0441
 2456TIP3   OH231562   0.554   4.894   8.304 -0.5663  0.2426  0.0709
 2456TIP3    H131563   0.607   4.951   8.250  1.8102 -0.9047  1.0306
 2456TIP3    H231564   0.514   4.832   8.243  2.0887 -1.0566 -0.4743
 2457TIP3   OH231565   2.038   6.966   0.091  0.3822  0.0507  0.2007
 2457TIP3    H131566   1.962   6.930   0.045  0.5149  0.5186 -0.3928
 2457TIP3    H231567   2.108   6.967   0.026  1.3802 -1.8760  1.1631
 2458TIP3   OH231568   4.549   2.176   1.598  0.0538 -0.7298 -0.5793
 2458TIP3    H131569   4.490   2.175   1.523 -1.0385  0.6928  0.2143
 2458TIP3    H231570   4.636   2.173   1.560 -0.2672  3.6720 -2.2631
 2459TIP3   OH231571   6.469   3.917   7.134 -0.3108 -1.2038 -0.5954
 2459TIP3    H131572   6.415   3.852   7.089 -0.4789 -1.2529 -0.3318
 2459TIP3    H231573   6.433   4.001   7.107  0.4300 -1.1949 -1.5740
 2460TIP3   OH231574   3.997   7.109   7.362  0.1683 -0.3708  0.0384
 2460TIP3    H131575   3.965   7.178   7.303 -0.1734 -0.1363  0.4880
 2460TIP3    H231576   3.972   7.139   7.450 -0.3495 -1.2641  0.2100
 2461TIP3   OH231577   7.043   6.562   2.614  0.3345 -0.1012 -0.2224
 2461TIP3    H131578   6.948   6.564   2.601  0.2344  1.4669  0.5494
 2461TIP3    H231579   7.061   6.476   2.653 -0.8138 -0.2490  0.0034
 2462TIP3   OH231580   5.172   5.176   8.722 -0.0811 -0.0757  0.2532
 2462TIP3    H131581   5.107   5.107   8.710 -1.5826  1.1387  0.9814
 2462TIP3    H231582   5.252   5.140   8.685 -0.7316 -2.2973  0.8426
 2463TIP3   OH231583   2.491   3.849   0.686  0.1114  0.1485 -0.1875
 2463TIP3    H131584   2.497   3.764   0.730 -0.9629 -0.9016 -1.9115
 2463TIP3    H231585   2.496   3.914   0.756 -0.7712 -1.4046  1.3800
 2464TIP3   OH231586   5.034   3.441   1.941 -0.0011  0.6013  0.3887
 2464TIP3    H131587   5.114   3.489   1.920 -1.4144  3.2230  0.6091
 2464TIP3    H231588   5.022   3.381   1.866  1.4116  1.1273 -0.2991
 2465TIP3   OH231589   4.555   5.509   8.647 -0.4427 -0.5049  0.5729
 2465TIP3    H131590   4.592   5.594   8.622  1.1151 -0.9121  1.4037
 2465TIP3    H231591   4.603   5.446   8.593 -1.4958 -0.8965  0.0634
 2466TIP3   OH231592   2.028   7.161   0.263 -0.1816 -0.0080 -0.3900
 2466TIP3    H131593   2.097   7.150   0.329  0.0061  1.2220 -0.3551
 2466TIP3    H231594   2.036   7.084   0.207  0.7339 -0.2551  0.0570
 2467TIP3   OH231595   2.534   2.860   9.924  0.7959 -0.6031 -0.0702
 2467TIP3    H131596   2.509   2.900  10.007 -0.0658  0.0520 -0.6249
 2467TIP3    H231597   2.500   2.920   9.858 -0.9098 -2.4389 -0.9430
 2468TIP3   OH231598   6.027   7.039   1.639  0.2884  0.0496  0.4737
 2468TIP3    H131599   6.008   7.127   1.670  0.1050 -0.0390  0.6205
 2468TIP3    H231600   6.018   6.984   1.718 -1.3744 -0.3583  0.0544
 2469TIP3   OH231601   5.645   4.842   9.109 -0.4178 -0.2101  0.0553
 2469TIP3    H131602   5.590   4.763   9.102 -0.0661 -0.5056  0.5536
 2469TIP3    H231603   5.734   4.809   9.101 -0.2960  0.2199 -0.3381
 2470TIP3   OH231604   6.173   2.601   8.660 -0.0436 -0.6549  0.3427
 2470TIP3    H131605   6.264   2.572   8.667  0.4445  0.4663 -0.8598
 2470TIP3    H231606   6.134   2.543   8.594  0.5819  0.5237 -1.1282
 2471TIP3   OH231607   2.401   6.170   0.822  0.0373  0.4779  0.1672
 2471TIP3    H131608   2.424   6.180   0.914 -0.7628  0.4771  0.3791
 2471TIP3    H231609   2.450   6.239   0.777  1.4037 -0.2993  0.4052
 2472TIP3   OH231610   6.669   2.226   0.183  0.1917 -1.0195 -0.1160
 2472TIP3    H131611   6.644   2.209   0.092 -2.5074  1.0346  0.1083
 2472TIP3    H231612   6.647   2.145   0.229  1.9011 -2.2075 -1.2602
 2473TIP3   OH231613   6.635   1.800   9.596 -0.4427 -0.2830 -0.5157
 2473TIP3    H131614   6.713   1.832   9.551  0.3286  1.0082  1.5945
 2473TIP3    H231615   6.574   1.778   9.526  1.7227 -1.1788 -2.2313
 2474TIP3   OH231616   3.656   1.677   9.161  0.5876 -0.0296  0.4486
 2474TIP3    H131617   3.601   1.706   9.233 -0.3856 -0.5934 -0.0505
 2474TIP3    H231618   3.695   1.595   9.192  0.6781  0.0598  0.5710
 2475TIP3   OH231619   3.619   5.456   0.310  0.2807  0.2320 -0.4990
 2475TIP3    H131620   3.631   5.462   0.404  2.1206 -0.5963 -0.6502
 2475TIP3    H231621   3.691   5.505   0.272  1.0006 -1.4609 -1.4681
 2476TIP3   OH231622   2.645   7.076   1.220 -0.7819  0.2783 -0.1335
 2476TIP3    H131623   2.703   7.128   1.276 -0.3565  0.4879 -0.7552
 2476TIP3    H231624   2.560   7.118   1.228 -0.2252  1.7946 -1.4790
 2477TIP3   OH231625   4.826   3.136   0.253 -0.0798  0.0294  0.5711
 2477TIP3    H131626   4.870   3.134   0.338  1.2690  0.6366 -0.0798
 2477TIP3    H231627   4.884   3.086   0.195 -0.7706 -0.0275 -0.0861
 2478TIP3   OH231628   4.958   6.662   7.278  0.0055  0.0916  0.0195
 2478TIP3    H131629   4.980   6.680   7.187 -0.9119  2.9053  0.2582
 2478TIP3    H231630   5.028   6.703   7.329 -1.5661  2.2495  0.5914
 2479TIP3   OH231631   6.230   2.120   8.854 -0.5081  0.6250  0.3556
 2479TIP3    H131632   6.244   2.129   8.760 -0.4005 -0.2608  0.2828
 2479TIP3    H231633   6.167   2.048   8.862  1.7073 -1.3258  1.0697
 2480TIP3   OH231634   6.779   6.071   0.072  0.0569  0.1131  0.1254
 2480TIP3    H131635   6.818   6.000   0.020  0.8270  0.0346  0.7877
 2480TIP3    H231636   6.710   6.028   0.123 -0.6888  0.1855 -0.7912
 2481TIP3   OH231637   6.877   0.645   8.908  0.0590  0.4648  0.0451
 2481TIP3    H131638   6.841   0.558   8.928  0.2988  0.7521  1.8995
 2481TIP3    H231639   6.943   0.660   8.975 -0.4857  2.3712  0.2315
 2482TIP3   OH231640   2.909   3.948   2.722  0.7277 -0.1037 -0.0342
 2482TIP3    H131641   2.849   3.879   2.747 -1.4672  1.7613  0.1482
 2482TIP3    H231642   2.953   3.915   2.643 -0.2139 -1.6940  0.0705
 2483TIP3   OH231643   0.102   0.185   0.985  0.7989 -0.2266  0.1612
 2483TIP3    H131644   0.114   0.093   0.959  0.0369 -0.2332 -0.2024
 2483TIP3    H231645   0.101   0.233   0.902 -2.2679 -0.3130  0.0348
 2484TIP3   OH231646   6.398   5.648   9.102 -0.2997 -0.3024  0.2937
 2484TIP3    H131647   6.309   5.621   9.078 -0.9553  1.1075  0.9940
 2484TIP3    H231648   6.448   5.567   9.106 -1.8597 -1.2758  1.0911
 2485TIP3   OH231649   1.996   1.758   0.829 -0.0993  1.1510  0.3026
 2485TIP3    H131650   1.961   1.689   0.885  2.6743  0.0661  0.8754
 2485TIP3    H231651   1.923   1.784   0.774 -1.9426 -0.3559  1.9130
 2486TIP3   OH231652   3.095   2.842   2.120  0.0962 -0.6364 -0.5214
 2486TIP3    H131653   3.070   2.812   2.208  2.2078  0.5604  0.5576
 2486TIP3    H231654   3.011   2.858   2.076 -1.0387 -0.1607  1.6640
 2487TIP3   OH231655   6.650   1.916   8.374  0.0354 -0.3170 -0.6151
 2487TIP3    H131656   6.589   1.876   8.312  2.7467 -3.0528 -1.7995
 2487TIP3    H231657   6.737   1.889   8.342  1.8870  2.8670  1.2501
 2488TIP3   OH231658   2.843   2.022   7.864  0.0498  0.5266 -0.0057
 2488TIP3    H131659   2.808   2.095   7.814 -1.2095 -0.0072  0.0641
 2488TIP3    H231660   2.782   1.950   7.848  1.3070 -0.5542 -0.1470
 2489TIP3   OH231661   5.437   2.589   9.005 -0.2470  0.2015  0.4849
 2489TIP3    H131662   5.451   2.635   8.922  0.8066  0.4500  0.7864
 2489TIP3    H231663   5.412   2.500   8.979  1.9786 -0.2973 -0.1351
 2490TIP3   OH231664   1.900   0.047   9.746 -0.2144 -0.2857 -0.9180
 2490TIP3    H131665   1.833  -0.021   9.733  0.0239 -0.3147 -2.2167
 2490TIP3    H231666   1.945   0.022   9.826 -0.1535 -1.6718 -1.3500
 2491TIP3   OH231667   3.551   1.657   8.307 -0.3601 -0.7347  0.0124
 2491TIP3    H131668   3.552   1.746   8.270  1.7071 -0.2772  1.0127
 2491TIP3    H231669   3.643   1.639   8.326 -0.9232 -2.5205  1.2255
 2492TIP3   OH231670   3.157   5.723   7.110  0.0262 -0.4196 -0.5127
 2492TIP3    H131671   3.220   5.670   7.061  1.3368 -1.6400  2.2801
 2492TIP3    H231672   3.191   5.813   7.104  2.1532 -1.0610  0.9677
 2493TIP3   OH231673   1.644   3.757   2.059  0.2724  0.2604  0.1899
 2493TIP3    H131674   1.605   3.725   2.140  0.7398 -0.7873  0.0141
 2493TIP3    H231675   1.706   3.824   2.087  0.2445  0.0822  0.6833
 2494TIP3   OH231676   3.352   0.735   2.044 -0.3569 -0.3432 -0.0675
 2494TIP3    H131677   3.359   0.762   2.135  1.6628 -1.0282  0.0262
 2494TIP3    H231678   3.291   0.661   2.045  0.1016 -0.7132  0.8225
 2495TIP3   OH231679   2.319   0.343   2.124  0.1740 -0.0681  0.1612
 2495TIP3    H131680   2.330   0.416   2.185  0.5560  0.2936 -0.3396
 2495TIP3    H231681   2.231   0.311   2.141 -0.6797  1.6394 -0.8453
 2496TIP3   OH231682   6.103   1.266   9.703 -0.3912  0.3048  0.3477
 2496TIP3    H131683   6.064   1.241   9.619 -3.0442  0.0495  1.5740
 2496TIP3    H231684   6.145   1.351   9.685 -1.3700  0.5270 -1.1105
 2497TIP3   OH231685   3.769   0.875   6.931 -0.2555 -0.1196  0.3208
 2497TIP3    H131686   3.775   0.948   6.993  1.6091  0.8007 -0.8681
 2497TIP3    H231687   3.810   0.908   6.851  1.7970 -2.8358  0.1055
 2498TIP3   OH231688   3.484   2.654   9.968 -0.3571 -0.6595  0.6778
 2498TIP3    H131689   3.579   2.652   9.963 -0.2684  1.7763 -0.1706
 2498TIP3    H231690   3.456   2.568   9.938  1.5125 -0.4666 -1.9720
 2499TIP3   OH231691   1.376   1.628   8.207  0.0246 -0.0583  0.1372
 2499TIP3    H131692   1.295   1.578   8.220 -0.0250  0.3754  1.7978
 2499TIP3    H231693   1.438   1.565   8.171 -1.0949 -0.3394 -1.4112
 2500TIP3   OH231694   2.862   3.128   0.617  0.2307 -0.6955  0.4483
 2500TIP3    H131695   2.788   3.101   0.672 -1.0779  1.7749  0.0246
 2500TIP3    H231696   2.844   3.090   0.532  0.4828 -1.6944  0.8273
 2501TIP3   OH231697   3.041   0.373   0.242  0.8266  0.0385  0.3023
 2501TIP3    H131698   3.027   0.462   0.209  0.5195 -0.8806 -2.2420
 2501TIP3    H231699   3.013   0.316   0.171  3.4370 -2.0815  0.7872
 2502TIP3   OH231700   3.466   4.611   8.133 -0.2345 -0.8987 -0.4181
 2502TIP3    H131701   3.405   4.565   8.076 -1.5959 -3.6749  2.8620
 2502TIP3    H231702   3.552   4.577   8.109 -0.7743 -2.0146 -0.8329
 2503TIP3   OH231703   0.456   2.441   0.918  0.1361  0.7185 -0.5423
 2503TIP3    H131704   0.362   2.425   0.913  0.3804 -0.3653 -2.1313
 2503TIP3    H231705   0.475   2.437   1.012 -1.3381  0.6047 -0.2176
 2504TIP3   OH231706   5.174   6.027   9.675 -0.0481  0.2088 -0.0049
 2504TIP3    H131707   5.245   5.972   9.707 -0.1001  0.6710  0.9290
 2504TIP3    H231708   5.157   5.994   9.586  1.9698  0.7094 -0.6331
 2505TIP3   OH231709   5.544   0.586   9.770 -0.0778 -0.0710 -0.7358
 2505TIP3    H131710   5.577   0.590   9.680 -0.2017  2.1292 -0.7365
 2505TIP3    H231711   5.495   0.504   9.774  0.2960 -0.4246 -2.5427
 2506TIP3   OH231712   3.906   2.943   9.965 -0.2337 -0.0465  0.2108
 2506TIP3    H131713   3.921   2.950  10.060  0.0010 -1.3976  0.2952
 2506TIP3    H231714   3.966   3.007   9.927  0.3884 -0.1686  0.9457
 2507TIP3   OH231715   3.027   4.529   2.964  0.2532  0.5593  0.4031
 2507TIP3    H131716   2.959   4.583   2.923 -1.0813 -1.5948 -0.4193
 2507TIP3    H231717   3.025   4.555   3.057 -1.0144  1.2451  0.2131
 2508TIP3   OH231718   5.178   2.157   0.309  0.1983 -0.4650  0.6666
 2508TIP3    H131719   5.152   2.178   0.219  0.1433 -2.0581  0.2844
 2508TIP3    H231720   5.256   2.210   0.324 -1.6057  2.3430  0.8807
 2509TIP3   OH231721   0.797   1.171   0.867 -0.0293  0.1372 -0.5413
 2509TIP3    H131722   0.744   1.094   0.845 -0.2983  0.1031  0.2237
 2509TIP3    H231723   0.740   1.225   0.921  0.1857  0.8512 -1.0141
 2510TIP3   OH231724   4.935   6.933   2.697  0.6649 -0.0917 -0.0964
 2510TIP3    H131725   4.933   6.976   2.783 -0.0716  0.5630 -0.4301
 2510TIP3    H231726   4.847   6.900   2.685  1.3133 -2.0806  0.3142
 2511TIP3   OH231727   6.377   5.623   9.660  0.6924 -0.2023 -0.5055
 2511TIP3    H131728   6.404   5.713   9.676 -2.8757  0.6855  1.6217
 2511TIP3    H231729   6.296   5.631   9.609  0.1176 -2.1514  0.0124
 2512TIP3   OH231730   0.204   6.823   0.753  0.1252  0.1480  0.1008
 2512TIP3    H131731   0.259   6.828   0.831 -0.2244 -0.1863  0.3672
 2512TIP3    H231732   0.117   6.799   0.785  0.6384 -3.2768 -0.6256
 2513TIP3   OH231733   1.222   4.671   1.959 -0.0361 -0.1846 -0.1420
 2513TIP3    H131734   1.250   4.598   1.904 -0.6138  0.0458 -0.7484
 2513TIP3    H231735   1.303   4.703   2.000  0.3279 -0.6629 -0.4865
 2514TIP3   OH231736   1.711   5.693   1.239 -0.6891 -0.1456  0.3429
 2514TIP3    H131737   1.797   5.734   1.227 -1.4412  1.6757  0.9112
 2514TIP3    H231738   1.678   5.680   1.151  0.6087 -1.9564  0.0529
 2515TIP3   OH231739   0.490   3.879   9.874  0.4255 -0.2581  0.3009
 2515TIP3    H131740   0.418   3.937   9.899  0.8047  0.0167  0.7791
 2515TIP3    H231741   0.499   3.892   9.780  0.3736  0.3167  0.3717
 2516TIP3   OH231742   5.975   6.291   9.772  0.6126  0.6327 -0.2320
 2516TIP3    H131743   5.997   6.319   9.683  1.4984  3.2006  0.7203
 2516TIP3    H231744   6.050   6.318   9.825  0.3211 -1.2748  1.2665
 2517TIP3   OH231745   1.991   6.401   9.036 -0.2624 -0.2106 -0.0027
 2517TIP3    H131746   2.008   6.363   9.123 -1.0206 -0.0954  0.2013
 2517TIP3    H231747   1.904   6.440   9.044 -0.1235  0.2376 -0.6725
 2518TIP3   OH231748   7.030   5.727   3.071 -0.0777  0.1182  0.1541
 2518TIP3    H131749   7.057   5.819   3.075 -1.2389  0.5254 -0.6809
 2518TIP3    H231750   6.934   5.730   3.081 -0.0542 -1.0754  0.9058
 2519TIP3   OH231751   6.618   0.182   1.084 -0.5146 -0.0381 -0.1394
 2519TIP3    H131752   6.534   0.166   1.040 -0.5604  0.1035 -0.1049
 2519TIP3    H231753   6.616   0.275   1.105 -0.5921 -0.1497  0.3669
 2520TIP3   OH231754   0.183   6.324   8.643 -0.3836 -0.0610  0.3442
 2520TIP3    H131755   0.126   6.251   8.667 -0.8914  0.2635  0.1300
 2520TIP3    H231756   0.253   6.283   8.591 -1.0116 -0.3032 -0.3180
 2521TIP3   OH231757   4.705   3.222   1.844 -0.1251  0.1828 -0.6465
 2521TIP3    H131758   4.743   3.310   1.851  2.5613 -0.8546 -0.7673
 2521TIP3    H231759   4.752   3.170   1.909 -2.9647 -0.8477  0.7443
 2522TIP3   OH231760   4.408   4.329   1.805  0.1626 -0.2626 -0.7398
 2522TIP3    H131761   4.438   4.332   1.714 -0.5735 -2.4626 -1.1172
 2522TIP3    H231762   4.420   4.237   1.831 -1.1778 -0.0317  0.8373
 2523TIP3   OH231763   3.626   0.517   1.486 -0.1566 -0.1717  0.5830
 2523TIP3    H131764   3.707   0.566   1.485  0.0234 -0.3773 -1.8256
 2523TIP3    H231765   3.644   0.439   1.433 -1.3823 -1.1788  1.5704
 2524TIP3   OH231766   6.814   0.310   7.893  0.3044  0.1537  0.2713
 2524TIP3    H131767   6.863   0.228   7.905  0.2803 -0.2665 -2.0760
 2524TIP3    H231768   6.841   0.365   7.966  2.8743 -0.7348  0.0780
 2525TIP3   OH231769   5.995   4.317   9.838  0.3845 -0.2434  0.0356
 2525TIP3    H131770   6.043   4.345   9.915  0.8332  1.1248 -0.7117
 2525TIP3    H231771   5.903   4.335   9.859  0.2525 -1.9568  1.0860
 2526TIP3   OH231772   5.446   3.036   2.040 -0.0226 -0.1202  0.2059
 2526TIP3    H131773   5.522   3.093   2.053  0.2304  0.2772 -2.4744
 2526TIP3    H231774   5.371   3.095   2.049  0.0910 -0.0154  0.4827
 2527TIP3   OH231775   3.902   3.779   1.854  0.4987 -0.0170  0.0177
 2527TIP3    H131776   3.844   3.852   1.831 -0.2193 -0.2269  1.1014
 2527TIP3    H231777   3.907   3.727   1.774 -0.3982  0.2822 -0.2506
 2528TIP3   OH231778   0.918   2.027   2.001 -0.6076 -0.3120  0.7987
 2528TIP3    H131779   0.925   2.095   1.934 -3.2660 -0.5407  0.1658
 2528TIP3    H231780   0.965   2.062   2.077  1.2892  0.5521 -0.6793
 2529TIP3   OH231781   4.913   1.446   1.131 -0.1461  0.2935 -0.0952
 2529TIP3    H131782   4.923   1.528   1.082  0.7547 -0.1522 -0.6850
 2529TIP3    H231783   4.944   1.379   1.071 -0.9854 -0.5040  0.3492
 2530TIP3   OH231784   7.244   1.737   0.749 -0.5611 -0.0157  0.0230
 2530TIP3    H131785   7.286   1.788   0.679 -0.3055  1.2089  1.0341
 2530TIP3    H231786   7.306   1.667   0.767  1.2748  1.8821  1.6339
 2531TIP3   OH231787   6.644   4.985   9.516 -0.0017 -0.2044 -0.1781
 2531TIP3    H131788   6.676   4.937   9.440  1.5823  0.5052  0.0045
 2531TIP3    H231789   6.722   5.001   9.569 -0.9508  0.0234  1.2097
 2532TIP3   OH231790   0.451   4.522   1.146 -0.0675  0.7724  0.6844
 2532TIP3    H131791   0.437   4.594   1.086 -0.0647  0.0783 -0.1661
 2532TIP3    H231792   0.505   4.460   1.098 -0.5484 -0.0625  1.1851
 2533TIP3   OH231793   6.178   1.950   7.847 -0.5141 -0.4404  0.3600
 2533TIP3    H131794   6.101   1.895   7.860 -2.2742  1.6004 -0.7113
 2533TIP3    H231795   6.218   1.915   7.767  0.8687 -2.7016  1.9367
 2534TIP3   OH231796   1.078   7.118   8.177 -0.5709  1.1474  0.3839
 2534TIP3    H131797   1.164   7.157   8.167  0.0174 -0.3914 -1.2078
 2534TIP3    H231798   1.036   7.131   8.092  0.6832 -3.7449 -1.3507
 2535TIP3   OH231799   3.303   7.092   7.408 -0.2046  0.0783  0.4743
 2535TIP3    H131800   3.250   7.014   7.394  0.4363 -0.3629  0.5017
 2535TIP3    H231801   3.357   7.071   7.484  1.5206 -0.2813 -0.8041
 2536TIP3   OH231802   3.913   0.403   8.035 -0.6404  0.5556 -0.5246
 2536TIP3    H131803   3.970   0.476   8.063  1.0371 -1.2124  0.9819
 2536TIP3    H231804   3.901   0.352   8.115 -1.7721 -0.8266 -1.5538
 2537TIP3   OH231805   4.545   5.681   8.356  0.0738 -0.2811 -0.1815
 2537TIP3    H131806   4.591   5.740   8.417  0.1841 -1.2199  0.6665
 2537TIP3    H231807   4.453   5.686   8.383  0.3461 -1.9678  1.1832
 2538TIP3   OH231808   2.794   0.006   9.778  0.0378 -0.2002  0.7741
 2538TIP3    H131809   2.827   0.064   9.710 -0.6707 -1.8110 -1.0434
 2538TIP3    H231810   2.858   0.012   9.848  0.8028  1.5123 -0.0067
 2539TIP3   OH231811   5.842   3.000   1.064  0.0539  0.6019 -0.1300
 2539TIP3    H131812   5.826   3.038   0.978 -0.2240  1.3017  0.2264
 2539TIP3    H231813   5.843   2.906   1.048  0.7078  0.7419 -1.0179
 2540TIP3   OH231814   0.680   0.132   6.766 -0.0120 -0.1488 -0.1961
 2540TIP3    H131815   0.678   0.183   6.846  1.3307 -0.3556 -0.0034
 2540TIP3    H231816   0.607   0.166   6.714 -0.1391  0.8339  0.5885
 2541TIP3   OH231817   5.127   6.679   9.220  0.2913  0.0236  0.3328
 2541TIP3    H131818   5.147   6.699   9.312  0.7871 -0.4973  0.3467
 2541TIP3    H231819   5.048   6.626   9.224  0.2032  0.1588  0.4413
 2542TIP3   OH231820   1.164   6.899   8.352  0.7074  0.1824  0.2920
 2542TIP3    H131821   1.124   6.978   8.318  1.1625  0.3444  0.1238
 2542TIP3    H231822   1.256   6.922   8.364  1.3386 -0.9473 -1.8439
 2543TIP3   OH231823   5.724   2.356   0.554  0.2572  0.5137  0.0415
 2543TIP3    H131824   5.690   2.267   0.569 -0.3859  0.5503 -1.0627
 2543TIP3    H231825   5.648   2.413   0.567  0.0445  0.6701 -1.6473
 2544TIP3   OH231826   2.643   1.805   8.805 -0.1552 -0.1916  0.1811
 2544TIP3    H131827   2.579   1.735   8.818  1.9792 -2.0762  1.3324
 2544TIP3    H231828   2.713   1.765   8.753  0.0758  1.8438 -1.1922
 2545TIP3   OH231829   4.521   1.539   6.898  0.1926  0.2417 -0.6677
 2545TIP3    H131830   4.548   1.596   6.970  0.1454 -1.0146  0.3712
 2545TIP3    H231831   4.594   1.544   6.836  1.0889 -0.1082  0.3271
 2546TIP3   OH231832   2.427   0.089   6.690 -0.0582  0.6788  0.2204
 2546TIP3    H131833   2.342   0.051   6.668  0.1880 -0.1365  0.6026
 2546TIP3    H231834   2.485   0.013   6.700  0.8162  1.2427 -0.4394
 2547TIP3   OH231835   2.625   0.714   1.841 -0.4027 -0.8196 -0.0962
 2547TIP3    H131836   2.678   0.760   1.906  1.6614 -3.7730  0.5478
 2547TIP3    H231837   2.576   0.649   1.892 -3.2017  0.4646 -0.9429
 2548TIP3   OH231838   0.582   0.064   7.336  0.0375  0.0233  0.0874
 2548TIP3    H131839   0.531   0.037   7.260  0.5211 -0.1457 -0.1837
 2548TIP3    H231840   0.532   0.032   7.411 -0.3377  0.0095 -0.1653
 2549TIP3   OH231841   4.250   2.974   1.694  0.1567 -0.1013 -0.5490
 2549TIP3    H131842   4.215   2.995   1.781  0.3213 -0.2248 -0.4524
 2549TIP3    H231843   4.337   3.013   1.694  0.9765 -1.8390  0.0918
 2550TIP3   OH231844   1.410   4.401   8.886  0.2343 -0.0576  0.2357
 2550TIP3    H131845   1.366   4.329   8.842  1.2510 -0.2681 -0.4866
 2550TIP3    H231846   1.474   4.433   8.822  1.6045 -0.2183  1.4604
 2551TIP3   OH231847   0.646   0.921   7.448 -0.0446 -0.4476 -0.2663
 2551TIP3    H131848   0.618   0.946   7.360  1.8358  2.8908 -0.0674
 2551TIP3    H231849   0.586   0.966   7.507  1.7656  1.6614  0.0954
 2552TIP3   OH231850   4.988   6.547   2.527  0.2282  0.1079 -0.5989
 2552TIP3    H131851   5.014   6.590   2.445  0.3894  0.2268 -0.4844
 2552TIP3    H231852   5.022   6.603   2.596  2.3079 -1.2539 -0.4114
 2553TIP3   OH231853   2.380   0.832   0.525 -0.8321 -0.5525 -0.8507
 2553TIP3    H131854   2.374   0.923   0.552 -1.1510 -0.8639  0.1763
 2553TIP3    H231855   2.400   0.836   0.432  0.6466  0.5751 -0.5211
 2554TIP3   OH231856   0.854   3.631   2.535 -0.2267 -0.5396  0.3873
 2554TIP3    H131857   0.768   3.637   2.577 -0.2438  1.9423  0.1441
 2554TIP3    H231858   0.844   3.561   2.471 -1.2512 -2.0452  2.0799
 2555TIP3   OH231859   6.812   1.866   0.267  0.5777  0.3201 -0.0314
 2555TIP3    H131860   6.792   1.782   0.308  2.0232  0.4496  1.0003
 2555TIP3    H231861   6.821   1.845   0.174  1.6561 -0.8210  0.3050
 2556TIP3   OH231862   2.202   7.123   2.323  0.3469  0.6585 -0.4166
 2556TIP3    H131863   2.161   7.201   2.360  0.1399  0.0592  0.6576
 2556TIP3    H231864   2.139   7.091   2.259  0.2184  1.1008 -0.5147
 2557TIP3   OH231865   3.079   5.122   0.507 -0.6598 -0.5714 -0.2366
 2557TIP3    H131866   3.101   5.139   0.415 -0.2036 -0.7813 -0.1639
 2557TIP3    H231867   3.077   5.027   0.515 -0.7343 -0.5544 -0.0356
 2558TIP3   OH231868   2.948   5.960   9.492 -0.2440 -0.9034  0.2198
 2558TIP3    H131869   2.968   5.909   9.571  1.7277  0.8817  0.9686
 2558TIP3    H231870   2.929   6.048   9.523 -0.4474 -0.3929 -1.2373
 2559TIP3   OH231871   6.524   1.199   0.148  0.0682  0.1075 -0.1230
 2559TIP3    H131872   6.572   1.203   0.230  0.6348 -0.4992 -0.4131
 2559TIP3    H231873   6.459   1.130   0.162  0.3391 -0.1777 -0.2746
 2560TIP3   OH231874   2.688   6.075   8.353  0.3991 -0.2353 -0.0599
 2560TIP3    H131875   2.595   6.063   8.335 -0.4495  3.0087  1.5042
 2560TIP3    H231876   2.721   6.124   8.277 -0.2100  2.1838  1.1455
 2561TIP3   OH231877   3.553   0.055   6.622 -0.1973  0.5136  0.1868
 2561TIP3    H131878   3.461   0.064   6.645 -1.2228 -2.0476 -2.3899
 2561TIP3    H231879   3.567   0.119   6.552  0.1808  1.1962  0.8553
 2562TIP3   OH231880   2.543   4.503   9.036  0.0103 -0.6440  0.1666
 2562TIP3    H131881   2.554   4.548   8.952 -0.0106 -0.8408  0.0578
 2562TIP3    H231882   2.618   4.530   9.088 -0.1802 -0.2155  0.2211
 2563TIP3   OH231883   2.614   2.836   0.578  0.2581 -0.2657  0.6989
 2563TIP3    H131884   2.552   2.772   0.612 -0.3173 -2.4843 -3.8807
 2563TIP3    H231885   2.693   2.786   0.560  1.4729  1.3689  1.2358
 2564TIP3   OH231886   2.223   0.643   8.707 -0.6737  0.1295  0.1407
 2564TIP3    H131887   2.135   0.666   8.677 -1.2112 -1.7161  0.1980
 2564TIP3    H231888   2.229   0.680   8.795 -0.6536  1.8999 -0.5521
 2565TIP3   OH231889   7.272   1.133   0.848  0.0251  0.0475 -0.4979
 2565TIP3    H131890   7.260   1.225   0.873  1.7733  0.6885 -1.8165
 2565TIP3    H231891   7.308   1.092   0.927  1.2258  1.0042 -0.5080
 2566TIP3   OH231892   0.015   0.610   8.451  0.3587  0.1633 -0.6050
 2566TIP3    H131893   0.098   0.628   8.497  0.4466 -1.4416 -0.0487
 2566TIP3    H231894  -0.022   0.696   8.433  1.4216  0.8922  0.5053
 2567TIP3   OH231895   6.249   1.354   8.281  0.7120  0.5210  0.1452
 2567TIP3    H131896   6.201   1.425   8.325  1.7935  1.9206 -0.8424
 2567TIP3    H231897   6.182   1.289   8.260 -0.4296  1.5488  0.4953
 2568TIP3   OH231898   6.307   5.207   7.901  0.3257 -1.0309  0.1310
 2568TIP3    H131899   6.239   5.273   7.914  0.2692 -0.8139 -1.1530
 2568TIP3    H231900   6.271   5.127   7.939 -1.5227 -1.4301 -2.2677
 2569TIP3   OH231901   4.276   1.263   9.583  0.7272  0.4003 -0.2870
 2569TIP3    H131902   4.239   1.249   9.496  0.7151 -1.1140 -0.0610
 2569TIP3    H231903   4.202   1.254   9.643  0.9542  0.1778 -0.0351
 2570TIP3   OH231904   5.106   2.937   1.453  0.4074  0.3484  0.2154
 2570TIP3    H131905   5.092   2.991   1.530 -0.1497 -0.0958  0.4277
 2570TIP3    H231906   5.192   2.964   1.420  0.2170  1.2247  0.4228
 2571TIP3   OH231907   2.945   5.841   3.298  0.6430  0.3606 -0.2299
 2571TIP3    H131908   3.007   5.835   3.370  0.8770 -0.8666 -0.5066
 2571TIP3    H231909   2.947   5.933   3.271  0.7704  0.7633  1.1237
 2572TIP3   OH231910   0.684   1.426   9.233  0.7550 -0.2175 -0.0212
 2572TIP3    H131911   0.748   1.495   9.251  1.2801 -0.8370  0.5348
 2572TIP3    H231912   0.623   1.429   9.306  0.5949 -0.1445 -0.1561
 2573TIP3   OH231913   1.161   1.336   0.180 -0.6570  0.2327 -0.2993
 2573TIP3    H131914   1.099   1.304   0.114  0.0312 -1.1360 -0.3056
 2573TIP3    H231915   1.132   1.296   0.262 -1.0248  1.2859  0.1085
 2574TIP3   OH231916   0.295   5.729   0.477  0.0383  0.0888  0.1090
 2574TIP3    H131917   0.215   5.765   0.440  0.3144  0.2309 -0.3585
 2574TIP3    H231918   0.361   5.742   0.409  0.4041 -0.2455  0.3943
 2575TIP3   OH231919   4.933   4.801   9.355 -0.4283  0.0907  0.0770
 2575TIP3    H131920   4.913   4.786   9.448 -2.5630  0.9358 -0.1816
 2575TIP3    H231921   5.016   4.848   9.356  0.1872 -0.9459  1.4877
 2576TIP3   OH231922   0.833   2.084   2.857  0.0437  0.3688 -0.2063
 2576TIP3    H131923   0.761   2.059   2.798  0.1810 -1.0051  0.1645
 2576TIP3    H231924   0.801   2.162   2.903 -0.8762  0.2608 -0.6471
 2577TIP3   OH231925   2.248   3.370   8.908  0.1259  0.4943  0.9882
 2577TIP3    H131926   2.332   3.413   8.895 -0.3850  1.4670  0.7510
 2577TIP3    H231927   2.257   3.323   8.991 -0.0852  3.1911  2.6703
 2578TIP3   OH231928   5.191   6.290   9.837 -0.0313  0.0267 -0.4663
 2578TIP3    H131929   5.238   6.332   9.765 -2.0033  1.6939 -0.8816
 2578TIP3    H231930   5.165   6.362   9.894 -0.4054 -1.0443  0.7781
 2579TIP3   OH231931   6.216   6.823   7.320 -0.3457  0.1509  0.3989
 2579TIP3    H131932   6.190   6.731   7.316 -0.5966  0.2115  0.5925
 2579TIP3    H231933   6.312   6.820   7.325 -0.3164 -0.0785 -0.2049
 2580TIP3   OH231934   2.706   2.335   2.397 -0.6691 -0.2503 -0.1665
 2580TIP3    H131935   2.648   2.380   2.458  0.4622  0.3804  0.4890
 2580TIP3    H231936   2.783   2.393   2.391 -0.0439 -1.1333 -0.8684
 2581TIP3   OH231937   3.818   0.603   2.008 -0.3629  0.2658  0.2904
 2581TIP3    H131938   3.864   0.612   1.925 -1.1847 -0.1479 -0.2246
 2581TIP3    H231939   3.844   0.517   2.041  0.7756  0.8515  0.9932
 2582TIP3   OH231940   6.800   2.693   0.304 -0.4046 -0.5306  0.2878
 2582TIP3    H131941   6.829   2.603   0.322  0.2927  0.0737  2.4855
 2582TIP3    H231942   6.716   2.700   0.349 -1.7643 -0.8285 -2.0883
 2583TIP3   OH231943   0.635   5.049   1.311 -0.3370 -0.2121 -0.3981
 2583TIP3    H131944   0.614   5.135   1.274 -0.6404 -0.0671  0.1020
 2583TIP3    H231945   0.604   4.986   1.246  1.1949  0.0624 -1.4542
 2584TIP3   OH231946   6.990   3.343   0.080 -0.2357 -0.2938  1.0024
 2584TIP3    H131947   7.024   3.264   0.122 -1.5868 -1.1061  0.6193
 2584TIP3    H231948   6.933   3.312   0.011 -0.5314  1.0273  0.6112
 2585TIP3   OH231949   5.200   0.174   8.148  0.1817  0.2869  0.0474
 2585TIP3    H131950   5.251   0.216   8.217  0.0566  1.5394 -0.5928
 2585TIP3    H231951   5.214   0.229   8.071  0.0310 -0.8820 -0.8417
 2586TIP3   OH231952   1.506   3.081   0.503 -0.4778 -0.5541  0.4658
 2586TIP3    H131953   1.459   3.009   0.461  0.0906 -1.0810  0.7286
 2586TIP3    H231954   1.585   3.041   0.539 -0.6387  0.0039  1.4840
 2587TIP3   OH231955   2.682   7.218   8.410  0.0755  0.0620 -0.3458
 2587TIP3    H131956   2.763   7.237   8.458 -0.7164  1.6357  0.4322
 2587TIP3    H231957   2.700   7.248   8.321  0.0333  1.3314  0.0560
 2588TIP3   OH231958   4.841   0.076   7.112 -0.6664  0.3996  0.3735
 2588TIP3    H131959   4.933   0.050   7.115 -0.8772 -0.4429 -0.0928
 2588TIP3    H231960   4.831   0.135   7.186 -0.0565 -0.5445  1.2468
 2589TIP3   OH231961   6.161   3.741   8.113  0.7189  0.1259  0.1112
 2589TIP3    H131962   6.162   3.657   8.158  1.4412 -0.0893 -0.2939
 2589TIP3    H231963   6.253   3.759   8.094  0.7767  1.8491  1.7514
 2590TIP3   OH231964   1.413   5.281   8.610 -0.1255 -0.4188  0.3640
 2590TIP3    H131965   1.373   5.366   8.594  0.9375 -0.2716 -1.8753
 2590TIP3    H231966   1.494   5.301   8.656  1.2187  0.0843 -2.0451
 2591TIP3   OH231967   1.063   3.503   7.048 -0.0440 -0.2760 -0.1208
 2591TIP3    H131968   1.057   3.575   6.986 -1.9413  1.1271  1.5786
 2591TIP3    H231969   0.975   3.467   7.052  0.5434 -1.7546  0.1714
 2592TIP3   OH231970   2.594   1.774   1.343 -0.0037  0.5769 -0.8361
 2592TIP3    H131971   2.676   1.788   1.390  0.2716 -1.0363 -0.7870
 2592TIP3    H231972   2.620   1.739   1.258 -0.6239 -0.5132 -0.6086
 2593TIP3   OH231973   4.317   2.715   1.436  0.0726  0.1155  0.2987
 2593TIP3    H131974   4.352   2.796   1.399  0.1857  0.3921  0.9978
 2593TIP3    H231975   4.395   2.670   1.471  0.0584 -0.4583 -0.3826
 2594TIP3   OH231976   3.174   5.869   2.285  0.2448  0.1990  0.1711
 2594TIP3    H131977   3.107   5.802   2.282  1.7436 -1.3945  0.8735
 2594TIP3    H231978   3.128   5.948   2.313 -1.3371 -0.8232  0.5578
 2595TIP3   OH231979   4.963   3.764   9.078 -0.0490  0.1455  0.1994
 2595TIP3    H131980   5.026   3.710   9.031 -0.4896 -1.6366  1.5422
 2595TIP3    H231981   4.888   3.773   9.018  0.6848  0.6838 -0.6604
 2596TIP3   OH231982   5.150   0.378   9.829  0.4288 -0.2869  0.5909
 2596TIP3    H131983   5.149   0.306   9.766 -1.1875 -0.0462  0.3168
 2596TIP3    H231984   5.232   0.365   9.877  1.1723 -1.0955 -0.8170
 2597TIP3   OH231985   2.946   0.872   2.086  0.6837 -0.4566  0.2862
 2597TIP3    H131986   2.959   0.958   2.125 -1.0869  0.4489 -1.0420
 2597TIP3    H231987   2.931   0.814   2.162  0.0313  0.7487  1.1121
 2598TIP3   OH231988   6.826   3.766   7.554 -0.0247  0.2330  0.3378
 2598TIP3    H131989   6.921   3.757   7.558  0.1041  1.5992  0.6891
 2598TIP3    H231990   6.810   3.829   7.484 -0.7577 -0.7824 -0.4610
 2599TIP3   OH231991   1.394   2.313   6.510  0.0092  0.7321 -0.7006
 2599TIP3    H131992   1.380   2.403   6.538 -0.4430  0.3996  0.1762
 2599TIP3    H231993   1.478   2.288   6.550  0.2610  0.8416 -1.1534
 2600TIP3   OH231994   1.239   2.767   9.888 -0.0279 -0.5515 -0.4369
 2600TIP3    H131995   1.286   2.808   9.816 -0.1172  0.8573  0.2603
 2600TIP3    H231996   1.147   2.769   9.861  0.0708 -1.3081 -0.8626
 2601TIP3   OH231997   2.783   2.155   1.046  0.1854 -0.4962  0.3573
 2601TIP3    H131998   2.789   2.192   1.134  0.6340 -1.1302  0.6053
 2601TIP3    H231999   2.745   2.068   1.060 -0.8254 -0.1575 -0.2073
 2602TIP3   OH232000   4.303   5.419   0.610  0.6100  0.4246  0.4555
 2602TIP3    H132001   4.217   5.442   0.573  1.4143  0.1590 -1.7064
 2602TIP3    H232002   4.299   5.324   0.621  0.2930  0.5266  1.3624
 2603TIP3   OH232003   2.578   6.240   2.176  0.2472  0.3263  0.1079
 2603TIP3    H132004   2.661   6.282   2.199  0.6354  0.3450 -1.2372
 2603TIP3    H232005   2.522   6.312   2.148  0.3342  0.1433 -0.5496
 2604TIP3   OH232006   4.061   0.623   8.117 -0.3364 -0.3023 -0.2812
 2604TIP3    H132007   4.110   0.625   8.035  0.1611 -1.4382 -0.0292
 2604TIP3    H232008   4.124   0.593   8.182 -0.9162 -0.1014  0.3855
 2605TIP3   OH232009   1.182   6.574   9.144  0.7827  0.3161 -0.1631
 2605TIP3    H132010   1.206   6.650   9.197  1.2229 -1.2629  2.0436
 2605TIP3    H232011   1.265   6.541   9.109  0.5686  0.9240 -1.3070
 2606TIP3   OH232012   6.879   0.355   7.598  0.4003  0.2126  0.2626
 2606TIP3    H132013   6.882   0.393   7.686  1.7810  0.7128  0.0354
 2606TIP3    H232014   6.900   0.263   7.611 -0.8804 -0.0449  0.6000
 2607TIP3   OH232015   5.553   5.930   9.761 -0.4444 -0.8186  0.3640
 2607TIP3    H132016   5.629   5.936   9.819  0.8722 -0.8501 -1.2790
 2607TIP3    H232017   5.520   6.020   9.756  0.0437 -0.6373  0.3793
 2608TIP3   OH232018   7.007   2.849   0.216 -0.0236  0.4247  0.0868
 2608TIP3    H132019   7.065   2.773   0.226 -1.3108 -1.0578 -2.4401
 2608TIP3    H232020   6.921   2.817   0.243 -0.7656  0.6022 -1.8751
 2609TIP3   OH232021   0.125   1.418   0.514 -0.5632 -0.1812  0.1664
 2609TIP3    H132022   0.130   1.440   0.607  1.8785  1.8313 -0.3437
 2609TIP3    H232023   0.096   1.499   0.471  2.0055  0.1434 -1.1295
 2610TIP3   OH232024   3.633   2.400   1.355  0.2940  0.1355 -0.1669
 2610TIP3    H132025   3.698   2.455   1.400 -0.2606  0.5867  0.1073
 2610TIP3    H232026   3.684   2.349   1.293  0.8751  0.7195 -0.1910
 2611TIP3   OH232027   0.888   3.608   7.617 -0.3692  0.7035  0.0641
 2611TIP3    H132028   0.907   3.514   7.615 -0.6717  0.6488 -1.0341
 2611TIP3    H232029   0.949   3.644   7.682  0.8253 -0.0346 -0.6144
 2612TIP3   OH232030   3.870   2.299   8.197  0.2052 -0.7375 -0.3762
 2612TIP3    H132031   3.799   2.244   8.229 -1.1674  1.3161  0.3090
 2612TIP3    H232032   3.851   2.313   8.104 -1.1041  0.8373  0.0705
 2613TIP3   OH232033   5.876   3.781   1.707 -0.2000  0.8421 -1.1396
 2613TIP3    H132034   5.921   3.818   1.631  1.9776  1.5723  0.4080
 2613TIP3    H232035   5.919   3.697   1.722 -1.3530  0.1936 -1.3052
 2614TIP3   OH232036   1.526   5.076   9.790 -0.9930 -0.5569 -0.0471
 2614TIP3    H132037   1.574   5.003   9.830  0.2269  0.6740  0.8578
 2614TIP3    H232038   1.594   5.125   9.743 -1.2835  1.3241  1.3873
 2615TIP3   OH232039   0.566   2.657   0.791  0.0940 -0.2064  0.5710
 2615TIP3    H132040   0.549   2.571   0.830  2.2310 -1.0971 -0.3179
 2615TIP3    H232041   0.507   2.716   0.838 -1.0667 -2.0495  1.5653
 2616TIP3   OH232042   0.485   3.129   0.622  0.3744  0.0144  0.3279
 2616TIP3    H132043   0.438   3.053   0.589 -0.9098  0.4093  1.1605
 2616TIP3    H232044   0.425   3.202   0.608 -0.1407  0.2498  3.1700
 2617TIP3   OH232045   5.304   5.320   0.600  0.0378  0.7034 -0.1116
 2617TIP3    H132046   5.270   5.252   0.657 -0.4727  0.7014 -0.4127
 2617TIP3    H232047   5.346   5.272   0.528 -0.7326  0.7013 -0.5657
 2618TIP3   OH232048   5.575   3.280   2.758  0.3477 -0.8233  0.2115
 2618TIP3    H132049   5.585   3.364   2.713 -1.4113  0.6855  2.4064
 2618TIP3    H232050   5.656   3.269   2.807  0.3028 -0.0048  0.4874
 2619TIP3   OH232051   4.754   2.790   1.743 -0.0767 -0.5570  0.3896
 2619TIP3    H132052   4.705   2.733   1.802 -1.0027  1.4179  1.6759
 2619TIP3    H232053   4.826   2.824   1.798 -0.2225  0.3723  0.0168
 2620TIP3   OH232054   0.558   7.049   7.040 -0.5642  0.3012 -0.1441
 2620TIP3    H132055   0.543   7.048   6.945 -0.9815  2.2149 -0.1373
 2620TIP3    H232056   0.517   6.968   7.071 -2.9490  0.9817 -1.2758
 2621TIP3   OH232057   0.205   5.133   8.430 -0.3865  0.8544 -0.3578
 2621TIP3    H132058   0.279   5.093   8.476 -0.1351  2.6440  0.8711
 2621TIP3    H232059   0.245   5.178   8.355 -0.4160  0.5593 -0.5512
 2622TIP3   OH232060   4.842   2.585   8.243 -0.4919  0.2189  0.4517
 2622TIP3    H132061   4.770   2.530   8.211  0.4382 -0.3921 -0.6718
 2622TIP3    H232062   4.884   2.619   8.164  0.6296  0.3219  1.0655
 2623TIP3   OH232063   5.673   4.477   7.312 -0.4167 -0.1813  0.7792
 2623TIP3    H132064   5.683   4.567   7.280  1.3300 -0.5361  0.1856
 2623TIP3    H232065   5.582   4.454   7.292 -1.0158  1.5692  1.2949
 2624TIP3   OH232066   3.113   0.959   0.439  0.4279 -0.1614 -0.3029
 2624TIP3    H132067   3.048   0.908   0.487  1.1974 -0.0305  0.9235
 2624TIP3    H232068   3.148   0.899   0.374  0.8096 -0.9981  0.6509
 2625TIP3   OH232069   7.003   7.238   1.739 -0.1990  0.2587 -0.0705
 2625TIP3    H132070   6.950   7.158   1.744 -0.2053  0.3016  0.8910
 2625TIP3    H232071   6.947   7.301   1.694 -0.6035  0.0225  0.0981
 2626TIP3   OH232072   4.835   2.554   0.461 -0.5511 -0.0800 -0.0186
 2626TIP3    H132073   4.816   2.533   0.369 -0.4265 -1.6593  0.2901
 2626TIP3    H232074   4.826   2.471   0.507  1.8612  0.1183  0.9892
 2627TIP3   OH232075   5.962   2.754   9.431  0.3092 -1.1016 -0.3242
 2627TIP3    H132076   5.924   2.769   9.345 -0.8422 -0.5882  0.2600
 2627TIP3    H232077   6.054   2.735   9.413  0.8534  2.0016 -1.4872
 2628TIP3   OH232078   6.509   3.331   2.199  0.0096 -0.1495  0.2107
 2628TIP3    H132079   6.577   3.393   2.226 -0.3140  0.0571  0.5621
 2628TIP3    H232080   6.492   3.279   2.277 -0.8589  0.3821  0.3928
 2629TIP3   OH232081   6.867   5.270   8.608  0.6258 -0.0361  0.0216
 2629TIP3    H132082   6.933   5.337   8.587  1.2060 -0.4332  0.5623
 2629TIP3    H232083   6.794   5.290   8.549  0.6750  1.2491  0.3475
 2630TIP3   OH232084   1.857   0.083   0.815 -0.2322 -0.1656 -0.1678
 2630TIP3    H132085   1.903   0.109   0.736 -0.3668 -0.3803 -0.3195
 2630TIP3    H232086   1.871   0.155   0.877 -0.6099  0.2690 -0.5819
 2631TIP3   OH232087   2.606   3.300   1.387 -0.0560  0.3622  0.2206
 2631TIP3    H132088   2.658   3.277   1.310  0.5566  0.8936  0.4660
 2631TIP3    H232089   2.649   3.378   1.423 -1.0212  0.8074  0.4407
 2632TIP3   OH232090   6.601   1.648   9.074  0.0013  0.0940  0.1461
 2632TIP3    H132091   6.530   1.711   9.067  0.1340  0.1072 -1.3719
 2632TIP3    H232092   6.593   1.594   8.996  2.8185  1.3608 -1.1671
 2633TIP3   OH232093   1.264   1.666   6.749  0.4069 -0.0578  0.0746
 2633TIP3    H132094   1.274   1.571   6.760  0.2788  0.0421  1.1092
 2633TIP3    H232095   1.352   1.696   6.723  1.4327 -0.0214  3.1738
 2634TIP3   OH232096   7.074   5.388   9.668  0.0341  0.6364  0.0040
 2634TIP3    H132097   7.161   5.350   9.655  1.3114  3.4469 -0.5473
 2634TIP3    H232098   7.027   5.369   9.587  0.0562 -0.9552  0.3282
 2635TIP3   OH232099   4.730   2.392   1.029 -0.1908 -0.0332  0.4002
 2635TIP3    H132100   4.769   2.399   1.116  1.0258 -0.6093 -0.0712
 2635TIP3    H232101   4.713   2.483   1.003 -0.1162  0.1682  1.0423
 2636TIP3   OH232102   2.864   2.062   9.610  0.2896 -0.9646  0.0725
 2636TIP3    H132103   2.796   2.018   9.559  0.8721 -0.3772 -1.2619
 2636TIP3    H232104   2.853   2.029   9.699 -2.7007  0.2483  0.2494
 2637TIP3   OH232105   4.932   6.238   7.845  0.0960  0.3787 -0.2666
 2637TIP3    H132106   5.009   6.233   7.903 -0.5684  0.5763  0.6534
 2637TIP3    H232107   4.968   6.260   7.760  0.9998  1.3715  0.3399
 2638TIP3   OH232108   0.812   0.312   8.160  0.1710  0.6238 -0.9431
 2638TIP3    H132109   0.751   0.321   8.087 -0.7713 -1.8618 -0.5532
 2638TIP3    H232110   0.813   0.399   8.202 -0.4068  1.6681 -2.9892
 2639TIP3   OH232111   5.489   0.169   8.273 -0.2532 -0.4459  0.1847
 2639TIP3    H132112   5.434   0.096   8.244 -0.3303 -0.7189  0.9821
 2639TIP3    H232113   5.427   0.232   8.311 -0.3559  0.7067 -1.7534
 2640TIP3   OH232114   3.356   0.619   0.402 -0.5123  0.0715 -0.0275
 2640TIP3    H132115   3.443   0.582   0.418 -0.4974  0.4915  0.9142
 2640TIP3    H232116   3.372   0.713   0.392 -0.5700 -0.0859 -2.2397
 2641TIP3   OH232117   5.777   1.249   1.208 -0.8037 -1.1784 -0.3715
 2641TIP3    H132118   5.788   1.251   1.303  1.3644  0.5216 -0.5765
 2641TIP3    H232119   5.686   1.276   1.194 -0.4588  1.0992  1.1865
 2642TIP3   OH232120   7.096   5.704   9.737  0.5263 -0.0373  0.3782
 2642TIP3    H132121   7.169   5.644   9.720 -0.3222 -0.8093 -0.6064
 2642TIP3    H232122   7.033   5.653   9.787 -0.8630 -0.4801 -1.7277
 2643TIP3   OH232123   3.950   5.381   7.430  0.6329  0.4709 -0.0013
 2643TIP3    H132124   3.989   5.337   7.506 -0.2210  1.6365  1.1672
 2643TIP3    H232125   4.025   5.413   7.380  1.2232 -0.7094  0.0900
 2644TIP3   OH232126   1.770   2.905   7.768  0.0784  0.5575  0.2289
 2644TIP3    H132127   1.834   2.835   7.779  1.4039  1.5289 -0.8282
 2644TIP3    H232128   1.767   2.919   7.673 -0.0698  1.9636  0.4191
 2645TIP3   OH232129   4.865   6.580   9.238  0.3012  0.1815  0.2246
 2645TIP3    H132130   4.861   6.520   9.164  0.4721  1.6794 -1.0439
 2645TIP3    H232131   4.833   6.529   9.313 -3.1689 -0.4254 -1.4918
 2646TIP3   OH232132   3.125   5.168   9.005  0.3002 -0.3004 -0.0186
 2646TIP3    H132133   3.133   5.151   9.099 -0.3734 -1.3509 -0.1375
 2646TIP3    H232134   3.117   5.082   8.965  1.3251  0.0869 -1.1325
 2647TIP3   OH232135   0.975   3.747   2.152  0.4292  0.5418 -0.1829
 2647TIP3    H132136   1.045   3.795   2.108  0.9877  1.1160  1.2845
 2647TIP3    H232137   0.911   3.813   2.176 -0.7076  0.0052 -1.5996
 2648TIP3   OH232138   0.247   5.316   2.771 -0.0331 -0.1184 -0.2195
 2648TIP3    H132139   0.205   5.397   2.801 -3.9091 -1.7944 -0.4462
 2648TIP3    H232140   0.290   5.281   2.849 -0.0382  1.1664  0.3885
 2649TIP3   OH232141   2.197   6.573   7.239 -0.3075 -0.7272  0.0038
 2649TIP3    H132142   2.210   6.629   7.162 -1.3930  0.0976  0.3972
 2649TIP3    H232143   2.166   6.632   7.307 -2.8735 -1.9668  0.0517
 2650TIP3   OH232144   6.614   3.480   8.688 -0.0332  0.0094  0.1968
 2650TIP3    H132145   6.604   3.456   8.596  0.0947  0.3781  0.0854
 2650TIP3    H232146   6.639   3.572   8.686  1.0229 -0.2503  0.5541
 2651TIP3   OH232147   0.476   0.036   1.098 -0.0108  0.6323 -0.3874
 2651TIP3    H132148   0.526   0.115   1.078  2.8412 -0.9680 -0.0374
 2651TIP3    H232149   0.489   0.022   1.192 -2.3252  0.8828  0.0321
 2652TIP3   OH232150   0.218   4.103   8.782 -0.7461  0.2887  0.0941
 2652TIP3    H132151   0.233   4.009   8.796  0.7011  0.5426  0.4400
 2652TIP3    H232152   0.150   4.126   8.844 -1.1693 -0.5538 -0.0513
 2653TIP3   OH232153   0.741   7.066   1.643  0.0073  0.3392 -0.1125
 2653TIP3    H132154   0.780   7.008   1.709 -1.0805  0.4104  0.6215
 2653TIP3    H232155   0.811   7.082   1.580  1.2828  0.8048  1.3754
 2654TIP3   OH232156   5.375   1.175   1.616 -0.0666  0.0877 -0.0691
 2654TIP3    H132157   5.363   1.235   1.542  0.1293  3.2522  2.2814
 2654TIP3    H232158   5.287   1.145   1.638 -0.2216 -0.1466 -0.9435
 2655TIP3   OH232159   3.040   1.554   6.841  0.1426 -0.4691  0.1519
 2655TIP3    H132160   2.951   1.537   6.873 -0.7000  0.0503 -1.7568
 2655TIP3    H232161   3.056   1.485   6.776  1.4406 -0.9853  0.9851
 2656TIP3   OH232162   3.759   5.252   9.940 -0.3397 -0.0445 -0.0225
 2656TIP3    H132163   3.748   5.268   9.846  0.0167  2.2816  0.2782
 2656TIP3    H232164   3.845   5.212   9.948 -0.3718 -0.2527 -0.6821
 2657TIP3   OH232165   7.079   2.495   1.576  0.0099  0.3197  0.0915
 2657TIP3    H132166   7.059   2.588   1.563  3.0004  0.9892 -0.5030
 2657TIP3    H232167   7.144   2.475   1.509  0.5140 -1.8313  1.1232
 2658TIP3   OH232168   1.075   0.995   1.464  0.0139  0.2738 -0.1918
 2658TIP3    H132169   1.152   0.969   1.413 -0.1100 -2.4324  0.7942
 2658TIP3    H232170   1.007   1.012   1.399  0.9210  0.8122 -1.0154
 2659TIP3   OH232171   6.868   6.981   1.761 -0.2195  0.3847 -0.0879
 2659TIP3    H132172   6.876   6.890   1.732 -1.9089  0.0488  0.3526
 2659TIP3    H232173   6.778   6.987   1.794  0.5644  1.6084  2.0201
 2660TIP3   OH232174   5.626   3.812   8.174 -0.1001 -0.1732 -0.0069
 2660TIP3    H132175   5.700   3.865   8.142 -0.1468 -0.7303 -1.0711
 2660TIP3    H232176   5.621   3.739   8.113 -1.0652 -0.5423  0.5015
 2661TIP3   OH232177   5.789   6.981   0.259 -0.0703  0.7036 -0.1707
 2661TIP3    H132178   5.799   6.940   0.345  3.3440 -1.9162 -1.6161
 2661TIP3    H232179   5.858   7.048   0.256  0.5768  0.0100 -1.2290
 2662TIP3   OH232180   0.465   5.221   8.040  0.2558  0.6274 -0.3821
 2662TIP3    H132181   0.403   5.159   8.076 -0.9402  0.8721 -1.8940
 2662TIP3    H232182   0.473   5.289   8.107  1.7160 -1.1509  1.3673
 2663TIP3   OH232183   0.245   5.660   9.273 -0.5520 -0.6281 -0.3163
 2663TIP3    H132184   0.152   5.667   9.294 -0.4233 -0.2177  0.1392
 2663TIP3    H232185   0.249   5.592   9.206 -1.3761  0.5584 -1.6275
 2664TIP3   OH232186   0.062   4.607   8.863  0.3146  0.0647 -0.6426
 2664TIP3    H132187   0.028   4.604   8.774 -0.4713 -0.5469 -0.3404
 2664TIP3    H232188   0.000   4.553   8.914  0.4556  0.8200  0.3602
 2665TIP3   OH232189   5.432   0.653   9.394 -0.2208  0.1111 -0.0246
 2665TIP3    H132190   5.463   0.573   9.437 -2.5310 -0.1369  1.3433
 2665TIP3    H232191   5.495   0.720   9.418  0.3398 -0.7629  0.9928
 2666TIP3   OH232192   1.555   1.302   9.934 -0.5058  0.2470  0.1188
 2666TIP3    H132193   1.645   1.275   9.918 -0.8863 -1.2491  0.3516
 2666TIP3    H232194   1.541   1.376   9.875  1.0342  0.8601  0.4828
 2667TIP3   OH232195   0.317   6.944   8.564 -0.0832 -0.1133 -0.0186
 2667TIP3    H132196   0.268   6.944   8.482 -0.6089  0.5944  0.2883
 2667TIP3    H232197   0.377   7.018   8.556  0.0880 -0.2373  0.1057
 2668TIP3   OH232198   4.132   5.328   9.448 -0.1964  0.1524 -0.3689
 2668TIP3    H132199   4.072   5.260   9.416 -0.1432  0.8945 -2.1552
 2668TIP3    H232200   4.090   5.411   9.422  0.3880  0.7637  0.5935
 2669TIP3   OH232201   1.526   2.044   1.496  0.3076 -0.1929 -0.7696
 2669TIP3    H132202   1.460   2.070   1.431 -2.6539  2.0237  2.7263
 2669TIP3    H232203   1.514   1.949   1.505 -1.4154 -0.0547 -1.2541
 2670TIP3   OH232204   4.792   0.835   1.477 -0.2191  0.5088 -0.4661
 2670TIP3    H132205   4.705   0.874   1.486 -1.4437 -1.8467 -1.3473
 2670TIP3    H232206   4.798   0.812   1.384  0.7510 -0.6483 -0.1441
 2671TIP3   OH232207   4.230   5.620   9.340 -0.4109  0.4338  0.1768
 2671TIP3    H132208   4.154   5.674   9.361 -0.5512  0.8019 -1.1690
 2671TIP3    H232209   4.218   5.597   9.248  0.7832 -0.0352  0.1238
 2672TIP3   OH232210   0.007   0.263   1.252  0.1738  0.1554  0.9049
 2672TIP3    H132211  -0.029   0.190   1.302 -0.0988  0.0740  0.5933
 2672TIP3    H232212   0.044   0.223   1.174 -1.4818  0.4860 -0.1148
 2673TIP3   OH232213   3.436   0.898   8.580 -0.7352  0.0138  0.2535
 2673TIP3    H132214   3.354   0.863   8.614 -0.9369  0.0213 -0.2105
 2673TIP3    H232215   3.472   0.828   8.527 -0.3435 -0.0555  0.6074
 2674TIP3   OH232216   1.619   3.962   1.132  0.6406 -0.2022 -0.7013
 2674TIP3    H132217   1.620   3.903   1.207 -2.3018  0.6226  0.1206
 2674TIP3    H232218   1.594   3.906   1.058 -2.2006 -0.1481  0.0836
 2675TIP3   OH232219   3.067   1.607   2.375  0.6843 -0.2146  0.1388
 2675TIP3    H132220   2.980   1.622   2.337  1.5630 -1.8188 -2.8147
 2675TIP3    H232221   3.104   1.694   2.385 -0.5884  0.4022 -0.2674
 2676TIP3   OH232222   1.629   0.990   9.285 -0.5086 -0.3702  0.3648
 2676TIP3    H132223   1.649   0.898   9.267  0.1611  0.0529 -1.1897
 2676TIP3    H232224   1.695   1.039   9.236 -0.1804  0.9497  2.0307
 2677TIP3   OH232225   3.784   3.727   0.143  0.1188  0.3523  0.1725
 2677TIP3    H132226   3.802   3.658   0.078  1.0157  2.1438 -1.5926
 2677TIP3    H232227   3.857   3.788   0.134 -0.6120  1.5270  1.7233
 2678TIP3   OH232228   7.130   0.007   2.497  0.5595 -0.6330 -0.3876
 2678TIP3    H132229   7.060   0.070   2.483  2.2051  1.0604 -1.3710
 2678TIP3    H232230   7.139   0.002   2.592 -0.1944 -0.1187 -0.2776
 2679TIP3   OH232231   6.144   3.257   9.117 -0.3239  0.1000  0.2920
 2679TIP3    H132232   6.131   3.349   9.140  0.2842  0.3881 -0.4882
 2679TIP3    H232233   6.061   3.230   9.079 -0.5906  0.2512  0.7606
 2680TIP3   OH232234   0.917   0.355   9.146 -0.1198  0.0971 -0.5382
 2680TIP3    H132235   0.970   0.350   9.226 -1.1171 -0.6547  0.1011
 2680TIP3    H232236   0.893   0.447   9.138 -0.8680  0.0142  0.6164
 2681TIP3   OH232237   6.858   3.929   1.366  0.2562 -0.0414  0.8406
 2681TIP3    H132238   6.806   3.957   1.290 -1.3583  0.8196  2.1885
 2681TIP3    H232239   6.869   4.009   1.418  1.2283 -0.6466  1.5905
 2682TIP3   OH232240   5.416   5.312   1.467  0.1983  0.3544 -0.3744
 2682TIP3    H132241   5.477   5.312   1.541  1.6176  0.4547 -1.4949
 2682TIP3    H232242   5.403   5.404   1.447 -0.5164  0.3388 -0.0022
 2683TIP3   OH232243   5.239   6.753   0.545 -0.8147 -0.2734 -0.0866
 2683TIP3    H132244   5.253   6.721   0.634 -0.3644  0.7010  0.2156
 2683TIP3    H232245   5.320   6.801   0.525 -0.0857 -2.0406 -1.7453
 2684TIP3   OH232246   2.628   0.901   9.165  0.2126 -0.2060  0.1577
 2684TIP3    H132247   2.572   0.895   9.243 -0.4994  0.0206 -0.3271
 2684TIP3    H232248   2.579   0.957   9.105  1.7044  1.3872  0.3542
 2685TIP3   OH232249   0.842   5.611   1.474 -0.4468 -0.0602 -0.1408
 2685TIP3    H132250   0.919   5.554   1.471 -2.0221 -2.3385 -0.3939
 2685TIP3    H232251   0.804   5.604   1.387 -1.5246  0.1182  0.2958
 2686TIP3   OH232252   1.397   5.056   0.212  0.3629 -0.1343  0.0261
 2686TIP3    H132253   1.392   4.992   0.141  2.2693 -0.3355  0.0154
 2686TIP3    H232254   1.418   5.004   0.290  0.8590  0.3609  0.2299
 2687TIP3   OH232255   2.099   4.109   9.881 -0.4186  0.1740  0.3661
 2687TIP3    H132256   2.072   4.094   9.791 -0.0717  0.3877  0.2241
 2687TIP3    H232257   2.024   4.155   9.921  0.2360  1.9769 -0.3919
 2688TIP3   OH232258   7.053   4.801   2.481  0.5159 -0.0126  0.7753
 2688TIP3    H132259   7.061   4.721   2.429  0.4048 -0.4727  1.4519
 2688TIP3    H232260   7.113   4.787   2.555 -0.8339 -0.2460  1.8568
 2689TIP3   OH232261   5.599   3.236   9.851  0.3760 -0.2789  0.3561
 2689TIP3    H132262   5.560   3.177   9.787 -0.6648 -0.4266  1.0853
 2689TIP3    H232263   5.693   3.224   9.841  0.2286 -0.4563 -0.9759
 2690TIP3   OH232264   1.085   6.183   8.543  0.1842  0.8959  0.6874
 2690TIP3    H132265   1.064   6.139   8.461 -1.1133 -0.3061  1.6106
 2690TIP3    H232266   1.086   6.276   8.521  0.6511  0.5720 -0.8241
 2691TIP3   OH232267   1.420   1.009   7.755 -0.1742 -0.2316 -0.2377
 2691TIP3    H132268   1.475   0.969   7.822  1.6307 -0.1142 -1.5929
 2691TIP3    H232269   1.418   1.102   7.778  1.0520 -0.0687 -0.7247
 2692TIP3   OH232270   1.708   4.622   7.186  0.0602  0.0956 -0.8085
 2692TIP3    H132271   1.731   4.560   7.116  0.3853  1.1466 -1.6529
 2692TIP3    H232272   1.791   4.645   7.227 -0.1591 -0.7479  0.1524
 2693TIP3   OH232273   7.115   1.642   7.976 -0.3056 -0.3956 -0.2784
 2693TIP3    H132274   7.122   1.609   7.886 -0.2266  0.8239 -0.7411
 2693TIP3    H232275   7.083   1.568   8.026 -1.5527 -0.7625 -1.5534
 2694TIP3   OH232276   7.280   3.284   7.863 -0.8227  1.0443  0.5036
 2694TIP3    H132277   7.310   3.322   7.945  1.3914  1.2073 -0.3027
 2694TIP3    H232278   7.299   3.190   7.872  2.0408  1.4008 -0.7523
 2695TIP3   OH232279   5.532   3.783   9.963 -0.6332  0.5862 -0.0572
 2695TIP3    H132280   5.617   3.763   9.923 -0.1772 -0.6864  1.4491
 2695TIP3    H232281   5.516   3.875   9.940  1.3422  0.9734 -0.0755
 2696TIP3   OH232282   2.002   5.326   9.076  0.0426  0.0464  0.4802
 2696TIP3    H132283   2.072   5.390   9.085 -0.8975  0.8922  2.5760
 2696TIP3    H232284   2.032   5.251   9.128 -0.3149  0.1621  0.8616
 2697TIP3   OH232285   0.995   7.179   0.534 -0.0619  0.0010 -0.3677
 2697TIP3    H132286   1.023   7.091   0.509 -0.4777 -0.8331  1.8151
 2697TIP3    H232287   0.907   7.189   0.498 -0.6867 -1.1808  0.7533
 2698TIP3   OH232288   0.593   1.267   8.344  0.0194 -0.5236 -0.1071
 2698TIP3    H132289   0.596   1.359   8.317  2.7728  0.1822  2.0668
 2698TIP3    H232290   0.536   1.266   8.420  0.0737 -0.5714 -0.0667
 2699TIP3   OH232291   3.058   4.547   2.351  0.2151 -0.3367  0.5614
 2699TIP3    H132292   2.973   4.577   2.383 -0.0245 -0.6898  0.2589
 2699TIP3    H232293   3.117   4.621   2.368 -0.3757  0.3214 -0.1965
 2700TIP3   OH232294   3.123   4.855   1.230  0.0020  0.4277 -0.4757
 2700TIP3    H132295   3.170   4.871   1.311 -0.0779  1.7314 -0.6683
 2700TIP3    H232296   3.051   4.797   1.254 -0.0093  0.7917  0.3754
 2701TIP3   OH232297   3.488   3.186   0.015 -0.4996  0.0582  0.1449
 2701TIP3    H132298   3.542   3.227  -0.052  0.9329  0.4728  1.4781
 2701TIP3    H232299   3.434   3.257   0.049 -0.8137 -0.0287 -0.1644
 2702TIP3   OH232300   4.507   6.062   0.110 -0.0780  0.2393 -0.0080
 2702TIP3    H132301   4.530   6.003   0.037 -3.6898  0.9707 -1.9544
 2702TIP3    H232302   4.545   6.146   0.085 -0.2467  0.1989 -0.4054
 2703TIP3   OH232303   5.484   4.240   2.271  0.5527 -0.4249 -0.3970
 2703TIP3    H132304   5.518   4.301   2.336  2.1832  0.5766 -2.0852
 2703TIP3    H232305   5.480   4.156   2.317  2.8140 -0.0125  0.6839
 2704TIP3   OH232306   1.972   6.276   9.655 -0.1624  0.4134  0.6145
 2704TIP3    H132307   2.062   6.281   9.686 -0.1971 -1.0727  1.0253
 2704TIP3    H232308   1.951   6.182   9.656 -1.4807  0.6672 -0.1409
 2705TIP3   OH232309   6.949   3.095   2.145  0.0461  0.5757 -0.3539
 2705TIP3    H132310   7.032   3.142   2.138  0.5971 -0.3909 -0.4905
 2705TIP3    H232311   6.925   3.103   2.237  0.4556  0.6041 -0.2459
 2706TIP3   OH232312   2.713   6.243   0.526 -0.7579  0.2079 -0.4768
 2706TIP3    H132313   2.690   6.336   0.529  1.7918  0.9090  2.3730
 2706TIP3    H232314   2.727   6.219   0.618  3.1343 -1.7050 -1.3480
 2707TIP3   OH232315   3.496   3.514   9.161 -0.2809  0.1031 -0.0621
 2707TIP3    H132316   3.584   3.535   9.131 -0.3974 -0.4954 -0.8427
 2707TIP3    H232317   3.507   3.485   9.251  0.4769 -1.1406 -0.5380
 2708TIP3   OH232318   4.217   5.454   6.536 -0.1988 -0.6524  0.0644
 2708TIP3    H132319   4.123   5.449   6.553 -0.0951 -1.3090  0.5038
 2708TIP3    H232320   4.230   5.540   6.496 -0.9959 -0.5894 -0.0783
 2709TIP3   OH232321   3.762   0.171   9.580 -0.3596  0.0139  0.1401
 2709TIP3    H132322   3.716   0.254   9.588  0.7411  0.7530 -0.8667
 2709TIP3    H232323   3.739   0.139   9.492 -0.9707 -0.8789  0.6092
 2710TIP3   OH232324   1.984   3.719   2.709  0.4322  0.4569 -0.1043
 2710TIP3    H132325   1.962   3.810   2.685  1.8654  0.8498 -0.0459
 2710TIP3    H232326   1.915   3.666   2.669  0.3415  1.4659 -1.3407
 2711TIP3   OH232327   0.431   1.382   2.055 -0.4597  0.4175 -0.2649
 2711TIP3    H132328   0.432   1.458   2.114  2.2434 -0.0158  0.3637
 2711TIP3    H232329   0.417   1.307   2.113  1.7561  0.0369 -0.1216
 2712TIP3   OH232330   7.244   5.642   9.266 -0.4683  0.1278 -0.1343
 2712TIP3    H132331   7.152   5.666   9.276 -0.9056 -1.3102 -0.3675
 2712TIP3    H232332   7.266   5.668   9.176 -0.7021  0.3343 -0.1313
 2713TIP3   OH232333   6.503   4.866   8.097 -0.0431 -0.2207 -0.2951
 2713TIP3    H132334   6.595   4.847   8.112  0.2756  1.5099  0.1993
 2713TIP3    H232335   6.485   4.943   8.152 -1.8187 -0.6006 -0.2743
 2714TIP3   OH232336   2.685   2.024   0.099  0.2795 -0.1077  0.0507
 2714TIP3    H132337   2.734   1.964   0.156  0.9242  1.0148  0.7217
 2714TIP3    H232338   2.658   1.970   0.025  0.9108 -1.2008  0.5881
 2715TIP3   OH232339   5.692   6.725   0.031 -0.0946 -0.0470  0.3410
 2715TIP3    H132340   5.690   6.639  -0.010  0.0490 -0.1114  0.4674
 2715TIP3    H232341   5.784   6.745   0.043 -0.0890  0.6871 -0.8364
 2716TIP3   OH232342   1.389   6.749   9.387 -0.0951 -0.1211  0.2127
 2716TIP3    H132343   1.404   6.842   9.372 -2.7570  0.1512 -1.4012
 2716TIP3    H232344   1.408   6.707   9.303  1.0445 -1.0967  0.9079
 2717TIP3   OH232345   1.704   4.401   0.911 -0.3009 -0.0937  0.1231
 2717TIP3    H132346   1.781   4.420   0.965  0.6284 -0.3216 -1.0827
 2717TIP3    H232347   1.637   4.373   0.974  0.3739  0.7661  1.2652
 2718TIP3   OH232348   4.098   2.733   8.374  0.1621 -0.2858 -0.3185
 2718TIP3    H132349   4.025   2.795   8.375  0.2655 -0.1635  0.2315
 2718TIP3    H232350   4.056   2.647   8.371  0.0243 -0.1949 -1.5168
 2719TIP3   OH232351   4.035   0.851   1.107  0.0088 -0.0588 -0.1002
 2719TIP3    H132352   3.977   0.919   1.141 -0.1258 -0.5300  0.6372
 2719TIP3    H232353   4.107   0.898   1.066 -0.5971  0.5301 -0.4992
 2720TIP3   OH232354   5.134   3.256   9.457 -0.0667  0.3091  0.2981
 2720TIP3    H132355   5.156   3.233   9.547 -1.2582  0.0259  0.5414
 2720TIP3    H232356   5.042   3.232   9.449  0.2368 -0.4413 -1.2537
 2721TIP3   OH232357   2.014   4.960   8.921  0.6684  0.1232  0.0567
 2721TIP3    H132358   1.987   4.880   8.876  0.6723  0.2559 -0.1855
 2721TIP3    H232359   2.023   5.025   8.851 -0.7915  0.7399  0.4039
 2722TIP3   OH232360   4.056   2.768   9.569  0.4346  0.2462 -0.1401
 2722TIP3    H132361   4.081   2.683   9.533  1.3317 -0.1988  1.4463
 2722TIP3    H232362   4.139   2.811   9.591 -0.0344  1.1843 -0.1283
 2723TIP3   OH232363   3.971   1.510   7.759  0.1302  0.2821 -0.0505
 2723TIP3    H132364   3.904   1.520   7.692  0.2850  0.5764 -0.1636
 2723TIP3    H232365   3.923   1.486   7.839  0.0648 -1.6526 -0.6143
 2724TIP3   OH232366   0.879   4.411   2.209  0.1658  0.0179  0.1414
 2724TIP3    H132367   0.899   4.482   2.148 -0.2963 -1.0380 -1.2854
 2724TIP3    H232368   0.890   4.331   2.158  2.5342 -1.1027  2.2054
 2725TIP3   OH232369   3.704   5.234   8.304 -0.3161 -0.3124  0.1269
 2725TIP3    H132370   3.650   5.186   8.241 -1.4497  0.6296  0.3467
 2725TIP3    H232371   3.643   5.289   8.352  0.7833  0.4563  0.7091
 2726TIP3   OH232372   1.209   4.588   8.024 -0.3193  0.3526  0.1068
 2726TIP3    H132373   1.244   4.507   7.988  0.2646  0.0189  1.3698
 2726TIP3    H232374   1.152   4.622   7.955 -1.6830 -1.8405  0.0538
 2727TIP3   OH232375   5.766   4.603   0.587 -0.1648  0.3180 -0.3250
 2727TIP3    H132376   5.721   4.521   0.606 -0.4574  0.2771 -1.1393
 2727TIP3    H232377   5.820   4.619   0.664  0.6555 -1.1445 -0.5637
 2728TIP3   OH232378   5.515   6.016   2.170  0.7880 -0.1312 -0.3847
 2728TIP3    H132379   5.529   6.102   2.129  0.8154 -0.1357 -0.3849
 2728TIP3    H232380   5.581   6.013   2.240  0.5176  0.0157 -0.1178
 2729TIP3   OH232381   2.605   5.130   6.235 -0.5447 -0.3272 -0.5554
 2729TIP3    H132382   2.652   5.080   6.168 -0.3783 -1.5178  0.4124
 2729TIP3    H232383   2.639   5.219   6.227  0.1378 -0.6533 -1.4384
 2730TIP3   OH232384   4.910   6.779   9.951 -0.4255 -0.0831  1.2476
 2730TIP3    H132385   4.837   6.836   9.928 -0.4133 -0.3793  0.4442
 2730TIP3    H232386   4.964   6.832  10.010 -0.5671  0.6314  0.7468
 2731TIP3   OH232387   0.070   2.982   7.813  0.2549 -0.2498  0.5931
 2731TIP3    H132388   0.104   2.908   7.863  0.6268 -0.9632 -0.6521
 2731TIP3    H232389   0.059   2.947   7.724 -1.7286  0.5773  0.4788
 2732TIP3   OH232390   1.483   0.954   8.927  0.8966  0.1786  0.0693
 2732TIP3    H132391   1.406   0.921   8.880  0.2055  3.5995 -1.5430
 2732TIP3    H232392   1.551   0.890   8.908 -0.7444 -1.3002 -1.2066
 2733TIP3   OH232393   2.063   2.597   0.970 -0.1033  0.0875  0.1935
 2733TIP3    H132394   2.038   2.524   0.913  1.8160 -1.0832  0.7467
 2733TIP3    H232395   2.033   2.571   1.057 -0.8780  0.7494  0.1355
 2734TIP3   OH232396   3.799   3.228   0.606  0.0277  1.0139  0.1277
 2734TIP3    H132397   3.822   3.304   0.660  0.1147  0.1451  1.3395
 2734TIP3    H232398   3.722   3.190   0.648 -0.6199  0.9953 -1.0434
 2735TIP3   OH232399   4.680   7.047   0.254 -0.0940  0.3687  0.4339
 2735TIP3    H132400   4.756   7.084   0.209 -0.8683  0.2133 -1.0475
 2735TIP3    H232401   4.714   6.967   0.296  0.2822 -0.5135 -1.4425
 2736TIP3   OH232402   4.278   3.400   9.883  0.3349  0.6271  0.1515
 2736TIP3    H132403   4.308   3.411   9.973  0.3053  1.4166  0.0754
 2736TIP3    H232404   4.340   3.339   9.844  0.3079  0.2261  0.7230
 2737TIP3   OH232405   6.162   6.764   2.799 -0.0165  0.6707 -0.6444
 2737TIP3    H132406   6.126   6.850   2.821  0.1292  0.6217 -0.2091
 2737TIP3    H232407   6.233   6.784   2.738 -1.4381  0.6958 -2.3827
 2738TIP3   OH232408   0.408   2.263   1.502 -0.0632 -0.4438 -0.1806
 2738TIP3    H132409   0.490   2.303   1.474  0.3023 -0.9489  0.1415
 2738TIP3    H232410   0.434   2.200   1.570 -0.5593 -1.5329 -0.9664
 2739TIP3   OH232411   7.251   4.076   6.997 -0.1041  0.1036 -0.0642
 2739TIP3    H132412   7.325   4.016   6.991 -0.3710 -0.1129 -1.6850
 2739TIP3    H232413   7.174   4.019   7.006 -0.1082  0.3244  1.5384
 2740TIP3   OH232414   4.049   2.156   8.704  0.2370 -0.0003 -0.2080
 2740TIP3    H132415   3.993   2.230   8.727  1.2526  0.0289  2.5157
 2740TIP3    H232416   4.128   2.196   8.668 -1.0303 -0.0208 -3.3201
 2741TIP3   OH232417   2.062   7.016   7.586 -0.3975  0.0174  0.1323
 2741TIP3    H132418   2.039   7.070   7.511  0.5746  0.1507 -0.0792
 2741TIP3    H232419   2.133   7.064   7.629  0.3866 -1.0117  0.0217
 2742TIP3   OH232420   5.857   1.471   8.784 -0.0717  0.1011  0.1391
 2742TIP3    H132421   5.920   1.472   8.712 -0.3384 -1.8452 -0.1720
 2742TIP3    H232422   5.884   1.398   8.839 -3.1443 -2.1740 -1.0841
 2743TIP3   OH232423   6.755   4.352   8.163 -0.3553  0.7141  0.7493
 2743TIP3    H132424   6.803   4.346   8.081 -0.2555  3.7640  0.4769
 2743TIP3    H232425   6.814   4.312   8.228  0.0595 -0.6692 -0.4110
 2744TIP3   OH232426   0.504   4.577   9.774  0.5269  0.3267 -0.1295
 2744TIP3    H132427   0.475   4.621   9.694 -2.2980 -1.0522 -0.0007
 2744TIP3    H232428   0.466   4.629   9.845 -2.9698 -2.0615  0.0216
 2745TIP3   OH232429   6.518   5.242   1.784  0.0168  0.0906 -0.4650
 2745TIP3    H132430   6.439   5.219   1.736 -1.3425  4.1042 -0.5153
 2745TIP3    H232431   6.491   5.245   1.876  0.0477  1.4076 -0.4754
 2746TIP3   OH232432   4.488   4.119   1.568  0.2085 -0.2674 -0.0458
 2746TIP3    H132433   4.566   4.090   1.522  0.7599 -0.6078  1.0908
 2746TIP3    H232434   4.485   4.214   1.552  0.3206 -0.3945 -0.8652
 2747TIP3   OH232435   1.173   2.330   9.312 -0.3781  0.5368  0.5743
 2747TIP3    H132436   1.255   2.366   9.348 -0.7229  0.8343  1.0770
 2747TIP3    H232437   1.201   2.281   9.235  0.3367  0.1821  1.0459
 2748TIP3   OH232438   1.891   7.025   1.213  0.3525  0.6876  0.2082
 2748TIP3    H132439   1.929   6.947   1.253  0.7589  0.7919  0.0301
 2748TIP3    H232440   1.827   7.056   1.277 -1.1222 -0.7934 -0.4661
 2749TIP3   OH232441   2.564   6.539   7.450 -0.4662 -0.2302 -0.3245
 2749TIP3    H132442   2.475   6.504   7.457 -1.2394  1.7893  0.8688
 2749TIP3    H232443   2.571   6.572   7.361 -1.8910  1.8253  0.2374
 2750TIP3   OH232444   4.621   1.669   8.992  0.3146 -0.2145 -0.2512
 2750TIP3    H132445   4.609   1.686   9.085 -1.2136 -0.5474 -0.3685
 2750TIP3    H232446   4.553   1.720   8.949  2.1780  1.4819 -1.3676
 2751TIP3   OH232447   4.629   2.736   9.687 -0.1214 -0.3800 -0.1381
 2751TIP3    H132448   4.549   2.784   9.709 -1.0859 -1.8326 -0.3278
 2751TIP3    H232449   4.669   2.717   9.772 -2.5510 -3.8102  0.4795
 2752TIP3   OH232450   5.026   0.535   8.867 -0.1158  0.4981 -0.2798
 2752TIP3    H132451   4.934   0.513   8.875 -0.1209  1.0614  1.5480
 2752TIP3    H232452   5.073   0.453   8.880 -0.2510  0.8399  3.4115
 2753TIP3   OH232453   6.832   2.462   1.026 -0.3607  0.5889 -0.3875
 2753TIP3    H132454   6.770   2.466   1.099  0.4298 -0.3267  0.3626
 2753TIP3    H232455   6.895   2.532   1.044  0.8446 -0.7357  0.8059
 2754TIP3   OH232456   1.713   4.144   9.681  0.5834  0.0256 -0.4303
 2754TIP3    H132457   1.700   4.234   9.652 -0.4166 -0.4461 -1.5287
 2754TIP3    H232458   1.648   4.093   9.632 -0.9489 -0.9052  2.3524
 2755TIP3   OH232459   2.216   1.725   1.430  0.0449 -0.3974 -0.3731
 2755TIP3    H132460   2.274   1.757   1.499  0.2745  0.2590 -0.8639
 2755TIP3    H232461   2.169   1.652   1.470  0.3625 -0.1863  0.3934
 2756TIP3   OH232462   2.650   3.649   8.289 -0.3262  0.6036  0.0669
 2756TIP3    H132463   2.674   3.718   8.227  1.2100 -0.6181 -0.7829
 2756TIP3    H232464   2.625   3.575   8.234 -0.6409  0.0482  0.9298
 2757TIP3   OH232465   1.948   0.021   8.540  0.3869  0.3422  0.0484
 2757TIP3    H132466   1.914   0.001   8.628  0.8725 -0.7400  0.0148
 2757TIP3    H232467   1.896  -0.035   8.482  1.0816 -0.0603 -0.1851
 2758TIP3   OH232468   1.919   2.423   7.903  0.0114 -0.4984 -0.5354
 2758TIP3    H132469   1.954   2.509   7.929 -0.3220 -0.6296  0.3769
 2758TIP3    H232470   1.824   2.434   7.908 -0.0245 -1.0819  0.1383
 2759TIP3   OH232471   7.061   3.902   9.853  0.4723 -0.2953  0.3591
 2759TIP3    H132472   7.049   3.920   9.946  1.3577  0.2035  0.3896
 2759TIP3    H232473   7.152   3.872   9.846  1.0341  1.4557 -0.5675
 2760TIP3   OH232474   5.239   3.702   9.835  0.5826  0.1175 -0.2766
 2760TIP3    H132475   5.259   3.701   9.742  0.4374  0.5429 -0.3156
 2760TIP3    H232476   5.243   3.795   9.859  0.3726  0.0345  0.0840
 2761TIP3   OH232477   6.279   0.763   2.766 -0.2829  0.2144  0.0961
 2761TIP3    H132478   6.345   0.816   2.721  0.0361 -1.1274 -1.0991
 2761TIP3    H232479   6.314   0.752   2.854 -0.4458  2.0902  0.4370
 2762TIP3   OH232480   4.016   6.910   1.302  0.0664 -0.5717  0.4714
 2762TIP3    H132481   3.972   6.889   1.219  0.9769 -3.6232  0.6361
 2762TIP3    H232482   4.065   6.990   1.284 -1.6039  0.1322 -1.2041
 2763TIP3   OH232483   6.419   2.483   8.674  0.1492  0.4058  0.1957
 2763TIP3    H132484   6.459   2.404   8.710  1.0104  0.2928 -0.9575
 2763TIP3    H232485   6.491   2.546   8.667 -0.2321  0.8057 -0.2285
 2764TIP3   OH232486   3.463   1.255   9.548 -0.1265  0.3028 -0.0564
 2764TIP3    H132487   3.527   1.289   9.486 -0.1609  0.1180 -0.1930
 2764TIP3    H232488   3.383   1.303   9.528 -0.2657 -0.0992 -0.4765
 2765TIP3   OH232489   5.866   5.644   2.184  0.1895 -0.2449  0.7111
 2765TIP3    H132490   5.880   5.549   2.179  1.2023 -0.0877  0.2177
 2765TIP3    H232491   5.953   5.680   2.202 -0.4678  0.4904  2.7265
 2766TIP3   OH232492   1.508   4.918   0.417 -0.2177 -0.0244  0.3242
 2766TIP3    H132493   1.513   4.885   0.507  0.8399 -0.0519  0.2638
 2766TIP3    H232494   1.584   4.880   0.373  0.2191  1.3246 -0.1344
 2767TIP3   OH232495   3.588   6.525   3.270  0.1057  0.2688 -0.3850
 2767TIP3    H132496   3.586   6.614   3.236  0.2475  0.6067  0.4750
 2767TIP3    H232497   3.504   6.513   3.313  0.2505  0.1386 -0.1325
 2768TIP3   OH232498   2.392   6.452   0.774  0.5308 -0.0357  0.2683
 2768TIP3    H132499   2.402   6.417   0.685 -0.7398  0.7170 -0.1873
 2768TIP3    H232500   2.425   6.541   0.768  0.6080 -0.0399  0.6074
 2769TIP3   OH232501   4.665   5.866   8.536 -0.2667  0.4803  0.1951
 2769TIP3    H132502   4.683   5.903   8.623  1.0960  0.3970 -0.0319
 2769TIP3    H232503   4.745   5.883   8.486 -0.3734 -0.9953 -0.5217
 2770TIP3   OH232504   3.196   3.362   7.520  0.5958 -0.2760  0.1291
 2770TIP3    H132505   3.141   3.438   7.505  0.9010  0.2169  1.3698
 2770TIP3    H232506   3.276   3.380   7.471  0.4867 -0.0214  0.0418
 2771TIP3   OH232507   1.294   2.163   2.113  0.1154 -0.0487 -0.0994
 2771TIP3    H132508   1.341   2.084   2.087 -2.4120 -1.0030 -2.2412
 2771TIP3    H232509   1.215   2.132   2.156 -0.4787  1.3160 -0.1324
 2772TIP3   OH232510   6.932   4.356   9.688 -0.2136  0.4566  0.0034
 2772TIP3    H132511   7.020   4.394   9.700  0.1678  0.2544 -1.8465
 2772TIP3    H232512   6.920   4.354   9.593 -3.8330  4.1819  0.1197
 2773TIP3   OH232513   5.638   0.959   1.190 -0.2140  0.8145 -0.0539
 2773TIP3    H132514   5.578   1.016   1.238 -0.9900  0.8237 -0.9914
 2773TIP3    H232515   5.694   1.019   1.140 -0.0540  0.7846  0.0891
 2774TIP3   OH232516   0.928   6.653   1.631 -0.5152  0.2733 -0.5570
 2774TIP3    H132517   0.881   6.577   1.664  0.6170 -1.3509 -2.4571
 2774TIP3    H232518   0.863   6.704   1.583 -0.8092 -0.7703 -1.2758
 2775TIP3   OH232519   5.997   4.111   0.143 -0.2287  0.0218  0.4808
 2775TIP3    H132520   5.918   4.157   0.172 -0.8544  1.0310 -2.4978
 2775TIP3    H232521   5.969   4.021   0.128 -0.4024 -0.0037  0.9356
 2776TIP3   OH232522   4.017   3.315   2.055  0.2399  0.0052  0.0512
 2776TIP3    H132523   3.971   3.323   1.971 -0.6863 -1.4583  0.3754
 2776TIP3    H232524   3.948   3.294   2.117  0.9812  0.6386  1.1072
 2777TIP3   OH232525   3.914   7.167   1.429 -0.2191  0.2316  0.2409
 2777TIP3    H132526   3.912   7.193   1.337  0.4982 -0.1345  0.1167
 2777TIP3    H232527   3.907   7.071   1.427 -1.1786  0.2737  0.6181
 2778TIP3   OH232528   2.153   0.688   1.333 -0.2719  0.0927  0.3407
 2778TIP3    H132529   2.195   0.715   1.251  2.9150  0.1150  1.8515
 2778TIP3    H232530   2.119   0.769   1.370 -0.4010  0.3046 -0.2265
 2779TIP3   OH232531   3.464   2.055   9.562  0.0764 -0.4828 -0.4545
 2779TIP3    H132532   3.403   2.074   9.633 -0.0163  1.6024 -1.0437
 2779TIP3    H232533   3.408   2.029   9.489  0.0782 -1.1131 -0.2391
 2780TIP3   OH232534   5.222   4.639   8.738  0.7738 -0.1425 -0.2895
 2780TIP3    H132535   5.185   4.674   8.657  1.3020  0.0356 -0.4610
 2780TIP3    H232536   5.245   4.548   8.717 -0.2898 -0.5091  0.0576
 2781TIP3   OH232537   6.705   0.408   2.645  0.2222  0.4359  0.4121
 2781TIP3    H132538   6.667   0.467   2.710 -0.5766 -0.8268  1.1422
 2781TIP3    H232539   6.664   0.323   2.663  0.4409 -0.0902 -1.3492
 2782TIP3   OH232540   1.320   3.267   9.810 -0.6825  0.1821  0.5153
 2782TIP3    H132541   1.287   3.247   9.722  0.0214  0.9988  0.0484
 2782TIP3    H232542   1.376   3.193   9.832  1.0557  1.0617 -0.7516
 2783TIP3   OH232543   5.351   6.923   1.142 -0.1187  0.1359 -0.2144
 2783TIP3    H132544   5.389   7.000   1.185 -0.1946  0.4641 -0.7192
 2783TIP3    H232545   5.258   6.944   1.135  0.2493  1.2924 -2.9104
 2784TIP3   OH232546   1.040   2.926   2.413 -0.1902 -0.5553 -0.0210
 2784TIP3    H132547   1.049   2.990   2.483 -1.6438  0.7408 -0.9505
 2784TIP3    H232548   1.005   2.848   2.456 -1.0886  0.2318  0.7169
 2785TIP3   OH232549   4.022   1.992   2.196  0.4467  0.0897  0.2763
 2785TIP3    H132550   3.926   1.990   2.200  0.3367  1.5104 -0.7328
 2785TIP3    H232551   4.048   1.900   2.188 -1.0349 -0.2206 -2.4047
 2786TIP3   OH232552   7.188   4.785   0.495 -0.0904 -0.5664  0.0201
 2786TIP3    H132553   7.184   4.853   0.562 -1.8130  0.4625 -1.0463
 2786TIP3    H232554   7.157   4.706   0.539 -2.1108  0.2983  0.2658
 2787TIP3   OH232555   3.872   2.659   0.369  0.7919  0.9066  0.0672
 2787TIP3    H132556   3.857   2.743   0.324  1.0197  1.1116  0.3717
 2787TIP3    H232557   3.809   2.659   0.441  1.6433  1.3901  0.8375
 2788TIP3   OH232558   5.014   1.825   8.485 -0.1678 -0.2883 -0.6476
 2788TIP3    H132559   4.964   1.906   8.491 -0.8783 -0.8336  1.2571
 2788TIP3    H232560   4.949   1.756   8.483  0.4633 -0.8933 -0.9569
 2789TIP3   OH232561   0.340   4.279   9.043  0.1995 -0.2880 -0.3915
 2789TIP3    H132562   0.276   4.348   9.060  0.2467  0.0444 -1.4975
 2789TIP3    H232563   0.388   4.309   8.966  2.3413 -0.0821  0.9391
 2790TIP3   OH232564   4.566   5.421   1.773  0.1422 -0.2376 -0.5095
 2790TIP3    H132565   4.499   5.481   1.739  0.8256  0.9367  0.1593
 2790TIP3    H232566   4.647   5.471   1.768  0.9689 -1.5789 -1.1370
 2791TIP3   OH232567   0.070   1.157   1.512 -0.3330  0.0232  0.2463
 2791TIP3    H132568   0.028   1.124   1.432 -0.2850  0.7119 -0.0659
 2791TIP3    H232569   0.003   1.149   1.580  0.2899 -2.6290  0.6656
 2792TIP3   OH232570   1.603   2.153   8.554  0.5294 -0.5652 -0.0776
 2792TIP3    H132571   1.661   2.087   8.591 -0.4415 -0.1005  2.5294
 2792TIP3    H232572   1.542   2.174   8.625 -2.2455 -0.3237 -2.3155
 2793TIP3   OH232573   7.209   6.909   6.888 -0.0389 -0.5794 -0.2943
 2793TIP3    H132574   7.184   6.891   6.797 -1.8236  0.0347  0.0373
 2793TIP3    H232575   7.152   6.853   6.940 -1.1367  1.1929  0.5129
 2794TIP3   OH232576   4.477   1.076   1.755  0.3413 -0.1710 -0.3980
 2794TIP3    H132577   4.531   1.154   1.740  0.1814 -0.1666 -0.9874
 2794TIP3    H232578   4.413   1.078   1.684  0.4796 -0.9693 -0.5513
 2795TIP3   OH232579   1.440   3.266   1.725  0.6634 -0.5014  0.2357
 2795TIP3    H132580   1.460   3.265   1.818  1.7213 -1.1572  0.0208
 2795TIP3    H232581   1.445   3.358   1.699 -2.6389  0.1543  1.3903
 2796TIP3   OH232582   5.559   7.064   0.932 -0.3179  0.8039  0.0607
 2796TIP3    H132583   5.639   7.017   0.910 -0.9180  0.1233 -0.7455
 2796TIP3    H232584   5.572   7.094   1.022  0.0830 -0.9048  0.6028
 2797TIP3   OH232585   1.621   0.246   7.445 -0.0090 -0.1530 -0.1834
 2797TIP3    H132586   1.646   0.338   7.431 -0.0853 -0.3430 -1.6629
 2797TIP3    H232587   1.673   0.219   7.521 -0.7935  1.4114  0.9653
 2798TIP3   OH232588   4.726   1.787   1.730 -0.5508 -0.3138  0.1634
 2798TIP3    H132589   4.659   1.810   1.794 -0.6962 -0.1710 -0.0384
 2798TIP3    H232590   4.805   1.833   1.760 -1.2452  1.9294 -1.1738
 2799TIP3   OH232591   2.219   5.747   8.935  0.0370  0.4626  0.5118
 2799TIP3    H132592   2.217   5.841   8.952 -0.3451  0.6498 -0.5291
 2799TIP3    H232593   2.130   5.717   8.953 -1.0381  1.0511 -3.0614
 2800TIP3   OH232594   6.155   4.318   8.562  0.2773 -0.0083  0.2038
 2800TIP3    H132595   6.116   4.381   8.501 -0.2607 -0.0162  0.5314
 2800TIP3    H232596   6.088   4.251   8.574  0.2264  0.1765  1.0737
 2801TIP3   OH232597   6.032   3.578   8.473  0.4173 -0.1469  0.1717
 2801TIP3    H132598   6.117   3.538   8.487 -0.1642 -1.0855  1.1776
 2801TIP3    H232599   5.988   3.520   8.411 -0.6478 -1.5076  2.0758
 2802TIP3   OH232600   1.014   0.489   0.459 -0.6232 -0.4792 -0.1152
 2802TIP3    H132601   1.041   0.517   0.546  1.9102 -1.4494 -0.5090
 2802TIP3    H232602   0.963   0.409   0.474 -0.7294 -0.3007  0.4974
 2803TIP3   OH232603   4.166   5.173   0.609 -0.7422  0.0905  0.4036
 2803TIP3    H132604   4.131   5.161   0.521 -3.3789 -0.3514  1.4017
 2803TIP3    H232605   4.179   5.084   0.642 -0.3043  0.2440  0.6547
 2804TIP3   OH232606   6.219   0.973   7.817  0.2035 -1.2366 -0.4923
 2804TIP3    H132607   6.280   0.923   7.872  0.9653  0.3519  0.1791
 2804TIP3    H232608   6.239   1.065   7.838 -2.3913 -0.6546 -0.2845
 2805TIP3   OH232609   3.601   2.996   8.663  0.6902 -0.3119 -0.0244
 2805TIP3    H132610   3.663   2.930   8.694  0.9951  0.4024  0.9381
 2805TIP3    H232611   3.653   3.076   8.655  0.3898 -0.2333 -1.4502
 2806TIP3   OH232612   2.746   0.406   9.138 -0.5652  0.7268 -0.0022
 2806TIP3    H132613   2.728   0.465   9.065 -0.7865 -1.3790 -1.7476
 2806TIP3    H232614   2.688   0.437   9.208 -0.2769  2.8656 -0.6423
 2807TIP3   OH232615   1.627   1.213   6.486 -0.3751  0.6255  0.3037
 2807TIP3    H132616   1.685   1.205   6.562 -0.3089  0.1273  0.2016
 2807TIP3    H232617   1.559   1.147   6.501 -0.8995  1.1841  0.4071
 2808TIP3   OH232618   2.273   3.574   9.471 -0.3303 -0.3807  0.3658
 2808TIP3    H132619   2.314   3.592   9.555  1.4751 -0.0353 -0.5311
 2808TIP3    H232620   2.189   3.532   9.493  0.6933 -1.5597  2.3101
 2809TIP3   OH232621   4.954   5.829   2.133  0.4349  0.4573  0.0989
 2809TIP3    H132622   4.912   5.885   2.068  0.1862 -1.0974 -1.1451
 2809TIP3    H232623   4.945   5.741   2.098  2.7289 -0.1763  0.9244
 2810TIP3   OH232624   0.587   4.141   0.319  0.3924  0.1546 -0.2459
 2810TIP3    H132625   0.514   4.140   0.381  0.2624 -0.7171 -0.3903
 2810TIP3    H232626   0.546   4.148   0.233  0.5374  0.6989 -0.2727
 2811TIP3   OH232627   1.294   6.090   9.761  0.8367  0.3939 -0.1554
 2811TIP3    H132628   1.296   6.097   9.666 -2.0491  0.1973 -0.3093
 2811TIP3    H232629   1.279   6.179   9.791 -1.2748  0.0950 -0.1363
 2812TIP3   OH232630   7.082   4.099   2.037  0.0534  0.1245  0.3291
 2812TIP3    H132631   7.049   4.182   2.004 -2.3882 -0.6734  0.5159
 2812TIP3    H232632   7.006   4.040   2.034  0.8899 -1.2815  2.9180
 2813TIP3   OH232633   6.350   3.738   7.451 -0.3634 -0.2553 -0.2089
 2813TIP3    H132634   6.352   3.670   7.383  0.5551 -0.8233  0.3690
 2813TIP3    H232635   6.433   3.784   7.442 -0.0612 -0.5755  0.7418
 2814TIP3   OH232636   1.289   0.004   1.406 -0.2904 -0.2453  0.6626
 2814TIP3    H132637   1.267   0.092   1.374 -1.8132 -0.5725  0.7338
 2814TIP3    H232638   1.365   0.017   1.461  1.0086  0.6752 -1.2382
 2815TIP3   OH232639   1.999   5.813   0.703  0.2959  0.4404 -0.2034
 2815TIP3    H132640   2.040   5.784   0.621 -0.7174  1.5274 -1.1242
 2815TIP3    H232641   2.006   5.737   0.761  2.9819  0.3441 -0.5315
 2816TIP3   OH232642   4.971   6.349   7.209  0.3029  0.1008 -0.0508
 2816TIP3    H132643   4.888   6.315   7.175  0.1830 -1.9758  2.0526
 2816TIP3    H232644   4.947   6.426   7.260 -0.3475 -0.3744  0.3810
 2817TIP3   OH232645   4.780   5.239   8.272  0.1556  0.2426  0.6081
 2817TIP3    H132646   4.850   5.299   8.247  0.3759  0.0155  0.6664
 2817TIP3    H232647   4.796   5.160   8.220  0.3571 -0.0685  1.1247
 2818TIP3   OH232648   6.344   2.986   2.175 -0.2499  0.3620  0.3968
 2818TIP3    H132649   6.433   3.021   2.181 -0.3817  0.6690  0.5971
 2818TIP3    H232650   6.354   2.892   2.190  0.5927 -0.3827 -3.6459
 2819TIP3   OH232651   2.752   6.724   8.139  0.8249 -0.1322  0.8635
 2819TIP3    H132652   2.732   6.636   8.172  1.5437 -0.3339  0.7729
 2819TIP3    H232653   2.822   6.710   8.075  0.5558  0.4456  0.4345
 2820TIP3   OH232654   0.222   0.932   9.560  0.5614 -0.4330  0.5438
 2820TIP3    H132655   0.132   0.925   9.591  0.8889 -1.4995  1.3243
 2820TIP3    H232656   0.214   0.955   9.467 -0.4532  1.4862  1.0662
 2821TIP3   OH232657   3.689   5.935   7.452 -0.3401  0.3113 -0.0290
 2821TIP3    H132658   3.765   5.916   7.506  0.1279  0.3854 -0.6461
 2821TIP3    H232659   3.711   5.899   7.366 -1.2362 -0.1646 -0.0718
 2822TIP3   OH232660   0.724   3.129   9.689 -0.0151 -0.1615 -0.3054
 2822TIP3    H132661   0.697   3.057   9.632  0.2761  0.2742 -1.0086
 2822TIP3    H232662   0.760   3.086   9.767  0.5492 -0.7929 -0.8993
 2823TIP3   OH232663   1.864   3.689   8.860 -0.0606 -0.5276 -0.1129
 2823TIP3    H132664   1.817   3.752   8.915  0.7946 -0.5257  0.6336
 2823TIP3    H232665   1.951   3.683   8.899  0.6588 -0.3347 -1.6397
 2824TIP3   OH232666   0.744   5.121   2.235  0.2218 -0.6595 -0.3788
 2824TIP3    H132667   0.655   5.138   2.205 -0.0994  1.2555  1.3617
 2824TIP3    H232668   0.795   5.108   2.155 -1.5887 -1.7231 -1.4028
 2825TIP3   OH232669   2.185   1.990   9.600 -0.6172 -0.2454 -0.4412
 2825TIP3    H132670   2.172   1.898   9.575 -1.1107 -0.2562 -0.1618
 2825TIP3    H232671   2.253   2.022   9.541 -0.1553 -0.9063 -0.2729
 2826TIP3   OH232672   3.707   6.622   0.032  0.2318 -0.5424  0.4470
 2826TIP3    H132673   3.767   6.697   0.024 -2.2019  1.7194  1.8820
 2826TIP3    H232674   3.638   6.641  -0.032 -0.1523 -1.9065  0.4368
 2827TIP3   OH232675   0.501   0.912   0.382  1.0199  0.1494  0.0531
 2827TIP3    H132676   0.427   0.852   0.378  0.9270  0.2960 -0.4145
 2827TIP3    H232677   0.523   0.931   0.291  0.9463  0.9510  0.1877
 2828TIP3   OH232678   3.413   2.243   1.349 -0.3491  0.1134 -0.4053
 2828TIP3    H132679   3.348   2.284   1.404 -0.3599 -1.2283  0.6302
 2828TIP3    H232680   3.487   2.304   1.348 -0.5803  0.4187  0.6184
 2829TIP3   OH232681   7.230   6.593   1.329 -0.2222 -0.1556 -0.1759
 2829TIP3    H132682   7.229   6.546   1.413  2.3288 -1.1921 -0.6391
 2829TIP3    H232683   7.291   6.544   1.275 -0.7133  1.3248 -2.1848
 2830TIP3   OH232684   4.611   2.903   7.748  0.0461  0.4355 -0.7434
 2830TIP3    H132685   4.683   2.854   7.708  0.0973 -0.6183  0.5544
 2830TIP3    H232686   4.643   2.925   7.835 -0.6932  1.1832 -0.6447
 2831TIP3   OH232687   7.085   6.441   7.354  0.1247 -0.3776 -0.0025
 2831TIP3    H132688   7.129   6.356   7.349 -2.6063 -2.1351  2.6097
 2831TIP3    H232689   7.014   6.434   7.290  1.0568  0.7902 -1.2068
 2832TIP3   OH232690   5.566   1.751   0.847 -0.0281 -0.2191 -0.1362
 2832TIP3    H132691   5.589   1.702   0.926  1.0619  0.6625  0.1187
 2832TIP3    H232692   5.585   1.690   0.775  1.2764 -0.2067  0.1759
 2833TIP3   OH232693   3.558   1.391   0.856  0.6203 -0.0646  0.2451
 2833TIP3    H132694   3.476   1.384   0.904  0.7674  1.9023  0.8879
 2833TIP3    H232695   3.618   1.434   0.917  1.2885  1.0491 -1.1229
 2834TIP3   OH232696   4.207   5.652   1.360  0.0285 -0.2592  0.3158
 2834TIP3    H132697   4.181   5.587   1.426  0.2606 -0.9728 -0.2774
 2834TIP3    H232698   4.138   5.648   1.295 -0.5876  0.9917  0.8715
 2835TIP3   OH232699   4.356   2.773   8.441  0.4303 -0.2214  0.0957
 2835TIP3    H132700   4.366   2.869   8.439  0.0558 -0.1853 -1.3940
 2835TIP3    H232701   4.262   2.759   8.428  0.6811 -0.7924 -1.2946
 2836TIP3   OH232702   6.779   3.477   0.221 -0.3170  0.1715  0.1319
 2836TIP3    H132703   6.865   3.445   0.192 -0.8869 -0.9019 -0.4649
 2836TIP3    H232704   6.790   3.572   0.229  0.0855  0.5258 -3.1411
 2837TIP3   OH232705   6.426   2.275   1.895 -0.1396  0.0235  0.3129
 2837TIP3    H132706   6.362   2.334   1.856  1.4316  0.2770 -2.1134
 2837TIP3    H232707   6.486   2.333   1.943  1.4514  0.5678 -2.1374
 2838TIP3   OH232708   5.270   6.450   2.082  0.7274  0.1100 -0.2285
 2838TIP3    H132709   5.256   6.432   1.989  0.4927  2.6251 -0.7315
 2838TIP3    H232710   5.189   6.422   2.124 -0.5370  2.0167 -1.2764
 2839TIP3   OH232711   0.088   5.480   2.298 -0.3406 -0.2136  0.1548
 2839TIP3    H132712   0.166   5.442   2.259 -0.8735 -0.6584 -0.4962
 2839TIP3    H232713   0.113   5.571   2.318  0.3356 -0.3550 -0.0289
 2840TIP3   OH232714   6.955   2.775   3.182  0.4258 -0.2353  0.5871
 2840TIP3    H132715   6.907   2.723   3.247  1.4738 -0.6095  1.0769
 2840TIP3    H232716   7.045   2.773   3.212  0.8999 -0.2689 -0.7830
 2841TIP3   OH232717   6.929   2.999   1.348  0.2898  0.1480  0.3032
 2841TIP3    H132718   6.996   3.055   1.310  0.2081  0.4139  0.5520
 2841TIP3    H232719   6.900   3.045   1.426 -1.2439  0.7687 -0.5927
 2842TIP3   OH232720   5.705   2.983   7.500  0.4516 -0.3364 -0.5029
 2842TIP3    H132721   5.786   2.946   7.465  0.3074 -0.2650 -0.9169
 2842TIP3    H232722   5.644   2.980   7.427 -0.4265 -1.8988  0.2630
 2843TIP3   OH232723   3.293   6.520   9.803 -0.0072 -0.1778 -0.0657
 2843TIP3    H132724   3.205   6.548   9.828  0.6942  1.1104  1.1354
 2843TIP3    H232725   3.290   6.425   9.810 -1.4327 -0.1975 -0.5537
 2844TIP3   OH232726   0.848   6.742   0.774 -0.0236  0.8380 -0.3698
 2844TIP3    H132727   0.942   6.762   0.778  0.0249  0.4006  1.2352
 2844TIP3    H232728   0.845   6.654   0.734  0.2467  0.8135 -0.3404
 2845TIP3   OH232729   1.181   4.274   1.572  0.1697  0.2701  0.0952
 2845TIP3    H132730   1.270   4.307   1.559  0.1322  0.3840  0.1218
 2845TIP3    H232731   1.143   4.273   1.484  0.3416 -0.2007  0.0239
 2846TIP3   OH232732   3.448   5.794   1.025 -0.4093 -0.7963  0.3589
 2846TIP3    H132733   3.356   5.780   1.048 -0.8641 -0.1916 -1.0131
 2846TIP3    H232734   3.448   5.871   0.969  0.6897 -1.9193 -1.2772
 2847TIP3   OH232735   1.268   7.004   1.323  0.5068 -0.0609  0.4085
 2847TIP3    H132736   1.358   7.016   1.293  0.9667 -1.6225  1.0355
 2847TIP3    H232737   1.254   7.074   1.387  1.2768  0.1940  0.3010
 2848TIP3   OH232738   7.221   4.992   1.100  0.2198  0.2070  0.2475
 2848TIP3    H132739   7.190   4.991   1.009 -0.7284  2.3512  0.4924
 2848TIP3    H232740   7.141   4.995   1.153  0.7825 -0.0277  1.1323
 2849TIP3   OH232741   2.408   5.246   7.291  0.2226 -0.5965  0.4555
 2849TIP3    H132742   2.364   5.247   7.376 -2.2310 -0.1786 -0.7188
 2849TIP3    H232743   2.390   5.333   7.254 -0.5488 -1.4469 -1.2941
 2850TIP3   OH232744   4.079   6.219   0.382  0.1941 -0.7825  0.1016
 2850TIP3    H132745   4.116   6.307   0.388  0.0902 -0.6997 -0.4292
 2850TIP3    H232746   3.988   6.228   0.410  0.2751 -0.7874  0.3713
 2851TIP3   OH232747   3.707   4.361   9.234  0.3696  0.0311  0.4699
 2851TIP3    H132748   3.675   4.451   9.241  1.3928  0.5124 -0.7646
 2851TIP3    H232749   3.673   4.329   9.151 -0.4349 -0.9262  1.1466
 2852TIP3   OH232750   4.337   1.528   0.094 -0.6097 -0.4016 -0.5669
 2852TIP3    H132751   4.321   1.463   0.161 -1.5157 -0.8657 -1.2120
 2852TIP3    H232752   4.276   1.599   0.113  0.6530  0.4611  0.3703
 2853TIP3   OH232753   0.139   2.257   9.276 -0.1974 -0.2062 -0.8251
 2853TIP3    H132754   0.134   2.202   9.354  0.5793  0.0047 -0.6156
 2853TIP3    H232755   0.230   2.248   9.247  0.6025  2.6268  0.4690
 2854TIP3   OH232756   0.525   7.001   1.106 -0.5268 -0.4595  0.0776
 2854TIP3    H132757   0.443   7.014   1.154 -0.1352  0.3798  0.5503
 2854TIP3    H232758   0.579   7.077   1.130  1.1068 -1.8910  1.2215
 2855TIP3   OH232759   2.095   4.620   9.017 -0.0010  0.3581 -0.5332
 2855TIP3    H132760   2.136   4.612   9.103  1.1328  0.5339 -1.0417
 2855TIP3    H232761   2.149   4.684   8.971 -0.8030  0.5286 -1.2613
 2856TIP3   OH232762   0.914   1.447   8.498 -0.1842  0.4877 -0.8705
 2856TIP3    H132763   0.904   1.369   8.553  1.7396 -0.3600 -1.5842
 2856TIP3    H232764   0.852   1.511   8.533 -0.0862 -0.5260  1.3006
 2857TIP3   OH232765   2.202   3.912   2.554  0.3719 -0.3547 -0.1206
 2857TIP3    H132766   2.236   4.002   2.562 -1.0943  0.0942  1.3763
 2857TIP3    H232767   2.222   3.871   2.637 -0.7594 -0.7743 -0.0413
 2858TIP3   OH232768   3.751   1.582   7.610 -0.2430 -0.8187 -0.4289
 2858TIP3    H132769   3.738   1.607   7.519 -0.7854  0.9934  0.1078
 2858TIP3    H232770   3.666   1.551   7.639 -0.6021  0.4900 -0.0150
 2859TIP3   OH232771   4.251   6.845   1.089 -0.8329  0.5554 -0.8001
 2859TIP3    H132772   4.220   6.928   1.126  0.5373  0.9444 -0.4822
 2859TIP3    H232773   4.253   6.785   1.164  1.2386  1.1430 -0.3233
 2860TIP3   OH232774   6.824   6.629   1.496 -0.3148  0.9805 -0.0583
 2860TIP3    H132775   6.864   6.619   1.583 -0.7204 -0.6719 -0.0300
 2860TIP3    H232776   6.744   6.679   1.513 -0.3453  0.7488  0.5161
 2861TIP3   OH232777   2.010   6.273   3.158 -0.0986 -0.9799 -0.7443
 2861TIP3    H132778   1.945   6.343   3.165  0.4640 -0.3341 -1.7260
 2861TIP3    H232779   1.968   6.197   3.198 -1.2378 -0.4303 -0.8508
 2862TIP3   OH232780   7.226   4.613   1.917 -0.1877  0.0278 -0.3871
 2862TIP3    H132781   7.251   4.521   1.907 -0.2985  0.0873 -1.3131
 2862TIP3    H232782   7.307   4.657   1.946 -0.0213 -0.2878 -0.3730
 2863TIP3   OH232783   5.838   3.685   0.804 -0.0557 -0.3810  0.1816
 2863TIP3    H132784   5.755   3.674   0.851  0.6985  0.4438  1.7811
 2863TIP3    H232785   5.811   3.711   0.716 -1.5076 -0.6441  0.5133
 2864TIP3   OH232786   4.246   5.574   8.095 -0.5708 -0.1166  0.1953
 2864TIP3    H132787   4.158   5.596   8.064 -0.7317 -2.0107 -0.8191
 2864TIP3    H232788   4.305   5.615   8.033 -0.8582 -1.9767 -1.4192
 2865TIP3   OH232789   7.088   2.387   2.169  1.1219 -0.0344 -0.0807
 2865TIP3    H132790   7.077   2.434   2.252  1.1423 -1.3668  0.7174
 2865TIP3    H232791   7.180   2.401   2.146  0.9220  0.9886 -0.3089
 2866TIP3   OH232792   5.266   6.314   8.523  0.5337 -0.2791  0.1015
 2866TIP3    H132793   5.213   6.240   8.553 -1.2169  0.0840 -1.9431
 2866TIP3    H232794   5.311   6.281   8.445  1.3817  0.2115  0.3673
 2867TIP3   OH232795   1.109   2.145   7.301 -0.5587  0.6206 -0.3614
 2867TIP3    H132796   1.086   2.176   7.214  1.1930  0.8143 -0.7864
 2867TIP3    H232797   1.166   2.070   7.285  1.1859  1.6856  0.5483
 2868TIP3   OH232798   3.494   3.715   8.408  0.5382 -0.4070  0.6177
 2868TIP3    H132799   3.482   3.791   8.465 -1.3312 -1.3208  1.5364
 2868TIP3    H232800   3.418   3.659   8.426  0.0810 -0.9667 -2.4596
 2869TIP3   OH232801   3.549   1.506   2.123  0.1032 -0.3217  0.4991
 2869TIP3    H132802   3.588   1.551   2.198 -0.9006  0.3679  0.6154
 2869TIP3    H232803   3.590   1.419   2.124  0.0380 -0.3617  1.9079
 2870TIP3   OH232804   7.093   2.784   9.592  0.1490  0.0665  0.3319
 2870TIP3    H132805   7.182   2.758   9.570  0.2546  0.2269  0.5654
 2870TIP3    H232806   7.077   2.863   9.539  0.6550  0.8648  1.3378
 2871TIP3   OH232807   1.134   1.134   9.100 -0.1531 -0.1466 -0.2107
 2871TIP3    H132808   1.227   1.110   9.089 -0.5990 -1.0570 -2.4953
 2871TIP3    H232809   1.089   1.050   9.109 -0.7292  0.3129  1.7462
 2872TIP3   OH232810   0.814   5.715   8.326  0.1088  0.3121 -0.2306
 2872TIP3    H132811   0.842   5.639   8.378 -0.8961  0.3056  0.3269
 2872TIP3    H232812   0.728   5.739   8.362 -0.2800  0.7746 -1.4042
 2873TIP3   OH232813   0.593   4.993   9.214 -0.6735  0.6842 -0.3054
 2873TIP3    H132814   0.522   4.974   9.275 -0.6089 -0.2454 -0.4944
 2873TIP3    H232815   0.588   5.087   9.198 -0.6684  0.9394  1.1490
 2874TIP3   OH232816   5.748   5.467   9.475 -0.3662 -0.1305 -0.1164
 2874TIP3    H132817   5.826   5.490   9.525 -1.1206  1.7580  0.2794
 2874TIP3    H232818   5.677   5.470   9.539 -0.8512 -1.3231 -0.5741
 2875TIP3   OH232819   6.951   2.967   7.617  0.1937  0.1151  0.1265
 2875TIP3    H132820   6.985   2.912   7.687  1.6457  1.9028  0.9192
 2875TIP3    H232821   6.857   2.969   7.632 -0.0348 -2.6863 -0.4051
 2876TIP3   OH232822   3.691   5.284   2.145 -0.2787  0.6428 -0.1018
 2876TIP3    H132823   3.728   5.198   2.129 -1.1056  0.0243  1.1430
 2876TIP3    H232824   3.672   5.320   2.058  0.3024 -0.3214 -0.6345
 2877TIP3   OH232825   7.171   3.413   8.475 -0.4798  0.1295  0.1299
 2877TIP3    H132826   7.081   3.418   8.508 -0.1255  2.7320  0.9628
 2877TIP3    H232827   7.194   3.504   8.454  1.2713 -0.7258 -2.0461
 2878TIP3   OH232828   3.285   7.106   2.707  0.5563  0.7775  0.2440
 2878TIP3    H132829   3.200   7.090   2.666  1.0132 -0.7142 -0.1985
 2878TIP3    H232830   3.320   7.018   2.724  2.0888  1.3553  0.2411
 2879TIP3   OH232831   7.251   5.780   6.989 -0.0576  0.3386  0.3450
 2879TIP3    H132832   7.169   5.759   6.945  0.4105  0.0431 -0.3950
 2879TIP3    H232833   7.278   5.864   6.952  0.3776  0.0502 -0.0087
 2880TIP3   OH232834   6.221   5.939   9.084 -0.2322 -0.3202  0.5827
 2880TIP3    H132835   6.292   6.003   9.079 -1.1362  0.6073 -0.7986
 2880TIP3    H232836   6.141   5.991   9.090 -1.1344 -1.2197 -2.3335
 2881TIP3   OH232837   2.384   5.933   0.365 -0.0493 -0.4050 -0.1911
 2881TIP3    H132838   2.459   5.984   0.334 -0.2159 -0.7689 -1.2055
 2881TIP3    H232839   2.383   5.855   0.309 -2.2241  0.4026 -1.3789
 2882TIP3   OH232840   2.333   6.780   7.942 -0.0043 -0.0829  0.3695
 2882TIP3    H132841   2.241   6.766   7.964  0.2567  1.6624  3.1403
 2882TIP3    H232842   2.381   6.728   8.007  0.9706  0.0149 -0.2492
 2883TIP3   OH232843   6.356   5.232   9.463  0.8454 -0.0151  0.6150
 2883TIP3    H132844   6.352   5.152   9.515  1.5022 -0.4554  0.0190
 2883TIP3    H232845   6.393   5.298   9.522 -0.3863  0.0571  1.3331
 2884TIP3   OH232846   7.005   6.859   8.245  0.3554  0.1569  0.3427
 2884TIP3    H132847   6.945   6.864   8.171  0.7456 -0.8974 -0.0753
 2884TIP3    H232848   7.061   6.784   8.225  1.2722  0.6069  1.1184
 2885TIP3   OH232849   2.494   0.495   9.624 -0.1116  0.0241 -0.0115
 2885TIP3    H132850   2.416   0.469   9.575 -0.6855 -2.0914  1.8518
 2885TIP3    H232851   2.566   0.445   9.583  0.6310  2.8667 -2.5065
 2886TIP3   OH232852   1.344   4.582   9.812 -0.5013  0.3963 -0.2482
 2886TIP3    H132853   1.371   4.582   9.720 -0.9074 -0.3019 -0.3721
 2886TIP3    H232854   1.266   4.636   9.814  0.0333  1.1892 -0.1418
 2887TIP3   OH232855   5.081   0.234   9.602  0.1228 -0.4713 -1.1753
 2887TIP3    H132856   4.992   0.240   9.568 -0.6579 -2.9874  0.1959
 2887TIP3    H232857   5.115   0.152   9.567  1.4772 -0.1166 -0.7570
 2888TIP3   OH232858   0.725   4.464   6.713  0.7761  0.2024  0.3240
 2888TIP3    H132859   0.751   4.537   6.657  1.8094  0.9053  1.6496
 2888TIP3    H232860   0.747   4.493   6.802  3.7960 -2.6997  0.7306
 2889TIP3   OH232861   6.840   3.124   1.616  0.0904 -1.0409  0.0504
 2889TIP3    H132862   6.793   3.152   1.694  0.8675 -1.2982  0.6291
 2889TIP3    H232863   6.931   3.149   1.632  0.2388 -0.9351 -0.8556
 2890TIP3   OH232864   4.676   5.035   1.287  0.6327 -0.2921  0.4493
 2890TIP3    H132865   4.668   5.036   1.192  1.5622 -2.5358  0.2803
 2890TIP3    H232866   4.588   5.059   1.319  0.6349  1.7571 -0.9013
 2891TIP3   OH232867   6.869   1.977   8.768  0.0259 -0.7182  0.3569
 2891TIP3    H132868   6.781   1.985   8.733 -0.1759 -0.4143  0.9239
 2891TIP3    H232869   6.923   1.955   8.692 -0.5961 -1.3285  0.0784
 2892TIP3   OH232870   0.204   2.884   0.276  0.0386 -0.7586  0.1972
 2892TIP3    H132871   0.212   2.792   0.303  0.4583 -0.8612 -0.2770
 2892TIP3    H232872   0.176   2.880   0.185  0.6486 -0.4125 -0.0077
 2893TIP3   OH232873   7.192   5.030   2.458  0.1161 -0.4667  0.0062
 2893TIP3    H132874   7.184   5.055   2.366  1.5859  0.6674  0.1574
 2893TIP3    H232875   7.144   4.947   2.464  0.2078 -0.7012 -1.8297
 2894TIP3   OH232876   6.503   1.533   7.353  0.2126 -0.3790  0.4075
 2894TIP3    H132877   6.502   1.514   7.447  1.6947  0.9185  0.7303
 2894TIP3    H232878   6.544   1.456   7.313 -1.0315 -1.2283  0.7133
 2895TIP3   OH232879   6.422   2.608   2.973  0.1780  0.3166 -0.0718
 2895TIP3    H132880   6.405   2.520   2.940  0.2768 -0.3938  1.6784
 2895TIP3    H232881   6.356   2.621   3.042  0.3856  1.4767 -0.0642
 2896TIP3   OH232882   6.048   3.873   1.916 -0.1874 -0.7312 -0.1509
 2896TIP3    H132883   6.105   3.919   1.855  0.2086  0.5667  1.1647
 2896TIP3    H232884   5.960   3.887   1.881  0.0075  0.2266 -0.2812
 2897TIP3   OH232885   3.522   1.747   9.412  0.6040  0.4901  0.2556
 2897TIP3    H132886   3.438   1.779   9.448 -0.2071  0.6584 -1.6772
 2897TIP3    H232887   3.558   1.693   9.482 -2.1375 -1.3106  0.4529
 2898TIP3   OH232888   0.012   6.766   1.643  0.5466  0.3473 -0.7824
 2898TIP3    H132889  -0.016   6.789   1.731 -0.3332  2.6182 -1.5786
 2898TIP3    H232890   0.068   6.689   1.655 -0.8667 -0.4239  1.5399
 2899TIP3   OH232891   6.796   5.851   9.904 -0.5094 -0.8629  0.0416
 2899TIP3    H132892   6.750   5.870   9.822 -1.4641 -0.1136  0.7364
 2899TIP3    H232893   6.769   5.763   9.927  0.7685 -1.5989 -1.0866
 2900TIP3   OH232894   2.776   7.123   2.695  0.7794 -0.4966 -0.0895
 2900TIP3    H132895   2.861   7.151   2.659  1.6119 -0.9080  1.4623
 2900TIP3    H232896   2.732   7.081   2.622  1.3812  0.8086 -1.2660
 2901TIP3   OH232897   4.980   6.115   8.202  0.4522  0.4732 -0.5579
 2901TIP3    H132898   5.052   6.053   8.213  0.0696  0.1171 -0.0334
 2901TIP3    H232899   5.020   6.200   8.220  0.4431  0.1518  1.1032
 2902TIP3   OH232900   6.035   7.230   2.259  0.3384  0.4806  0.1616
 2902TIP3    H132901   5.987   7.301   2.218  0.6383  0.3863 -0.3603
 2902TIP3    H232902   5.973   7.190   2.320 -0.0508  0.7344 -0.0716
 2903TIP3   OH232903   4.690   4.582   0.074 -0.1148 -0.2084  0.4318
 2903TIP3    H132904   4.736   4.508   0.034  0.2683  0.5011 -0.4484
 2903TIP3    H232905   4.747   4.657   0.059 -0.2021  0.1864  1.8572
 2904TIP3   OH232906   3.204   6.013   7.927 -0.6888  0.2195 -0.1495
 2904TIP3    H132907   3.168   5.953   7.993  0.6093 -0.0405  0.3338
 2904TIP3    H232908   3.224   5.956   7.853 -1.1478  0.3497 -0.3780
 2905TIP3   OH232909   3.844   3.548   1.218 -0.7735  0.0774  0.0715
 2905TIP3    H132910   3.887   3.627   1.252 -1.4205  0.7726 -0.6789
 2905TIP3    H232911   3.767   3.581   1.171 -0.2880 -0.8793 -1.4809
 2906TIP3   OH232912   2.365   2.966   7.858  0.2588  0.3364  0.4239
 2906TIP3    H132913   2.270   2.969   7.845  0.1878  0.2044  0.8972
 2906TIP3    H232914   2.398   3.041   7.810 -0.1738  0.8889  0.9804
 2907TIP3   OH232915   6.819   2.552   0.590 -0.3759  0.3584 -0.4301
 2907TIP3    H132916   6.796   2.516   0.504  1.7763 -2.9559  0.2002
 2907TIP3    H232917   6.778   2.492   0.653 -1.0695  2.1452  0.9258
 2908TIP3   OH232918   3.221   7.164   8.680 -0.5452 -0.2411 -0.4116
 2908TIP3    H132919   3.237   7.073   8.705 -0.9049 -0.1202  0.2783
 2908TIP3    H232920   3.248   7.215   8.756 -2.5313  0.0777  0.1421
 2909TIP3   OH232921   6.009   3.946   0.603 -0.1121  0.2719  0.3482
 2909TIP3    H132922   5.928   3.997   0.599  0.0660  0.4922 -2.4341
 2909TIP3    H232923   5.996   3.876   0.539  2.4283  1.2620 -1.4182
 2910TIP3   OH232924   6.251   3.801   1.492 -0.4240  0.0714  0.4328
 2910TIP3    H132925   6.288   3.751   1.564  0.2132  0.2860  0.2564
 2910TIP3    H232926   6.226   3.736   1.427  1.1809  0.0163 -0.1622
 2911TIP3   OH232927   1.894   1.673   9.386  0.5357 -0.4901 -0.6088
 2911TIP3    H132928   1.879   1.688   9.479  0.7763 -0.4084 -0.5815
 2911TIP3    H232929   1.809   1.688   9.345  0.2926 -1.0831 -0.3387
 2912TIP3   OH232930   4.236   5.270   9.743 -0.1341 -0.2746  0.5237
 2912TIP3    H132931   4.165   5.234   9.796  0.1435  0.9692  1.7998
 2912TIP3    H232932   4.195   5.342   9.695 -0.4268 -1.5067 -1.1510
 2913TIP3   OH232933   6.464   3.626   1.182  0.1108 -0.2850 -0.2382
 2913TIP3    H132934   6.397   3.650   1.246  1.5241 -0.9142  1.5777
 2913TIP3    H232935   6.493   3.539   1.209  0.9010 -0.4935 -1.6463
 2914TIP3   OH232936   3.773   5.983   1.672  0.7302 -0.5835  0.4075
 2914TIP3    H132937   3.825   5.924   1.726 -0.7040 -0.6386  1.8054
 2914TIP3    H232938   3.683   5.955   1.686  0.1993  0.3134 -0.9459
 2915TIP3   OH232939   6.323   4.439   7.775 -0.1333 -0.2455 -0.2427
 2915TIP3    H132940   6.279   4.385   7.841  0.2928  0.0386  0.2871
 2915TIP3    H232941   6.258   4.502   7.748  0.3660  1.2224  1.7254
 2916TIP3   OH232942   0.754   4.325   9.838  0.6887  0.3267 -0.6499
 2916TIP3    H132943   0.755   4.229   9.836 -0.2631  0.2796  0.1400
 2916TIP3    H232944   0.694   4.350   9.768 -0.8485  0.2237  0.5531
 2917TIP3   OH232945   5.468   6.088   1.740 -0.1093 -0.5236 -0.4214
 2917TIP3    H132946   5.382   6.058   1.770 -0.1510  0.3675  0.3965
 2917TIP3    H232947   5.482   6.041   1.658 -1.5581 -0.3856 -0.7797
 2918TIP3   OH232948   4.221   7.007   0.237 -0.3662  0.5517  0.6932
 2918TIP3    H132949   4.204   7.056   0.317  0.7052 -0.3522  1.5072
 2918TIP3    H232950   4.209   6.915   0.261  0.7769  0.2068  0.0670
 2919TIP3   OH232951   6.341   6.617   0.405  0.1213 -0.2494 -0.3960
 2919TIP3    H132952   6.379   6.681   0.345  0.8348  1.1967  1.4925
 2919TIP3    H232953   6.353   6.656   0.492 -1.3070 -2.0229  0.6599
 2920TIP3   OH232954   6.380   2.800   2.791 -0.3091  0.5169 -0.0204
 2920TIP3    H132955   6.391   2.737   2.720  0.5833  0.8692 -0.1980
 2920TIP3    H232956   6.375   2.746   2.871  0.2110  0.2104 -0.1934
 2921TIP3   OH232957   4.665   3.781   7.915 -1.0429  0.4388 -1.1049
 2921TIP3    H132958   4.715   3.841   7.861  1.2155 -0.6899 -0.3888
 2921TIP3    H232959   4.704   3.695   7.900 -1.1670 -0.1201  1.2882
 2922TIP3   OH232960   6.018   0.257   7.100  0.9187 -0.1610 -0.4032
 2922TIP3    H132961   5.947   0.250   7.037  0.3880  0.8404  0.0669
 2922TIP3    H232962   6.086   0.306   7.054  1.6688 -1.8056 -1.1344
 2923TIP3   OH232963   3.963   7.065   0.843  0.3077  0.3789  0.2290
 2923TIP3    H132964   3.912   7.146   0.848 -1.3001 -0.3514 -2.3566
 2923TIP3    H232965   4.051   7.093   0.817 -0.4536  1.2903 -1.5383
 2924TIP3   OH232966   1.901   4.901   3.186  0.3724 -0.0484  0.0723
 2924TIP3    H132967   1.938   4.880   3.272 -0.3357 -1.7836 -0.0096
 2924TIP3    H232968   1.952   4.850   3.124  1.3869  1.7771 -0.6899
 2925TIP3   OH232969   4.619   2.829   8.923  0.1416 -0.0782 -0.2551
 2925TIP3    H132970   4.690   2.798   8.866  1.1597  0.8730  0.4534
 2925TIP3    H232971   4.559   2.875   8.864  0.4542 -0.3145 -0.7641
 2926TIP3   OH232972   2.548   1.866   9.922 -0.3709  0.2124  0.5863
 2926TIP3    H132973   2.538   1.850   9.828  0.7079 -0.2014  0.5148
 2926TIP3    H232974   2.491   1.801   9.963 -0.3962 -0.0040  0.2207
 2927TIP3   OH232975   7.266   1.731   9.737  0.1960  0.0511 -0.2015
 2927TIP3    H132976   7.319   1.677   9.795 -0.9495 -2.4832 -1.3622
 2927TIP3    H232977   7.324   1.753   9.665  0.6846  0.4799  0.3063
 2928TIP3   OH232978   5.783   1.439   0.253 -0.0490  0.2369  0.0821
 2928TIP3    H132979   5.781   1.422   0.159  0.6677 -1.2213  0.3051
 2928TIP3    H232980   5.844   1.511   0.263 -0.6920  0.9016 -0.6205
 2929TIP3   OH232981   4.492   7.001   2.380  0.0756  0.0816 -0.0026
 2929TIP3    H132982   4.406   7.030   2.350 -0.1934  0.1961  0.8548
 2929TIP3    H232983   4.520   6.937   2.315 -0.3126  0.6152 -0.7075
 2930TIP3   OH232984   1.424   6.070   8.831  0.1572 -0.0006  0.3441
 2930TIP3    H132985   1.455   5.988   8.793 -0.4425 -1.1180  2.1415
 2930TIP3    H232986   1.504   6.120   8.848  0.5768 -0.4485 -0.2731
 2931TIP3   OH232987   1.255   2.449   8.475 -0.0611 -0.3947 -0.4265
 2931TIP3    H132988   1.306   2.375   8.442 -0.6310  0.2861 -3.0698
 2931TIP3    H232989   1.164   2.417   8.474 -0.1093 -0.3127  0.4413
 2932TIP3   OH232990   6.008   0.360   1.136 -0.2005  0.4597 -0.0079
 2932TIP3    H132991   5.938   0.420   1.161 -0.7636 -0.6781  1.3152
 2932TIP3    H232992   5.976   0.318   1.055 -0.2912  1.1394 -0.3273
 2933TIP3   OH232993   6.345   2.592   0.221 -0.3896 -0.7497  0.3662
 2933TIP3    H132994   6.317   2.651   0.151 -0.8786 -0.6254  0.6607
 2933TIP3    H232995   6.421   2.636   0.261 -0.1429 -0.7959 -0.0451
 2934TIP3   OH232996   1.705   4.899   9.629  0.4100 -0.4151 -0.4789
 2934TIP3    H132997   1.694   4.881   9.722 -0.7702  0.5320 -0.4049
 2934TIP3    H232998   1.796   4.925   9.620  0.0414  1.5304  0.8161
 2935TIP3   OH232999   4.109   5.583   0.845  0.2388  0.3239  0.3208
 2935TIP3    H133000   4.052   5.628   0.782  0.1134  0.0420  0.2302
 2935TIP3    H233001   4.191   5.632   0.842  0.2779  0.2318 -0.1622
 2936TIP3   OH233002   7.246   6.779   9.158  0.1586  1.2707 -0.4702
 2936TIP3    H133003   7.340   6.786   9.143 -0.0685  1.2104 -2.1878
 2936TIP3    H233004   7.207   6.802   9.074 -1.2418 -2.5058 -1.0537
 2937TIP3   OH233005   4.625   5.496   6.874  0.0859  0.0725  0.4168
 2937TIP3    H133006   4.701   5.445   6.848  0.7076 -0.2164  2.5674
 2937TIP3    H233007   4.654   5.587   6.871  0.0906  0.0552 -0.0543
 2938TIP3   OH233008   5.865   0.041   7.702  0.0285  0.1232  0.3106
 2938TIP3    H133009   5.812  -0.038   7.712 -0.3812  0.4485  0.7765
 2938TIP3    H233010   5.919   0.024   7.625 -1.7959  0.3761 -1.0941
 2939TIP3   OH233011   2.628   1.443   8.754  0.0526  0.1642  0.0331
 2939TIP3    H133012   2.546   1.485   8.727  0.5352  0.5706 -0.8627
 2939TIP3    H233013   2.694   1.511   8.743  0.5666 -0.2737  0.3879
 2940TIP3   OH233014   1.985   2.165   9.658 -0.3222  0.4612 -0.6208
 2940TIP3    H133015   2.009   2.078   9.625  1.6568  1.2470 -1.4120
 2940TIP3    H233016   2.050   2.224   9.619 -0.4784  2.0456  1.3534
 2941TIP3   OH233017   1.981   2.623   1.892 -0.1595 -0.4319  0.0247
 2941TIP3    H133018   1.988   2.718   1.895  2.1464 -0.5445  3.0780
 2941TIP3    H233019   2.072   2.592   1.888 -0.8600 -2.5768 -1.6039
 2942TIP3   OH233020   3.736   5.306   9.246 -0.0729  0.6649  0.3604
 2942TIP3    H133021   3.686   5.349   9.177 -1.2779  1.3503  1.6017
 2942TIP3    H233022   3.828   5.323   9.224 -0.4238  0.6972 -1.1539
 2943TIP3   OH233023   3.697   5.302   2.800  0.0667  0.4485  0.2350
 2943TIP3    H133024   3.745   5.225   2.830 -1.2660  0.6561  3.3740
 2943TIP3    H233025   3.609   5.290   2.834 -0.6900  2.4876 -0.8238
 2944TIP3   OH233026   1.790   6.865   1.686  0.2066  0.0268  0.1674
 2944TIP3    H133027   1.744   6.825   1.759  0.4332 -0.0024  0.2949
 2944TIP3    H233028   1.776   6.959   1.697  0.6742  0.0589  0.5466
 2945TIP3   OH233029   1.652   1.021   0.754  0.2004 -0.4307 -0.1361
 2945TIP3    H133030   1.666   0.991   0.664  1.7683 -1.5404  0.4304
 2945TIP3    H233031   1.738   1.012   0.796 -0.3856  0.4969  1.3589
 2946TIP3   OH233032   5.039   0.629   6.785  0.0308 -0.6286  0.2581
 2946TIP3    H133033   5.044   0.656   6.694  0.2431 -0.7264  0.2399
 2946TIP3    H233034   5.101   0.686   6.831  2.0521 -2.4102 -0.1038
 2947TIP3   OH233035   1.196   1.544   1.527 -0.4231 -0.3340 -0.2456
 2947TIP3    H133036   1.149   1.468   1.560 -2.0480 -0.2322 -2.1560
 2947TIP3    H233037   1.144   1.619   1.556 -0.4790 -0.1202 -0.8945
 2948TIP3   OH233038   1.852   0.492   7.206  0.3959  0.4847 -0.1865
 2948TIP3    H133039   1.853   0.585   7.185 -1.4775  0.7215  0.5712
 2948TIP3    H233040   1.816   0.488   7.295 -1.5478 -1.0668 -0.9769
 2949TIP3   OH233041   6.951   4.467   0.790 -0.3682 -0.2513 -0.0677
 2949TIP3    H133042   6.968   4.383   0.749  2.7395 -0.0735  0.6149
 2949TIP3    H233043   6.896   4.446   0.866 -1.1056 -1.3974 -0.9049
 2950TIP3   OH233044   5.917   5.442   8.957  0.1264 -0.3462 -0.1108
 2950TIP3    H133045   5.861   5.520   8.951  1.0679  0.2558 -1.9124
 2950TIP3    H233046   5.926   5.427   9.051 -0.1253  1.7248  0.3093
 2951TIP3   OH233047   4.078   6.330   9.664 -0.2445 -0.2897 -0.1195
 2951TIP3    H133048   4.155   6.282   9.695  0.1973 -0.0229 -0.7778
 2951TIP3    H233049   4.110   6.382   9.590 -1.0892 -0.2823 -0.4963
 2952TIP3   OH233050   2.507   5.908   0.971 -0.1426 -0.1586  0.2067
 2952TIP3    H133051   2.553   5.845   1.026  2.1535 -0.1126 -1.5161
 2952TIP3    H233052   2.500   5.987   1.026  0.0986 -0.7925  1.1764
 2953TIP3   OH233053   6.949   6.262   1.800 -0.4610  0.3498 -0.3144
 2953TIP3    H133054   7.039   6.287   1.778 -0.3313  0.4991  0.3791
 2953TIP3    H233055   6.936   6.179   1.754  0.1537  0.1479 -0.1385
 2954TIP3   OH233056   4.869   5.191   2.286  0.0747  0.7109 -0.1493
 2954TIP3    H133057   4.852   5.236   2.369  1.5342  0.1659  0.4852
 2954TIP3    H233058   4.800   5.222   2.227 -1.4595  0.5422  1.4643
 2955TIP3   OH233059   0.617   2.003   2.687  0.2149 -0.0883 -0.4783
 2955TIP3    H133060   0.529   2.015   2.722  1.0249  0.0936  1.6708
 2955TIP3    H233061   0.639   2.087   2.647 -1.3719 -0.8291 -3.1222
 2956TIP3   OH233062   4.833   6.817   7.796 -0.2652  0.5538  0.2020
 2956TIP3    H133063   4.785   6.833   7.714 -1.8079 -1.5594  0.6092
 2956TIP3    H233064   4.921   6.793   7.767 -1.1125 -1.4162 -1.0159
 2957TIP3   OH233065   1.611   4.990   1.534  0.4642  0.1779  0.0383
 2957TIP3    H133066   1.622   4.960   1.444 -0.5114  0.4992 -0.2044
 2957TIP3    H233067   1.662   4.928   1.587 -1.0361 -1.5995 -0.4869
 2958TIP3   OH233068   0.632   1.987   9.308 -0.4694 -0.0805  0.0408
 2958TIP3    H133069   0.697   2.053   9.286  0.9937 -1.6789 -0.6801
 2958TIP3    H233070   0.556   2.037   9.339 -0.1427  1.9968 -2.2212
 2959TIP3   OH233071   5.508   4.890   9.375  0.1008  0.2414 -0.3913
 2959TIP3    H133072   5.478   4.957   9.313  0.5775  0.9571  0.1268
 2959TIP3    H233073   5.563   4.832   9.323 -1.4368 -0.5915 -1.1631
 2960TIP3   OH233074   3.410   3.461   1.103  0.4562  0.2666 -0.2913
 2960TIP3    H133075   3.356   3.493   1.031  1.4708 -0.4923 -1.4282
 2960TIP3    H233076   3.348   3.425   1.166 -0.4176  0.4321 -1.0410
 2961TIP3   OH233077   1.491   1.099   9.495  0.8903  0.1152  0.1198
 2961TIP3    H133078   1.424   1.032   9.505 -2.0738  2.7775 -0.1284
 2961TIP3    H233079   1.545   1.070   9.422  0.6793 -2.6190  0.9624
 2962TIP3   OH233080   3.678   1.673   0.300 -0.0121 -0.3381  0.5501
 2962TIP3    H133081   3.643   1.593   0.338  1.5280 -1.2333  0.1564
 2962TIP3    H233082   3.741   1.705   0.365  2.1977 -1.5600 -0.8593
 2963TIP3   OH233083   3.990   6.730   8.350  0.8601 -0.3498  0.2579
 2963TIP3    H133084   4.035   6.762   8.272 -1.1796  3.2621  0.3525
 2963TIP3    H233085   3.909   6.691   8.318  0.4922  0.2225  0.4656
 2964TIP3   OH233086   0.690   4.730   2.665  0.3588  0.3790 -0.0064
 2964TIP3    H133087   0.656   4.645   2.638  0.0784 -0.2864  2.2126
 2964TIP3    H233088   0.647   4.793   2.608 -0.2734 -0.8851 -0.9626
 2965TIP3   OH233089   6.715   4.321   9.235 -0.2599  0.3905  0.7115
 2965TIP3    H133090   6.714   4.400   9.181  0.5343 -0.2672 -0.3205
 2965TIP3    H233091   6.629   4.319   9.277 -1.4174  0.2774 -1.5368
 2966TIP3   OH233092   3.438   2.168   9.850 -0.1584 -0.2925 -0.8529
 2966TIP3    H133093   3.454   2.225   9.775  0.3165  0.2578 -0.3443
 2966TIP3    H233094   3.407   2.227   9.919  1.4785 -0.4186  0.0558
 2967TIP3   OH233095   6.425   3.421   8.438 -0.2629 -0.3518 -0.2768
 2967TIP3    H133096   6.340   3.380   8.458  0.7208 -1.6303  1.5579
 2967TIP3    H233097   6.487   3.348   8.441  0.9959  0.6604 -1.0306
 2968TIP3   OH233098   4.221   0.621   1.065 -0.0661 -0.7120  0.1047
 2968TIP3    H133099   4.289   0.564   1.103  2.8221  2.4329  0.1581
 2968TIP3    H233100   4.193   0.676   1.138 -0.9507 -0.4237 -0.4506
 2969TIP3   OH233101   6.995   6.648   0.365  0.2434  0.1324  0.3079
 2969TIP3    H133102   7.055   6.706   0.319 -1.2080 -0.7530 -3.0414
 2969TIP3    H233103   7.006   6.669   0.458  1.1569  4.3651 -0.5803
 2970TIP3   OH233104   1.972   0.938   1.768  0.3844  0.1233  0.2528
 2970TIP3    H133105   2.060   0.959   1.737  0.4964 -0.0373  0.4682
 2970TIP3    H233106   1.936   0.881   1.700  0.7543 -0.5089  0.5750
 2971TIP3   OH233107   3.240   3.259   9.499  0.0896 -0.1411 -0.0946
 2971TIP3    H133108   3.256   3.278   9.406  0.1460  1.6067  0.2492
 2971TIP3    H233109   3.217   3.343   9.537  1.3543 -0.5899  1.7774
 2972TIP3   OH233110   2.740   5.186   7.730  0.5446 -0.1522 -0.2171
 2972TIP3    H133111   2.718   5.239   7.653 -0.5428 -0.2546  0.0182
 2972TIP3    H233112   2.822   5.224   7.762  0.9447 -0.0323 -1.3504
 2973TIP3   OH233113   6.889   4.296   7.919  0.4901 -0.2445 -0.2364
 2973TIP3    H133114   6.887   4.338   7.833 -1.7586  0.0005 -0.1292
 2973TIP3    H233115   6.837   4.217   7.908 -0.6812  0.2881  1.0957
 2974TIP3   OH233116   2.078   3.093   8.216 -0.4789 -0.5925  0.0626
 2974TIP3    H133117   1.991   3.133   8.212 -1.3470 -2.4141 -0.4709
 2974TIP3    H233118   2.078   3.046   8.299  0.0759 -0.4445  0.1477
 2975TIP3   OH233119   1.195   2.682   7.157 -0.1610 -0.5932 -0.0568
 2975TIP3    H133120   1.152   2.767   7.153  0.5362 -0.2457 -0.3495
 2975TIP3    H233121   1.275   2.693   7.105  0.5875 -1.0367  0.9683
 2976TIP3   OH233122   0.123   2.113   1.600 -0.4243 -0.0950  0.1583
 2976TIP3    H133123   0.169   2.072   1.673 -0.8567  0.3047  0.6685
 2976TIP3    H233124   0.153   2.066   1.523 -0.7033 -1.1818  0.6883
 2977TIP3   OH233125   5.663   5.687   0.548 -0.3583 -0.1441 -0.2068
 2977TIP3    H133126   5.747   5.662   0.509 -0.7321 -0.0807 -1.0716
 2977TIP3    H233127   5.674   5.779   0.571 -0.6535  0.2639 -1.6276
 2978TIP3   OH233128   0.816   0.138   9.495  0.0420 -0.0743  0.5775
 2978TIP3    H133129   0.867   0.126   9.415 -0.4033  0.6241  0.1786
 2978TIP3    H233130   0.782   0.050   9.514 -0.2333 -0.1687 -0.2752
 2979TIP3   OH233131   2.807   6.219   9.430  0.2223  0.1773 -0.0082
 2979TIP3    H133132   2.725   6.224   9.479  0.7722 -0.8651  1.0485
 2979TIP3    H233133   2.781   6.183   9.344 -0.5970  1.0940 -0.1676
 2980TIP3   OH233134   1.467   3.236   8.102  0.0412 -0.2946 -0.6333
 2980TIP3    H133135   1.472   3.146   8.070  3.2634 -1.2969  2.0388
 2980TIP3    H233136   1.465   3.226   8.198  2.9452  2.3867 -0.1397
 2981TIP3   OH233137   0.862   6.326   9.541  0.3987 -0.1302 -0.0587
 2981TIP3    H133138   0.817   6.354   9.461 -0.5084 -1.4928 -0.0605
 2981TIP3    H233139   0.801   6.266   9.583  1.2162 -0.0914  1.2397
 2982TIP3   OH233140   1.900   2.465   1.188 -0.4694  0.3698  0.1159
 2982TIP3    H133141   1.902   2.369   1.183  0.1805  0.4105 -0.7295
 2982TIP3    H233142   1.983   2.488   1.230  0.2448  0.6221 -1.3633
 2983TIP3   OH233143   3.480   2.663   8.048 -0.5141 -0.3659 -0.3188
 2983TIP3    H133144   3.543   2.644   8.117 -1.8796 -1.3489  0.7190
 2983TIP3    H233145   3.476   2.758   8.044 -0.3848 -0.2923  0.9452
 2984TIP3   OH233146   6.393   2.614   2.601 -0.1799 -0.0696  0.1594
 2984TIP3    H133147   6.454   2.542   2.585 -2.2798 -1.4970 -2.2163
 2984TIP3    H233148   6.307   2.572   2.611 -0.9069  1.8498  3.2940
 2985TIP3   OH233149   5.600   3.340   8.796  0.1431  1.6630 -0.2191
 2985TIP3    H133150   5.691   3.338   8.825  0.0451 -1.3520  0.1624
 2985TIP3    H233151   5.550   3.307   8.871 -1.0717  1.5331 -1.0635
 2986TIP3   OH233152   0.252   4.732   7.509  0.0803  0.3689  0.4463
 2986TIP3    H133153   0.297   4.790   7.448  0.8948  1.0508  1.6562
 2986TIP3    H233154   0.201   4.673   7.453  1.3010  0.5444 -0.9089
 2987TIP3   OH233155   0.233   1.425   7.865  0.2337  0.5915  0.5048
 2987TIP3    H133156   0.141   1.441   7.844 -0.4140 -1.9352  1.0104
 2987TIP3    H233157   0.231   1.350   7.924  2.5839  1.1526  1.3972
 2988TIP3   OH233158   1.750   5.901   1.614 -0.5633 -0.0848 -0.0083
 2988TIP3    H133159   1.702   5.967   1.565  0.6856  0.3307 -0.7011
 2988TIP3    H233160   1.729   5.919   1.705 -0.9630  0.6851 -0.2424
 2989TIP3   OH233161   4.045   6.526   9.038 -0.3594 -0.3217  0.4416
 2989TIP3    H133162   4.032   6.438   9.003 -0.3960  0.4383 -1.5875
 2989TIP3    H233163   3.988   6.582   8.986  1.0651  1.1745  0.3918
 2990TIP3   OH233164   4.435   5.725   9.822 -0.2928  0.4058  0.2746
 2990TIP3    H133165   4.509   5.741   9.881 -0.2950  3.2597 -0.3398
 2990TIP3    H233166   4.471   5.742   9.735 -1.1719 -0.2039 -0.2111
 2991TIP3   OH233167   1.513   0.445   0.172 -0.1856  0.3765 -0.5890
 2991TIP3    H133168   1.460   0.496   0.111  0.0883  2.5213  0.8602
 2991TIP3    H233169   1.453   0.379   0.207 -1.0156  0.7291 -1.3123
 2992TIP3   OH233170   0.634   2.305   1.320 -0.1416 -0.3735 -0.1354
 2992TIP3    H133171   0.656   2.397   1.333  0.5197 -0.3168 -1.5237
 2992TIP3    H233172   0.681   2.279   1.241  1.6587 -2.5917  1.5340
 2993TIP3   OH233173   0.179   1.615   8.506 -0.0587  0.1083  0.4310
 2993TIP3    H133174   0.120   1.686   8.533 -1.7769 -0.4429 -1.6397
 2993TIP3    H233175   0.207   1.576   8.588 -2.7100  0.3211  1.5487
 2994TIP3   OH233176   3.085   0.518   9.785  0.1770 -0.0689 -0.0487
 2994TIP3    H133177   3.156   0.541   9.845  1.5045 -1.9171 -0.8056
 2994TIP3    H233178   3.024   0.467   9.838  0.7863 -0.7520  0.0065
 2995TIP3   OH233179   0.967   1.846   9.204  0.3382 -0.5494  0.4897
 2995TIP3    H133180   0.978   1.938   9.181  1.1489 -0.0994  2.4109
 2995TIP3    H233181   0.950   1.802   9.121 -1.8094  1.5470 -0.2797
 2996TIP3   OH233182   1.084   6.658   0.494  0.2013  0.0075 -1.0017
 2996TIP3    H133183   1.159   6.663   0.554 -1.1862 -1.0473  0.9199
 2996TIP3    H233184   1.036   6.581   0.522 -2.4768  1.5347 -1.1247
 2997TIP3   OH233185   3.605   3.703   8.129 -0.2330 -0.6328  0.0220
 2997TIP3    H133186   3.585   3.711   8.222 -2.0044  1.9162 -0.4579
 2997TIP3    H233187   3.699   3.717   8.124 -0.5106  2.6378  1.2716
 2998TIP3   OH233188   2.765   4.205   8.815  0.0807 -0.1921  0.9055
 2998TIP3    H133189   2.817   4.135   8.777 -0.0986 -0.5130  1.2338
 2998TIP3    H233190   2.687   4.160   8.849 -0.3407  0.2564  0.5481
 2999TIP3   OH233191   3.198   3.520   1.825  0.2322 -0.1316 -0.0226
 2999TIP3    H133192   3.268   3.475   1.778  2.1507  0.9972  1.5872
 2999TIP3    H233193   3.186   3.602   1.777 -0.1915 -0.4244 -0.4324
 3000TIP3   OH233194   0.387   0.487   9.757  0.1921  0.1873  0.5074
 3000TIP3    H133195   0.480   0.463   9.758  0.8114  2.3997  1.8136
 3000TIP3    H233196   0.384   0.571   9.713 -1.2153  0.1844  0.5356
 3001TIP3   OH233197   6.009   6.073   8.172  0.5470  0.3317 -0.1676
 3001TIP3    H133198   5.997   6.168   8.166 -2.8159  0.0030 -0.3746
 3001TIP3    H233199   5.923   6.036   8.151  2.2005 -2.8965 -2.1662
 3002TIP3   OH233200   2.910   3.476   9.980 -0.1355  0.2102 -0.0042
 3002TIP3    H133201   2.899   3.494  10.073  1.4079  0.6679  0.1219
 3002TIP3    H233202   2.840   3.414   9.959 -1.6030  1.4311  1.0387
 3003TIP3   OH233203   2.861   5.858   6.800  0.6459  0.3314  0.1075
 3003TIP3    H133204   2.893   5.770   6.782  0.2957  0.3829 -0.8046
 3003TIP3    H233205   2.923   5.916   6.757 -1.0790  0.4090 -2.5058
 3004TIP3   OH233206   0.671   2.593   9.613  0.3695  0.1158  0.3347
 3004TIP3    H133207   0.686   2.684   9.588 -0.9446  0.3962  0.5224
 3004TIP3    H233208   0.694   2.543   9.535  1.4333  0.5636  0.3385
 3005TIP3   OH233209   5.899   1.419   7.965 -0.2622 -0.0942  0.7030
 3005TIP3    H133210   5.817   1.425   7.916 -0.5890 -0.1528  1.2295
 3005TIP3    H233211   5.872   1.391   8.053  0.1435  1.4194  1.3420
 3006TIP3   OH233212   6.967   0.225   2.481  0.0562  0.0025  0.2642
 3006TIP3    H133213   7.001   0.298   2.532 -0.4326  0.5212 -0.1393
 3006TIP3    H233214   6.942   0.263   2.397 -1.6836 -0.2943  0.5955
 3007TIP3   OH233215   0.839   5.164   2.504  0.3291  0.2795  0.4190
 3007TIP3    H133216   0.780   5.234   2.533 -1.8261 -1.9802  1.8781
 3007TIP3    H233217   0.808   5.143   2.416 -1.7150 -1.3859  1.4375
 3008TIP3   OH233218   3.761   6.926   3.085 -0.2046 -0.3030  0.2007
 3008TIP3    H133219   3.695   6.983   3.045  0.5243  0.1422 -0.4053
 3008TIP3    H233220   3.841   6.979   3.084  0.7083 -1.6155 -1.1687
 3009TIP3   OH233221   4.643   5.820   2.336 -0.1036 -0.0567  0.3833
 3009TIP3    H133222   4.632   5.873   2.257  2.0240  0.6340  0.4997
 3009TIP3    H233223   4.656   5.731   2.303  2.6120  0.4833 -0.2506
 3010TIP3   OH233224   4.303   0.066   7.535 -0.9832  0.0312 -0.1862
 3010TIP3    H133225   4.219   0.110   7.544 -0.1865  1.5287  0.4150
 3010TIP3    H233226   4.350   0.117   7.468 -0.0807  0.0406  0.4333
 3011TIP3   OH233227   0.109   6.925   0.413 -0.1899  0.3041 -0.1363
 3011TIP3    H133228   0.102   6.994   0.478  0.3178 -1.0661  1.4456
 3011TIP3    H233229   0.075   6.847   0.456  0.6588 -0.7728 -1.3102
 3012TIP3   OH233230   4.950   1.447   9.026  0.0759  0.1767 -0.2332
 3012TIP3    H133231   4.864   1.405   9.026  0.2039 -0.0920  0.2280
 3012TIP3    H233232   4.937   1.528   8.977 -0.0258 -0.7128 -1.7297
 3013TIP3   OH233233   3.234   1.602   9.132  0.4694 -0.0742 -0.3938
 3013TIP3    H133234   3.215   1.681   9.081 -0.3906 -0.8910 -1.3938
 3013TIP3    H233235   3.240   1.632   9.222  1.7024  1.3781 -0.8996
 3014TIP3   OH233236   3.662   5.086   6.471 -0.5104  0.6593  0.6155
 3014TIP3    H133237   3.699   5.174   6.473  0.2365  0.3518  0.7877
 3014TIP3    H233238   3.610   5.081   6.552 -1.2268  1.2129  0.1989
 3015TIP3   OH233239   4.314   3.382   1.685 -0.3867 -0.0157  0.0443
 3015TIP3    H133240   4.347   3.396   1.773 -1.4510  0.8639  0.3204
 3015TIP3    H233241   4.316   3.287   1.673  0.3771 -0.0971  0.7648
 3016TIP3   OH233242   3.362   1.012   1.581  0.3207  0.6257 -0.1487
 3016TIP3    H133243   3.363   1.107   1.592  1.9157  0.7034 -0.8250
 3016TIP3    H233244   3.325   0.998   1.494 -1.2191  0.5371  0.4905
 3017TIP3   OH233245   1.139   1.274   7.798 -0.0510  0.6774 -0.2276
 3017TIP3    H133246   1.111   1.186   7.773  1.8665  0.4019 -1.5771
 3017TIP3    H233247   1.090   1.332   7.739 -0.3450  0.4514 -0.2117
 3018TIP3   OH233248   2.134   5.905   2.145  0.2428 -0.5346 -0.0048
 3018TIP3    H133249   2.207   5.849   2.173  0.4430 -0.3976 -0.2541
 3018TIP3    H233250   2.062   5.880   2.203  0.0829 -1.6639 -0.6636
 3019TIP3   OH233251   3.508   6.739   9.308  0.3588 -0.7088  0.0666
 3019TIP3    H133252   3.597   6.746   9.273  1.6195  0.4317  3.1708
 3019TIP3    H233253   3.466   6.671   9.255  1.6620  1.4051 -4.1316
 3020TIP3   OH233254   5.851   4.773   9.441 -0.1366 -0.0142 -0.1787
 3020TIP3    H133255   5.920   4.710   9.420  0.6854  1.2603 -1.5575
 3020TIP3    H233256   5.773   4.736   9.401  0.2086 -0.4417 -0.4763
 3021TIP3   OH233257   3.718   5.968   8.737 -0.0712  0.3478 -0.4028
 3021TIP3    H133258   3.723   5.964   8.642  2.1934  2.0992 -0.4571
 3021TIP3    H233259   3.756   5.885   8.766  0.8236  0.5026 -1.0685
 3022TIP3   OH233260   1.861   0.860   0.096 -0.4237 -0.1159  0.5127
 3022TIP3    H133261   1.780   0.814   0.074 -0.7480 -0.2982  1.9758
 3022TIP3    H233262   1.855   0.943   0.049  0.7423 -1.8944 -3.2203
 3023TIP3   OH233263   1.672   1.155   0.342  0.5072  0.0301 -0.2773
 3023TIP3    H133264   1.681   1.061   0.331 -1.1024 -0.0427 -1.2519
 3023TIP3    H233265   1.640   1.166   0.432 -0.2425 -0.4442 -0.4759
 3024TIP3   OH233266   6.556   1.750   7.963  0.0330  0.1107  0.8565
 3024TIP3    H133267   6.596   1.670   7.997  0.7074 -1.4198 -3.0502
 3024TIP3    H233268   6.631   1.804   7.938 -0.4185  2.0831  3.3535
 3025TIP3   OH233269   2.962   3.571   8.447 -0.0429  0.1172  0.0139
 3025TIP3    H133270   2.886   3.544   8.499  1.4701  0.3073  2.5225
 3025TIP3    H233271   2.969   3.665   8.462  0.2824  0.2284 -0.7750
 3026TIP3   OH233272   3.926   5.164   0.370 -0.3813  0.1318 -0.1256
 3026TIP3    H133273   3.859   5.187   0.435  0.2783  1.7282  0.0378
 3026TIP3    H233274   3.979   5.243   0.362  0.4895 -0.5620 -1.4797
 3027TIP3   OH233275   4.143   1.906   0.960 -0.2612  0.3136  0.3549
 3027TIP3    H133276   4.067   1.931   0.907  0.5601  1.6556 -0.2152
 3027TIP3    H233277   4.205   1.869   0.897 -0.2127 -0.2751  0.7405
 3028TIP3   OH233278   6.109   6.868   1.180  0.2304 -0.1525 -0.5631
 3028TIP3    H133279   6.065   6.896   1.260 -1.6669  0.1763 -1.6566
 3028TIP3    H233280   6.188   6.824   1.210 -0.3252  0.1329  1.4699
 3029TIP3   OH233281   5.857   0.379   8.906  0.2036 -0.1943 -0.4248
 3029TIP3    H133282   5.784   0.322   8.930  0.3169  0.9905  3.5052
 3029TIP3    H233283   5.930   0.348   8.960  1.4908  1.0081 -1.4121
 3030TIP3   OH233284   1.272   0.562   8.875  0.2417  0.3467  0.1099
 3030TIP3    H133285   1.256   0.508   8.797 -1.4966  0.3130  0.4580
 3030TIP3    H233286   1.366   0.579   8.873  0.1990  0.6528 -2.2204
 3031TIP3   OH233287   1.518   2.425   1.165  0.3644 -0.2288  0.6998
 3031TIP3    H133288   1.596   2.371   1.176  1.4817  1.0897 -0.2554
 3031TIP3    H233289   1.497   2.419   1.072 -0.7930 -0.7084  0.9838
 3032TIP3   OH233290   1.472   4.021   8.699 -0.2830 -0.0803 -0.0625
 3032TIP3    H133291   1.418   3.943   8.688 -0.2870  0.1197 -1.7103
 3032TIP3    H233292   1.493   4.049   8.609  1.3280  0.6886  0.5073
 3033TIP3   OH233293   1.533   5.408   0.003  0.3060 -0.6289  0.1502
 3033TIP3    H133294   1.614   5.433   0.048  0.7894  0.3090 -1.1605
 3033TIP3    H233295   1.543   5.445  -0.085 -2.0198  0.4746  0.2786
 3034TIP3   OH233296   3.829   0.147   2.343 -0.2047 -0.2448 -0.1134
 3034TIP3    H133297   3.803   0.129   2.434 -0.2844  0.2710 -0.0316
 3034TIP3    H233298   3.842   0.242   2.340 -0.8749 -0.1656 -0.8137
 3035TIP3   OH233299   3.153   0.694   2.885 -0.2346 -0.0512 -0.1819
 3035TIP3    H133300   3.132   0.771   2.938 -1.7416 -0.5961  0.0729
 3035TIP3    H233301   3.140   0.722   2.795 -3.6501 -0.6903 -0.0234
 3036TIP3   OH233302   0.674   4.371   7.942 -0.6599 -0.2780  0.2513
 3036TIP3    H133303   0.700   4.463   7.938 -0.0127 -0.4957 -1.4749
 3036TIP3    H233304   0.591   4.371   7.989 -0.9786  1.2665 -0.2745
 3037TIP3   OH233305   6.093   4.262   0.787  0.1560 -0.1812  0.0594
 3037TIP3    H133306   6.087   4.357   0.778 -2.2656 -0.1831  0.8296
 3037TIP3    H233307   6.042   4.228   0.713  0.2616 -0.8560  0.2907
 3038TIP3   OH233308   2.175   3.982   8.966  0.6841  0.1026  0.1112
 3038TIP3    H133309   2.187   4.064   9.014 -0.0297  0.4854 -0.3439
 3038TIP3    H233310   2.166   4.009   8.874  3.5180 -0.7041 -0.5258
 3039TIP3   OH233311   2.717   4.898   0.136  0.1760 -0.0130  0.6755
 3039TIP3    H133312   2.656   4.879   0.207  1.1056 -2.7008  0.8577
 3039TIP3    H233313   2.782   4.956   0.175 -0.7346  0.6560  1.2397
 3040TIP3   OH233314   2.102   3.480   7.865 -0.5277  0.0439  0.1943
 3040TIP3    H133315   2.096   3.455   7.773 -1.6429  1.8662 -0.2728
 3040TIP3    H233316   2.195   3.496   7.879 -0.5353  1.4313 -1.1168
 3041TIP3   OH233317   1.321   4.112   1.211  0.3348  0.0177 -0.8659
 3041TIP3    H133318   1.277   4.027   1.209  0.1428  0.0074  1.4020
 3041TIP3    H233319   1.256   4.171   1.249  1.1238  0.7489 -0.6412
 3042TIP3   OH233320   1.326   3.502   1.620  0.4520  0.2589 -0.5335
 3042TIP3    H133321   1.243   3.455   1.630  0.6106 -0.1590 -1.1115
 3042TIP3    H233322   1.306   3.592   1.645 -0.6644  0.6051 -2.4779
 3043TIP3   OH233323   6.441   4.220   1.205 -0.0583  0.1558  0.2479
 3043TIP3    H133324   6.406   4.143   1.251 -1.3063  0.8359  0.4814
 3043TIP3    H233325   6.385   4.229   1.128  0.6508  0.3215 -0.2578
 3044TIP3   OH233326   4.955   3.636   9.823 -0.0616 -0.1997  0.4784
 3044TIP3    H133327   5.050   3.647   9.814  0.2040 -1.3789  1.6848
 3044TIP3    H233328   4.919   3.679   9.745  1.5115 -0.7093 -0.5642
 3045TIP3   OH233329   4.797   3.927   1.714  0.2758  0.4706 -1.1837
 3045TIP3    H133330   4.884   3.966   1.702  0.8606 -0.0523  0.8901
 3045TIP3    H233331   4.771   3.955   1.803 -1.2299 -0.2313 -1.3751
 3046TIP3   OH233332   6.295   2.499   0.492 -0.0998 -0.3262 -0.1744
 3046TIP3    H133333   6.317   2.509   0.400 -1.3183 -1.7768 -0.6706
 3046TIP3    H233334   6.352   2.428   0.523  1.0520  0.8625  0.4886
 3047TIP3   OH233335   6.384   4.291   8.356 -0.0846 -0.3614 -0.0249
 3047TIP3    H133336   6.404   4.323   8.444 -3.4344  1.3604  0.2849
 3047TIP3    H233337   6.365   4.370   8.305 -3.4497 -1.4694 -0.7334
 3048TIP3   OH233338   0.765   0.213   2.549 -0.1221  0.5731  0.5056
 3048TIP3    H133339   0.856   0.241   2.542 -1.5113  5.9380 -0.2420
 3048TIP3    H233340   0.750   0.203   2.642  1.1897 -0.5067  0.6345
 3049TIP3   OH233341   2.625   1.477   0.406 -0.3098  0.2238  0.0500
 3049TIP3    H133342   2.666   1.463   0.492  1.2088  1.8850 -0.3400
 3049TIP3    H233343   2.531   1.471   0.423 -0.0307 -0.1118  1.6952
 3050TIP3   OH233344   5.688   3.653   8.708 -0.4368  0.1214 -0.4267
 3050TIP3    H133345   5.779   3.623   8.711 -0.5229 -0.1300 -0.2932
 3050TIP3    H233346   5.676   3.686   8.618 -0.3234 -0.1951 -0.5592
 3051TIP3   OH233347   2.361   6.306   1.912  0.1729 -0.3352  0.2155
 3051TIP3    H133348   2.441   6.326   1.863  0.4283 -1.9789 -0.0941
 3051TIP3    H233349   2.368   6.358   1.992  1.5634 -0.4849  0.2082
 3052TIP3   OH233350   3.983   5.354   8.658 -0.2021  0.0158 -0.6195
 3052TIP3    H133351   3.972   5.285   8.592 -0.1964  1.0068 -1.6799
 3052TIP3    H233352   4.058   5.405   8.628  0.8788 -0.4896  1.0489
 3053TIP3   OH233353   7.090   5.714   7.227 -0.3841  1.0265  0.2210
 3053TIP3    H133354   7.107   5.722   7.133  2.1063 -1.1198  0.3778
 3053TIP3    H233355   7.058   5.624   7.238 -1.6859  1.5833  1.3495
 3054TIP3   OH233356   1.480   3.075   9.887 -0.2747 -0.0085 -0.2930
 3054TIP3    H133357   1.568   3.079   9.848  0.3405 -0.2700  1.0069
 3054TIP3    H233358   1.490   3.118   9.972 -1.6881  0.9713 -0.5988
 3055TIP3   OH233359   1.440   4.063   0.387 -0.4524 -0.2349 -0.4407
 3055TIP3    H133360   1.531   4.031   0.388 -0.2736  0.2236  1.3826
 3055TIP3    H233361   1.387   3.985   0.397 -0.3603 -0.6325 -2.5249
 3056TIP3   OH233362   2.850   1.696   8.138 -0.0336  0.7156 -0.2362
 3056TIP3    H133363   2.816   1.612   8.107 -0.5448  1.1293 -0.8256
 3056TIP3    H233364   2.945   1.686   8.135 -0.0746  0.4885 -1.2479
 3057TIP3   OH233365   1.476   6.504   7.397  0.1783  0.1345 -0.0894
 3057TIP3    H133366   1.475   6.528   7.304 -3.8533 -1.3938 -0.6158
 3057TIP3    H233367   1.396   6.542   7.432  0.4176 -1.3087  2.2100
 3058TIP3   OH233368   3.809   6.771   2.532 -0.7572  0.0996  0.0244
 3058TIP3    H133369   3.737   6.829   2.554  0.3195  1.5229 -0.0600
 3058TIP3    H233370   3.877   6.828   2.497  0.2585 -1.2419 -0.3116
 3059TIP3   OH233371   4.162   3.601   1.121 -0.4089 -0.0157 -0.0138
 3059TIP3    H133372   4.162   3.600   1.216  0.3074  1.8494  0.0487
 3059TIP3    H233373   4.139   3.691   1.098  1.6330  0.1784 -1.5477
 3060TIP3   OH233374   0.587   1.402   9.534 -0.0141 -0.0784 -0.0729
 3060TIP3    H133375   0.601   1.311   9.510 -0.6805 -0.3065  0.3687
 3060TIP3    H233376   0.507   1.401   9.586 -0.0837  0.7757 -0.1489
 3061TIP3   OH233377   6.259   6.624   8.343  0.2946 -0.1277  0.2896
 3061TIP3    H133378   6.218   6.540   8.321 -0.4046  0.4190 -0.5741
 3061TIP3    H233379   6.197   6.667   8.402  0.1685  0.1962 -0.0704
 3062TIP3   OH233380   5.883   4.136   1.907 -0.2550 -0.8313  0.0892
 3062TIP3    H133381   5.895   4.107   1.817  2.0550 -2.3536  0.7743
 3062TIP3    H233382   5.903   4.230   1.905 -1.5979 -0.5422 -1.1673
 3063TIP3   OH233383   7.078   7.064   9.180  0.6694 -0.7607  0.2075
 3063TIP3    H133384   7.104   7.111   9.259  1.5588 -1.4610  0.3480
 3063TIP3    H233385   7.148   7.081   9.117  1.0984 -1.9983  0.3182
 3064TIP3   OH233386   1.381   6.907   2.453  0.0459 -0.3897 -0.0468
 3064TIP3    H133387   1.377   6.817   2.485 -0.0066 -0.2372  0.3813
 3064TIP3    H233388   1.304   6.950   2.491  1.1587  0.3722  1.4693
 3065TIP3   OH233389   3.231   3.439   0.368 -0.1672 -0.1411  0.4818
 3065TIP3    H133390   3.255   3.353   0.402  0.8520  0.4733  1.3925
 3065TIP3    H233391   3.237   3.430   0.273  1.1685 -0.7540  0.6030
 3066TIP3   OH233392   2.444   0.089   0.274  0.8143 -0.4812 -0.4337
 3066TIP3    H133393   2.511   0.151   0.243  0.1823  0.6448  0.3566
 3066TIP3    H233394   2.432   0.112   0.366 -3.2418  1.9380 -1.3115
 3067TIP3   OH233395   4.163   6.206   7.721 -0.2162  0.3213  0.3601
 3067TIP3    H133396   4.206   6.231   7.639 -1.1855  1.0365  0.0428
 3067TIP3    H233397   4.111   6.282   7.744 -0.4948 -0.1375  1.2832
 3068TIP3   OH233398   2.871   6.108   0.326  0.0016 -0.1644  0.5499
 3068TIP3    H133399   2.930   6.043   0.366 -1.5301 -1.7277  0.4076
 3068TIP3    H233400   2.831   6.153   0.400  0.0480 -0.3545  0.6932
 3069TIP3   OH233401   3.561   2.807   0.806 -0.0465 -0.5290 -0.4568
 3069TIP3    H133402   3.517   2.725   0.785 -0.4287 -0.1099 -1.3365
 3069TIP3    H233403   3.536   2.824   0.897 -2.1726 -0.0498 -1.0644
 3070TIP3   OH233404   2.284   6.438   7.808 -0.5421 -0.4827  0.4691
 3070TIP3    H133405   2.251   6.365   7.755 -1.1292  0.3585 -0.3619
 3070TIP3    H233406   2.313   6.397   7.889  3.1223 -2.3091 -1.4646
 3071TIP3   OH233407   1.347   3.476   8.145 -0.4644 -0.2031 -0.0813
 3071TIP3    H133408   1.384   3.392   8.118 -0.0449  0.1699 -0.7079
 3071TIP3    H233409   1.290   3.455   8.218  0.0483 -0.9617  0.1127
 3072TIP3   OH233410   0.659   7.173   9.532 -1.2220 -0.1138  0.2445
 3072TIP3    H133411   0.734   7.117   9.553  1.4387  2.6168 -1.2166
 3072TIP3    H233412   0.604   7.118   9.477 -0.1049 -2.0839  0.9344
 3073TIP3   OH233413   4.329   4.746   9.146  0.3701  0.0436  0.2725
 3073TIP3    H133414   4.376   4.662   9.141 -0.8613 -0.6789  0.6015
 3073TIP3    H233415   4.287   4.754   9.060  1.5752  1.0143 -0.2663
 3074TIP3   OH233416   5.908   2.693   0.113 -0.2447 -0.2268  0.3273
 3074TIP3    H133417   5.875   2.622   0.058 -0.8344 -0.6952  1.2615
 3074TIP3    H233418   5.832   2.720   0.165  0.6582 -0.8675  2.0482
 3075TIP3   OH233419   5.585   3.260   0.150  0.0335  0.2309 -0.0389
 3075TIP3    H133420   5.633   3.236   0.070 -0.0458 -0.7994  0.2133
 3075TIP3    H233421   5.496   3.277   0.120 -0.1116 -0.6325 -0.1045
 3076TIP3   OH233422   1.784   1.187   7.395  0.1698  0.1905  0.4794
 3076TIP3    H133423   1.815   1.259   7.451  1.8970  0.4363 -0.6983
 3076TIP3    H233424   1.782   1.111   7.452  1.8376  0.4504  0.9440
 3077TIP3   OH233425   6.407   5.922   2.501 -0.2170  0.4219  0.2379
 3077TIP3    H133426   6.358   5.902   2.581  0.3603  0.1569  0.5300
 3077TIP3    H233427   6.341   5.918   2.432 -0.5719 -0.1323  0.5962
 3078TIP3   OH233428   2.746   6.158   7.548  0.6201  0.5868 -0.0859
 3078TIP3    H133429   2.775   6.227   7.488 -0.5419  2.8920  1.8100
 3078TIP3    H233430   2.823   6.140   7.602  0.6553  1.1922  0.0772
 3079TIP3   OH233431   5.978   4.077   9.511  0.5560  0.0403 -0.2614
 3079TIP3    H133432   6.061   4.102   9.470  0.6942 -1.1464 -0.7476
 3079TIP3    H233433   6.004   4.018   9.583  0.1757  0.3038  0.0941
 3080TIP3   OH233434   4.562   1.604   1.052  0.7344  0.5572  0.2324
 3080TIP3    H133435   4.602   1.689   1.070 -0.2302  0.9401  0.6348
 3080TIP3    H233436   4.469   1.617   1.070  0.4734 -0.4061 -0.3499
 3081TIP3   OH233437   3.862   2.899   9.177  0.0412  0.6510  0.2665
 3081TIP3    H133438   3.859   2.978   9.231 -0.6055 -0.0880  1.3466
 3081TIP3    H233439   3.775   2.894   9.137 -0.3156 -0.1037  1.1008
 3082TIP3   OH233440   1.548   3.327   0.020 -0.8217 -0.5910  0.4807
 3082TIP3    H133441   1.607   3.356   0.089 -0.7505  0.3275  0.0567
 3082TIP3    H233442   1.574   3.378  -0.057 -1.8727 -0.4865  0.1767
 3083TIP3   OH233443   1.152   4.073   7.389 -0.1779  0.0344 -0.4427
 3083TIP3    H133444   1.158   4.088   7.295 -1.2885  0.1258 -0.5082
 3083TIP3    H233445   1.167   3.979   7.399 -0.0091  0.0326 -0.7013
 3084TIP3   OH233446   6.176   5.758   2.202 -0.6187  0.0510 -0.1747
 3084TIP3    H133447   6.268   5.731   2.200 -0.6139  0.1145 -1.1112
 3084TIP3    H233448   6.179   5.852   2.214 -0.5953 -0.0719  0.9123
 3085TIP3   OH233449   6.546   0.537   1.875  0.1840 -0.0998 -0.4674
 3085TIP3    H133450   6.624   0.574   1.916  1.1987  0.9831 -3.1247
 3085TIP3    H233451   6.576   0.509   1.788 -2.1180 -0.7640 -1.1067
 3086TIP3   OH233452   0.715   2.778   3.006 -0.4561 -0.0459 -0.6736
 3086TIP3    H133453   0.656   2.768   2.931 -1.2952  0.7798 -0.1418
 3086TIP3    H233454   0.672   2.841   3.063  1.5811  1.6824 -0.8993
 3087TIP3   OH233455   7.211   5.653   1.239 -0.0306 -0.7745 -0.4052
 3087TIP3    H133456   7.149   5.580   1.234  1.7585 -2.5824  1.7495
 3087TIP3    H233457   7.168   5.717   1.295 -0.4585 -1.4454  0.0415
 3088TIP3   OH233458   0.681   6.114   2.821 -0.3332 -0.0749 -0.3515
 3088TIP3    H133459   0.680   6.184   2.756 -4.3918  1.3967  1.0170
 3088TIP3    H233460   0.746   6.142   2.885  0.9478  0.3575 -1.7752
 3089TIP3   OH233461   1.519   1.461   6.439  0.1968  0.4771 -0.2574
 3089TIP3    H133462   1.539   1.375   6.401 -1.6015 -0.4947  0.8453
 3089TIP3    H233463   1.605   1.501   6.454  1.0200  0.1142 -3.4346
 3090TIP3   OH233464   0.788   6.535   6.962 -0.1879  0.3905  0.1122
 3090TIP3    H133465   0.796   6.495   6.876 -0.6229 -0.8681  0.6279
 3090TIP3    H233466   0.820   6.624   6.950 -2.5476  1.0606 -1.9270
 3091TIP3   OH233467   6.039   0.546   9.509 -0.2163  0.4147  0.0729
 3091TIP3    H133468   5.985   0.477   9.471 -1.4232  0.6870  1.2301
 3091TIP3    H233469   6.018   0.545   9.603  1.7544  0.5783  0.5660
 3092TIP3   OH233470   1.121   4.003   1.637  0.1662 -0.0621  0.1350
 3092TIP3    H133471   1.187   3.935   1.645 -0.9201 -1.0239  1.4810
 3092TIP3    H233472   1.162   4.070   1.582  1.6026 -1.3722 -0.4798
 3093TIP3   OH233473   6.059   4.578   6.991  0.4578  0.7778  0.1526
 3093TIP3    H133474   6.144   4.535   7.004  0.2877  0.1007 -0.8543
 3093TIP3    H233475   6.076   4.670   7.008  1.0230  0.4410  1.5596
 3094TIP3   OH233476   5.642   0.166   2.081 -0.0445  0.3690 -0.0203
 3094TIP3    H133477   5.559   0.199   2.048  0.2943 -0.1491 -1.4821
 3094TIP3    H233478   5.707   0.199   2.020  1.0111  1.7029  1.7297
 3095TIP3   OH233479   4.165   4.958   7.638  0.3905 -0.0505  0.3449
 3095TIP3    H133480   4.241   5.009   7.666  1.7589 -1.1776 -1.1052
 3095TIP3    H233481   4.185   4.932   7.548 -1.0437 -1.6321  0.4233
 3096TIP3   OH233482   5.128   0.510   1.131 -0.3300  0.1818 -0.3265
 3096TIP3    H133483   5.199   0.572   1.115 -0.3555  0.2871 -0.0400
 3096TIP3    H233484   5.073   0.516   1.053 -0.5882  0.8712 -0.1059
 3097TIP3   OH233485   2.801   4.024   9.815 -0.5587 -0.1202 -0.1219
 3097TIP3    H133486   2.777   4.115   9.798 -0.8118  0.3079  2.2294
 3097TIP3    H233487   2.893   4.018   9.790 -0.4705  0.8545 -0.0572
 3098TIP3   OH233488   4.898   1.805   9.190 -0.2534 -0.7467  0.0466
 3098TIP3    H133489   4.980   1.809   9.142 -0.9288  0.3229 -1.0888
 3098TIP3    H233490   4.893   1.715   9.223 -1.1261 -2.6127 -4.4356
 3099TIP3   OH233491   0.444   5.006   7.482 -0.1778 -0.2560  0.2665
 3099TIP3    H133492   0.505   4.938   7.511 -0.6362 -0.4746  0.7421
 3099TIP3    H233493   0.495   5.060   7.422  0.2342 -0.9357 -0.0076
 3100TIP3   OH233494   0.912   2.953   8.839 -0.2983  0.2912 -0.7748
 3100TIP3    H133495   0.965   2.937   8.761 -0.5801  2.1937 -1.3940
 3100TIP3    H233496   0.822   2.959   8.807 -0.7974 -1.6309  0.1013
 3101TIP3   OH233497   4.788   2.466   0.176 -0.5136  0.2545 -0.0403
 3101TIP3    H133498   4.820   2.396   0.233 -2.1506  0.9883  1.9022
 3101TIP3    H233499   4.703   2.435   0.145 -0.6761  0.8493 -0.1966
 3102TIP3   OH233500   0.248   3.396   9.293 -0.2813 -0.2209  0.6808
 3102TIP3    H133501   0.293   3.332   9.237 -0.8109 -1.0430  1.1791
 3102TIP3    H233502   0.169   3.351   9.322 -0.8588  0.8040  0.7396
 3103TIP3   OH233503   3.991   6.430   2.194  0.2600 -0.5106  0.0063
 3103TIP3    H133504   3.896   6.425   2.205  0.3307 -0.2686  0.7493
 3103TIP3    H233505   4.015   6.516   2.228  0.7753 -0.6686  0.0497
 3104TIP3   OH233506   7.198   3.114   2.316  0.4177  0.3609 -0.0846
 3104TIP3    H133507   7.115   3.091   2.358 -0.3845  1.4354 -1.0080
 3104TIP3    H233508   7.239   3.176   2.376 -0.6855  1.8287 -0.7542
 3105TIP3   OH233509   1.185   1.103   8.042  0.4005 -1.1121  0.0519
 3105TIP3    H133510   1.167   1.060   7.958 -1.2320  0.8529 -0.6755
 3105TIP3    H233511   1.277   1.129   8.036 -0.3213  1.3623 -2.3571
 3106TIP3   OH233512   1.265   5.994   7.300  0.9419 -0.5251  0.4635
 3106TIP3    H133513   1.217   5.966   7.379  0.6508 -0.6091  0.2580
 3106TIP3    H233514   1.218   5.952   7.228  1.1783 -0.4037  0.2407
 3107TIP3   OH233515   5.887   5.508   0.771 -0.3363 -0.1230  0.0676
 3107TIP3    H133516   5.801   5.551   0.773 -0.2741  0.0953 -1.0141
 3107TIP3    H233517   5.911   5.509   0.678  0.2307 -1.3911  0.1833
 3108TIP3   OH233518   2.887   0.220   8.711  0.8850 -0.2694 -0.6174
 3108TIP3    H133519   2.889   0.133   8.671  1.2225 -0.3436 -0.4384
 3108TIP3    H233520   2.796   0.248   8.701  0.6124 -0.9330 -0.0558
 3109TIP3   OH233521   4.112   7.096   8.777 -0.0226  0.1533 -0.3801
 3109TIP3    H133522   4.104   7.189   8.798 -1.5283 -0.4422  2.1091
 3109TIP3    H233523   4.032   7.057   8.812  0.4528 -2.0624 -1.6010
 3110TIP3   OH233524   3.522   2.953   0.134 -0.4269  0.2149  0.9091
 3110TIP3    H133525   3.479   2.891   0.075  0.4345  0.0320  0.4593
 3110TIP3    H233526   3.516   3.037   0.089 -0.9398  0.3345  1.1832
 3111TIP3   OH233527   0.443   0.586   9.158  0.0818 -0.4104  0.3924
 3111TIP3    H133528   0.514   0.580   9.094 -1.8381 -1.5318 -1.7900
 3111TIP3    H233529   0.487   0.591   9.243  2.7751  1.7288 -0.9673
 3112TIP3   OH233530   6.765   6.239   7.492  0.3483  0.2179  0.4269
 3112TIP3    H133531   6.823   6.257   7.565  1.0906  0.4283 -0.2040
 3112TIP3    H233532   6.805   6.284   7.417 -0.5902  0.3208 -0.0336
 3113TIP3   OH233533   2.752   4.288   7.345 -0.8890 -0.3397  0.0319
 3113TIP3    H133534   2.764   4.215   7.283  0.5555  0.8731 -1.1922
 3113TIP3    H233535   2.768   4.249   7.431  0.7565 -1.3019 -0.6631
 3114TIP3   OH233536   4.001   2.492   2.423 -0.4035 -0.0025  0.3431
 3114TIP3    H133537   4.079   2.539   2.394  0.0293 -1.4094 -0.9064
 3114TIP3    H233538   3.930   2.555   2.413 -0.0042  0.1559 -2.2683
 3115TIP3   OH233539   6.801   6.905   8.957 -0.6105  0.5766 -0.0037
 3115TIP3    H133540   6.838   6.897   8.870 -1.1637  1.6106 -0.3468
 3115TIP3    H233541   6.792   6.815   8.988  1.5644  0.2523 -0.1476
 3116TIP3   OH233542   5.817   4.102   2.151  0.3373 -0.3040 -0.1596
 3116TIP3    H133543   5.772   4.186   2.163 -0.6093 -0.5775 -1.5285
 3116TIP3    H233544   5.841   4.101   2.059 -1.0293 -2.1724 -0.5538
 3117TIP3   OH233545   3.193   0.522   2.193  0.0365  0.6133  0.4266
 3117TIP3    H133546   3.247   0.459   2.145  0.1792 -0.9692  2.5609
 3117TIP3    H233547   3.106   0.515   2.153 -0.1390 -1.5144  1.0767
 3118TIP3   OH233548   1.346   3.772   8.644 -0.0106  0.3829 -0.1076
 3118TIP3    H133549   1.274   3.758   8.704 -0.6959  1.3863 -0.6690
 3118TIP3    H233550   1.310   3.753   8.557  0.4198  0.7934 -0.3852
 3119TIP3   OH233551   2.693   6.602   1.977 -0.2564  0.2971  0.3903
 3119TIP3    H133552   2.673   6.556   1.895  0.8846  0.4194  0.0278
 3119TIP3    H233553   2.627   6.570   2.038 -1.8380  1.0432 -0.8489
 3120TIP3   OH233554   6.494   4.077   2.962  0.1509 -0.1456 -0.1883
 3120TIP3    H133555   6.478   4.043   2.874  0.1896 -0.7372  0.0313
 3120TIP3    H233556   6.406   4.094   2.997  0.0109 -2.0449  0.4854
 3121TIP3   OH233557   0.762   5.489   1.004  0.4554 -0.4426 -0.1576
 3121TIP3    H133558   0.853   5.461   1.007 -0.2615 -3.1193 -0.8045
 3121TIP3    H233559   0.713   5.419   1.046 -1.3571  0.8397  0.0113
 3122TIP3   OH233560   5.297   2.146   1.799  0.1538  0.4182 -0.3456
 3122TIP3    H133561   5.316   2.072   1.742  0.8189  1.9822 -2.2697
 3122TIP3    H233562   5.262   2.213   1.740  2.2054  2.6409  0.8107
 3123TIP3   OH233563   3.241   1.405   0.687  0.3074 -0.4810 -0.3856
 3123TIP3    H133564   3.270   1.320   0.652  0.5788 -0.7854  0.5526
 3123TIP3    H233565   3.195   1.446   0.614 -0.5121 -1.7658 -0.6394
 3124TIP3   OH233566   0.200   0.375   0.314 -0.4925  0.0823 -0.2023
 3124TIP3    H133567   0.129   0.311   0.326 -1.7211  1.3204 -0.6421
 3124TIP3    H233568   0.278   0.321   0.299 -1.1938 -1.3318  0.9487
 3125TIP3   OH233569   4.120   2.044   0.650  0.7325 -0.3387  0.1419
 3125TIP3    H133570   4.100   2.138   0.660  0.3183 -0.3258 -0.7314
 3125TIP3    H233571   4.058   2.001   0.708 -0.8524 -0.1981 -1.3496
 3126TIP3   OH233572   6.381   0.270   0.764 -0.6259 -0.2908  0.1582
 3126TIP3    H133573   6.359   0.308   0.679  0.4171  0.0063  0.0086
 3126TIP3    H233574   6.368   0.341   0.826 -0.6378 -0.2807  0.1442
 3127TIP3   OH233575   3.208   6.269   3.289  0.0475 -0.0381  0.6485
 3127TIP3    H133576   3.262   6.189   3.283 -0.7048 -0.4533 -1.5410
 3127TIP3    H233577   3.124   6.244   3.251  0.0674  2.0020 -0.9105
 3128TIP3   OH233578   2.870   6.788   7.804 -0.1997  0.0641  0.2414
 3128TIP3    H133579   2.872   6.707   7.753  0.1193  0.5511 -0.5341
 3128TIP3    H233580   2.790   6.832   7.775 -0.0172  0.3455  0.1707
 3129TIP3   OH233581   5.606   6.418   8.574  0.0653 -1.1548 -0.1215
 3129TIP3    H133582   5.651   6.385   8.652 -0.3512 -0.9515  0.2134
 3129TIP3    H233583   5.639   6.364   8.502 -1.1212 -2.8330  0.5135
 3130TIP3   OH233584   6.176   2.338   9.427 -0.3428  0.1308 -0.4572
 3130TIP3    H133585   6.266   2.325   9.457 -0.3434  1.4218  0.1551
 3130TIP3    H233586   6.125   2.353   9.507 -0.8556  0.7674 -0.8887
 3131TIP3   OH233587   4.609   3.885   9.772 -0.4169  0.1659 -0.5936
 3131TIP3    H133588   4.514   3.885   9.766 -0.4521  0.8559 -0.1882
 3131TIP3    H233589   4.627   3.869   9.865 -0.1716  1.2391 -0.4449
 3132TIP3   OH233590   6.130   1.864   0.366 -0.2100  0.0716 -0.1386
 3132TIP3    H133591   6.117   1.928   0.436 -1.7252 -1.6212  1.2293
 3132TIP3    H233592   6.151   1.916   0.289  0.1333  2.0914  1.2548
 3133TIP3   OH233593   6.984   5.872   9.557 -0.0021 -0.6599 -0.0110
 3133TIP3    H133594   7.024   5.803   9.611  1.0061  0.0877  0.2316
 3133TIP3    H233595   7.044   5.946   9.565 -1.0254  0.2279 -0.3361
 3134TIP3   OH233596   5.987   0.421   7.833 -0.0715 -0.1896  0.3073
 3134TIP3    H133597   6.054   0.354   7.819  1.4774  1.0581  1.4375
 3134TIP3    H233598   5.930   0.384   7.901  0.4671 -0.5723  0.5551
 3135TIP3   OH233599   4.259   2.764   9.332 -0.1836  0.1807  1.1353
 3135TIP3    H133600   4.179   2.782   9.282  0.0545 -0.7474  0.4044
 3135TIP3    H233601   4.297   2.687   9.290  0.6104  0.0521  2.0620
 3136TIP3   OH233602   4.124   5.958   0.643 -0.1142  0.0653 -0.0362
 3136TIP3    H133603   4.204   5.949   0.694  1.3582  2.1567 -1.7651
 3136TIP3    H233604   4.137   6.039   0.593 -2.8567 -0.1111 -1.2166
 3137TIP3   OH233605   6.065   6.323   2.135  0.1312 -0.5792 -0.5263
 3137TIP3    H133606   6.056   6.390   2.068  0.1609 -1.3669 -1.3335
 3137TIP3    H233607   5.996   6.343   2.199  0.5643  0.5975 -0.4065
 3138TIP3   OH233608   1.752   2.157   9.004  0.0015 -0.0776  0.0603
 3138TIP3    H133609   1.800   2.086   9.046  0.5922  0.0215 -0.4293
 3138TIP3    H233610   1.816   2.196   8.944 -0.2342  1.0345  0.5152
 3139TIP3   OH233611   4.372   2.409   2.796  0.2352 -0.4104  0.1621
 3139TIP3    H133612   4.462   2.394   2.767  0.3201  0.8791 -0.3208
 3139TIP3    H233613   4.318   2.366   2.730  0.4840 -1.7859  0.8238
 3140TIP3   OH233614   0.305   3.996   1.534 -0.1133  0.2800  0.0535
 3140TIP3    H133615   0.366   4.064   1.507  1.7225 -1.4796 -0.4219
 3140TIP3    H233616   0.239   3.994   1.465  0.7184  0.5009 -0.7704
 3141TIP3   OH233617   1.075   6.955   7.788 -0.1952 -0.0344 -0.3696
 3141TIP3    H133618   1.013   7.022   7.820 -1.1036 -0.9343 -0.1960
 3141TIP3    H233619   1.139   6.947   7.858  0.6026  1.4579 -0.8687
 3142TIP3   OH233620   6.577   4.099   2.250  0.1804 -0.1920  0.1319
 3142TIP3    H133621   6.606   4.016   2.289 -0.1813  0.0510  0.9484
 3142TIP3    H233622   6.641   4.163   2.281  0.0921 -0.0527  0.0253
 3143TIP3   OH233623   0.690   6.505   8.185 -0.3474  0.0413 -0.7962
 3143TIP3    H133624   0.761   6.479   8.243  0.4076 -0.1494 -1.7789
 3143TIP3    H233625   0.650   6.581   8.229 -0.1081 -0.3818  0.1879
 3144TIP3   OH233626   6.042   0.778   7.212 -0.2272 -0.2416 -0.2589
 3144TIP3    H133627   6.122   0.737   7.180 -0.0947 -0.6082  0.5213
 3144TIP3    H233628   6.030   0.855   7.156  0.8699  0.0305 -0.1310
 3145TIP3   OH233629   4.203   6.773   1.975 -0.3042 -0.1120 -0.1045
 3145TIP3    H133630   4.229   6.715   2.047  0.6283 -0.6458 -0.8485
 3145TIP3    H233631   4.215   6.862   2.010 -1.4615 -0.3373  0.9419
 3146TIP3   OH233632   6.159   3.213   8.188 -0.5522  0.2423 -0.3580
 3146TIP3    H133633   6.209   3.289   8.158  1.2010 -0.5430  0.4636
 3146TIP3    H233634   6.206   3.138   8.152  1.4916 -0.7715  3.8380
 3147TIP3   OH233635   4.122   6.302   2.742  0.9845 -0.4182 -0.5754
 3147TIP3    H133636   4.063   6.234   2.710 -0.7150  0.0737  1.2914
 3147TIP3    H233637   4.145   6.275   2.830 -0.1257  1.5701  0.4024
 3148TIP3   OH233638   0.699   0.148   1.285 -0.2938 -0.3873  0.4535
 3148TIP3    H133639   0.655   0.233   1.286 -0.1133 -0.2749 -0.6701
 3148TIP3    H233640   0.647   0.094   1.345 -1.1127  0.1655  0.2651
 3149TIP3   OH233641   0.212   1.288   8.119  0.1240  0.5329 -0.4064
 3149TIP3    H133642   0.164   1.212   8.149 -0.0041  0.8022  0.0787
 3149TIP3    H233643   0.202   1.353   8.189 -0.1836  1.1748 -1.0240
 3150TIP3   OH233644   3.136   0.053   8.470  0.0802 -0.2556 -0.2636
 3150TIP3    H133645   3.185   0.030   8.391  1.0369  2.7356 -0.6561
 3150TIP3    H233646   3.192   0.023   8.542  0.9104  0.1449 -0.7245
 3151TIP3   OH233647   4.723   1.198   0.993  0.2281 -0.1465 -0.0319
 3151TIP3    H133648   4.726   1.143   0.915  0.7433  0.5452 -0.5157
 3151TIP3    H233649   4.646   1.168   1.041  0.0797 -0.7838 -0.6562
 3152TIP3   OH233650   0.611   2.261   0.765 -0.3198  0.0520 -0.2898
 3152TIP3    H133651   0.569   2.317   0.831  0.4956  0.5520 -0.1856
 3152TIP3    H233652   0.540   2.206   0.732 -1.4453  2.0763 -1.4003
 3153TIP3   OH233653   6.912   2.281   1.633  0.3865  0.2978 -0.2966
 3153TIP3    H133654   6.970   2.356   1.648  0.7702  0.6469 -3.0052
 3153TIP3    H233655   6.824   2.319   1.631  0.6393  0.8671 -2.4049
 3154TIP3   OH233656   0.061   5.295   0.830 -0.0966  0.1609  0.5460
 3154TIP3    H133657  -0.030   5.310   0.855  0.2166  1.6754  0.8953
 3154TIP3    H233658   0.112   5.351   0.889  0.9274  0.7668 -0.8544
 3155TIP3   OH233659   5.721   1.281   9.161 -0.3275  0.1515  0.1003
 3155TIP3    H133660   5.765   1.330   9.231 -1.0471  0.3809  0.4043
 3155TIP3    H233661   5.628   1.299   9.174 -0.5266 -0.4371 -0.4477
 3156TIP3   OH233662   6.186   4.727   2.243  0.7466  0.2974  0.6477
 3156TIP3    H133663   6.241   4.667   2.294 -0.8938 -1.4777  0.4265
 3156TIP3    H233664   6.177   4.685   2.158 -0.6002  0.7447  0.5529
 3157TIP3   OH233665   2.025   0.776   0.821  0.2742 -0.3763  0.1518
 3157TIP3    H133666   1.969   0.766   0.897  0.6137  2.0357  0.8053
 3157TIP3    H233667   1.977   0.734   0.750 -1.1339 -0.6300  1.2158
 3158TIP3   OH233668   1.974   2.092   0.806  0.4943 -0.4892 -0.1586
 3158TIP3    H133669   1.993   2.047   0.724 -0.9813  0.4979 -1.0880
 3158TIP3    H233670   2.001   2.182   0.791 -0.1062 -0.2213  0.3177
 3159TIP3   OH233671   0.009   5.161   1.488  0.1571 -0.3968  0.3548
 3159TIP3    H133672   0.103   5.163   1.505  0.3096 -1.7932 -0.1468
 3159TIP3    H233673  -0.029   5.118   1.565  0.0868 -0.9146  0.0403
 3160TIP3   OH233674   2.082   5.940   1.531 -0.5278 -0.4282  0.0542
 3160TIP3    H133675   2.038   5.870   1.483 -0.3609  0.1735 -0.9994
 3160TIP3    H233676   2.089   5.906   1.621  0.1151 -2.0210 -0.5645
 3161TIP3   OH233677   3.675   2.028   7.662 -0.3137 -0.1462 -0.2215
 3161TIP3    H133678   3.769   2.012   7.661 -0.1784  0.6159 -0.2347
 3161TIP3    H233679   3.636   1.941   7.659  0.3817 -0.4380 -1.1611
 3162TIP3   OH233680   4.615   6.513   8.126  0.0771  0.0870  0.2184
 3162TIP3    H133681   4.555   6.506   8.052 -0.5846 -0.9582  0.8117
 3162TIP3    H233682   4.568   6.470   8.198  1.5570 -0.8251  0.6823
 3163TIP3   OH233683   6.630   0.331   0.306 -0.2856 -0.1608 -0.4191
 3163TIP3    H133684   6.591   0.247   0.331  1.6681 -0.4767  2.0511
 3163TIP3    H233685   6.671   0.315   0.221  1.6703 -2.3893  0.8254
 3164TIP3   OH233686   0.818   3.846   0.524 -0.3748  0.6910 -0.3819
 3164TIP3    H133687   0.899   3.896   0.512 -0.7170  0.9591 -1.7977
 3164TIP3    H233688   0.772   3.854   0.440 -0.9443 -1.1290 -0.2967
 3165TIP3   OH233689   0.275   5.178   8.817  0.4224 -0.4608  0.0829
 3165TIP3    H133690   0.280   5.242   8.889 -0.5045 -1.3724  0.9972
 3165TIP3    H233691   0.365   5.171   8.785  1.6716 -2.5794  3.4971
 3166TIP3   OH233692   0.460   6.691   9.917  0.3674  0.6442 -0.1692
 3166TIP3    H133693   0.460   6.787   9.919  2.2057  0.7210 -1.0842
 3166TIP3    H233694   0.394   6.668   9.852  1.5878  1.4399 -1.7581
 3167TIP3   OH233695   4.905   5.891   8.412 -0.3487  0.2464 -0.1615
 3167TIP3    H133696   4.932   5.830   8.344  1.5425  1.1358 -0.2606
 3167TIP3    H233697   4.890   5.974   8.366 -1.0235  0.3660  0.2478
 3168TIP3   OH233698   0.012   2.674   9.986  0.6755 -0.8616 -0.2445
 3168TIP3    H133699  -0.038   2.639   9.913 -0.3553 -0.9623  0.4786
 3168TIP3    H233700  -0.055   2.712  10.044  1.4018 -1.3387  0.9340
 3169TIP3   OH233701   4.644   0.871   0.564 -0.2189  0.2123  0.6771
 3169TIP3    H133702   4.651   0.875   0.468  0.1782 -0.2599  0.6780
 3169TIP3    H233703   4.695   0.793   0.588 -1.1636 -0.2580  1.1918
 3170TIP3   OH233704   5.491   3.132   1.251  0.9340  0.4263  0.2140
 3170TIP3    H133705   5.551   3.207   1.258 -0.1361  1.4723 -1.1659
 3170TIP3    H233706   5.434   3.141   1.328  1.4897  0.3820  0.6426
 3171TIP3   OH233707   4.030   1.690   8.030 -0.2683 -0.6624  0.2444
 3171TIP3    H133708   4.081   1.686   8.111 -0.0728  1.2724  0.2661
 3171TIP3    H233709   3.967   1.618   8.037 -1.5612  0.6220  3.0191
 3172TIP3   OH233710   0.975   2.962   7.283  0.2804  0.5105 -0.0829
 3172TIP3    H133711   1.002   3.052   7.266  0.7263  0.3698 -0.1480
 3172TIP3    H233712   0.966   2.923   7.196 -1.8646  1.0274 -0.1453
 3173TIP3   OH233713   6.374   2.271   2.573  0.7781 -0.9701 -0.1409
 3173TIP3    H133714   6.407   2.182   2.588  0.1800 -1.0238  0.9482
 3173TIP3    H233715   6.279   2.263   2.578  0.7204 -0.2601  0.0103
 3174TIP3   OH233716   0.778   0.306   7.827  0.1683  0.0332 -0.4551
 3174TIP3    H133717   0.769   0.272   7.738  1.8584 -2.2138  0.1336
 3174TIP3    H233718   0.870   0.333   7.833  0.2226 -0.3363  0.7154
 3175TIP3   OH233719   5.320   4.287   1.187 -0.0207  0.2729  0.4932
 3175TIP3    H133720   5.373   4.215   1.151 -0.2754  0.3230  0.0088
 3175TIP3    H233721   5.321   4.354   1.118  2.7885  2.0797  2.1171
 3176TIP3   OH233722   6.306   6.113   0.539 -0.2415 -0.0771 -1.0236
 3176TIP3    H133723   6.338   6.203   0.531 -0.5810  0.4606  2.2776
 3176TIP3    H233724   6.213   6.123   0.555 -0.4120 -1.0950 -1.3453
 3177TIP3   OH233725   0.189   3.347   8.356 -0.0112 -0.0758 -0.3799
 3177TIP3    H133726   0.228   3.432   8.339 -0.1228  0.3051  1.1725
 3177TIP3    H233727   0.255   3.298   8.405 -0.4598 -0.3871 -0.0704
 3178TIP3   OH233728   5.377   5.237   0.122 -0.4921 -0.3728  0.3755
 3178TIP3    H133729   5.288   5.211   0.099 -0.6683  0.5265  0.0241
 3178TIP3    H233730   5.398   5.308   0.061  0.3513 -0.3768  0.6548
 3179TIP3   OH233731   1.442   0.745   8.088 -0.4078 -0.1851 -0.1696
 3179TIP3    H133732   1.412   0.708   8.171 -1.5838  0.8307 -0.1200
 3179TIP3    H233733   1.397   0.829   8.081  1.3411  0.7420 -0.8137
 3180TIP3   OH233734   6.411   2.781   8.862  0.2619  0.4154  0.6024
 3180TIP3    H133735   6.439   2.866   8.896  0.5748  0.2564  0.7430
 3180TIP3    H233736   6.376   2.735   8.939 -0.8797  0.8016  0.3457
 3181TIP3   OH233737   2.504   1.124   7.159 -0.6055  0.1392 -0.7071
 3181TIP3    H133738   2.546   1.078   7.087  0.0181 -0.4703  0.0243
 3181TIP3    H233739   2.532   1.215   7.148 -0.3000  0.0041 -1.0816
 3182TIP3   OH233740   2.337   5.718   2.048  0.2983 -0.8274  1.3062
 3182TIP3    H133741   2.349   5.658   1.975 -0.7837  0.7797 -0.2730
 3182TIP3    H233742   2.406   5.784   2.037 -0.5126  0.0038  1.0875
 3183TIP3   OH233743   0.074   2.030   0.349 -0.0166 -0.1612 -0.2471
 3183TIP3    H133744   0.042   2.113   0.314  0.5608 -0.1043 -0.6711
 3183TIP3    H233745   0.003   1.997   0.403  0.2272  1.2414  0.9811
 3184TIP3   OH233746   6.118   3.412   2.924 -0.6179  0.4009  0.1006
 3184TIP3    H133747   6.207   3.376   2.928 -0.9092 -0.4034 -0.2802
 3184TIP3    H233748   6.130   3.503   2.896  0.0249 -0.1399 -1.5484
 3185TIP3   OH233749   3.719   3.476   7.364  0.3648  0.2888  0.1754
 3185TIP3    H133750   3.739   3.481   7.458 -0.2454 -0.4876  0.3572
 3185TIP3    H233751   3.749   3.388   7.339  0.7827  0.5969 -0.4256
 3186TIP3   OH233752   5.480   5.836   8.026  0.1705  0.4830 -0.0535
 3186TIP3    H133753   5.475   5.836   8.122 -1.8050 -2.3668 -0.0390
 3186TIP3    H233754   5.395   5.868   7.997 -0.4356 -1.5964 -0.7416
 3187TIP3   OH233755   3.999   3.730   8.509 -0.1202 -0.2297 -0.2443
 3187TIP3    H133756   4.015   3.700   8.599  1.0884  0.9609 -0.0331
 3187TIP3    H233757   3.908   3.707   8.492 -0.5013 -0.1036  1.4518
 3188TIP3   OH233758   0.764   6.537   7.898 -0.9192  0.1350  0.2848
 3188TIP3    H133759   0.857   6.557   7.893 -0.9057 -0.2030 -1.6532
 3188TIP3    H233760   0.751   6.499   7.985  0.5512  1.0674  0.9426
 3189TIP3   OH233761   0.684   4.335   1.769  0.0015  0.3195 -0.3036
 3189TIP3    H133762   0.777   4.333   1.748 -0.1472  1.0558 -1.0279
 3189TIP3    H233763   0.676   4.401   1.838  0.2354 -0.8805  0.9138
 3190TIP3   OH233764   2.990   2.160   0.707 -0.9116 -0.4291 -0.3341
 3190TIP3    H133765   3.043   2.154   0.786 -0.4345 -0.0095 -0.6131
 3190TIP3    H233766   3.017   2.085   0.654  0.4813  0.5569 -1.1004
 3191TIP3   OH233767   4.725   0.668   8.378 -0.0257  0.1503 -0.0886
 3191TIP3    H133768   4.716   0.583   8.336  0.7355 -0.1874  0.4097
 3191TIP3    H233769   4.653   0.720   8.343 -1.2613 -1.0731  0.5364
 3192TIP3   OH233770   5.709   5.182   2.442  0.2053 -0.2968  1.3953
 3192TIP3    H133771   5.726   5.276   2.432 -2.6351  0.2672  0.7993
 3192TIP3    H233772   5.705   5.169   2.537 -0.9452  0.6009  1.5095
 3193TIP3   OH233773   1.747   5.842   2.546 -0.0616  0.4814  0.0760
 3193TIP3    H133774   1.707   5.761   2.580  1.0272  0.0463  0.3989
 3193TIP3    H233775   1.676   5.888   2.502 -0.2244 -1.8614 -2.3912
 3194TIP3   OH233776   4.695   4.982   3.410 -0.3428  0.3712  0.3684
 3194TIP3    H133777   4.604   4.999   3.438 -0.1085  0.6211  1.0061
 3194TIP3    H233778   4.744   5.059   3.440  0.4619 -0.6960  1.9609
 3195TIP3   OH233779   3.530   7.178   2.254 -0.2311 -0.5217 -0.3899
 3195TIP3    H133780   3.450   7.164   2.203 -0.7297 -0.4598  0.3570
 3195TIP3    H233781   3.499   7.205   2.340  0.5634 -1.6415  0.2778
 3196TIP3   OH233782   0.725   6.434   7.640  0.4754  0.0618 -0.4017
 3196TIP3    H133783   0.733   6.508   7.701 -1.4446  0.1543 -0.2237
 3196TIP3    H233784   0.771   6.362   7.683 -2.4046 -0.4287  2.1421
 3197TIP3   OH233785   1.117   5.512   7.418 -0.2773  0.1807 -0.0436
 3197TIP3    H133786   1.103   5.573   7.346  2.2244  2.9371  1.5682
 3197TIP3    H233787   1.079   5.555   7.494 -1.2957 -1.8457  0.6759
 3198TIP3   OH233788   0.419   3.084   1.749  0.2620 -0.1607 -0.2420
 3198TIP3    H133789   0.464   3.104   1.831 -0.3679  0.0077  0.0679
 3198TIP3    H233790   0.484   3.035   1.698  1.1219  0.8883 -0.1890
 3199TIP3   OH233791   0.932   6.601   9.050 -0.1267  0.2731  0.0729
 3199TIP3    H133792   1.018   6.581   9.087  0.5322  0.9573 -1.0529
 3199TIP3    H233793   0.948   6.613   8.957 -1.6867 -0.9717 -0.4057
 3200TIP3   OH233794   5.652   4.154   9.243 -0.2008 -0.4930 -0.0118
 3200TIP3    H133795   5.676   4.108   9.324  1.5646 -0.0846 -0.2658
 3200TIP3    H233796   5.637   4.084   9.180 -1.8465 -0.8288  0.6955
 3201TIP3   OH233797   0.549   2.298   2.341  0.0675 -0.3636  0.1013
 3201TIP3    H133798   0.457   2.272   2.344  0.3509 -1.4019  0.0034
 3201TIP3    H233799   0.571   2.318   2.432 -1.1004  3.0697 -0.2190
 3202TIP3   OH233800   1.263   3.236   2.400 -0.1856 -0.2904 -0.0322
 3202TIP3    H133801   1.235   3.182   2.474 -1.0551 -0.0508 -0.1767
 3202TIP3    H233802   1.224   3.322   2.416  3.6145  1.3323  1.7731
 3203TIP3   OH233803   4.075   2.884   8.663  0.3189  0.8207 -0.4939
 3203TIP3    H133804   4.086   2.791   8.642  2.1930  0.9739 -0.4432
 3203TIP3    H233805   4.108   2.929   8.585 -0.6287  1.4519 -0.5352
 3204TIP3   OH233806   1.389   2.021   9.674 -0.0483  1.0783 -0.5419
 3204TIP3    H133807   1.309   2.053   9.716  0.1044 -0.2243  0.8348
 3204TIP3    H233808   1.453   2.015   9.745  0.4870 -0.3760 -1.1044
 3205TIP3   OH233809   2.373   0.064   0.576 -0.1701 -0.4535 -0.4641
 3205TIP3    H133810   2.419   0.003   0.634  0.7887  0.1403 -0.5928
 3205TIP3    H233811   2.423   0.145   0.582 -1.4784  0.3668 -0.2280
 3206TIP3   OH233812   1.850   5.434   2.403 -0.5012 -0.1608  0.0873
 3206TIP3    H133813   1.898   5.429   2.320  1.7308  0.0173  1.3237
 3206TIP3    H233814   1.884   5.361   2.455 -4.3792 -2.5647 -0.3017
 3207TIP3   OH233815   0.405   4.549   8.096 -0.5331  0.8286 -0.6838
 3207TIP3    H133816   0.465   4.623   8.091 -0.5241  1.1697  2.4158
 3207TIP3    H233817   0.320   4.585   8.072 -0.3726  1.6460 -0.0524
 3208TIP3   OH233818   5.218   5.955   8.241  0.0090 -0.7225 -0.1652
 3208TIP3    H133819   5.249   5.899   8.312  1.7759  0.6875  0.2410
 3208TIP3    H233820   5.260   6.039   8.256 -2.3193  0.6909 -0.9290
 3209TIP3   OH233821   4.789   2.268   1.792 -0.5594 -0.4510 -0.1726
 3209TIP3    H133822   4.845   2.345   1.781 -1.6666  0.2535 -1.0388
 3209TIP3    H233823   4.738   2.286   1.871  0.8716 -1.4057  1.0278
 3210TIP3   OH233824   4.721   5.671   9.699  0.8131  0.1214 -0.0220
 3210TIP3    H133825   4.674   5.669   9.616  1.8773 -1.4981 -0.6450
 3210TIP3    H233826   4.777   5.593   9.697  2.0588  0.9103  1.5219
 3211TIP3   OH233827   6.882   2.441   9.976  0.4220  0.0798 -0.0990
 3211TIP3    H133828   6.874   2.409   9.886 -1.1192 -1.0768  0.4016
 3211TIP3    H233829   6.816   2.510   9.982 -1.0558 -1.3424  0.7206
 3212TIP3   OH233830   5.212   6.994   1.556 -0.1012  0.7800  0.0079
 3212TIP3    H133831   5.302   7.005   1.525  0.5901  0.7591  1.9051
 3212TIP3    H233832   5.191   6.902   1.539 -0.0084  0.9335 -0.9940
 3213TIP3   OH233833   5.490   4.319   2.004  0.1164 -0.1170 -0.2225
 3213TIP3    H133834   5.507   4.297   2.096  2.5596 -1.0507 -0.8323
 3213TIP3    H233835   5.521   4.409   1.995  1.5513 -0.6062 -0.4836
 3214TIP3   OH233836   3.071   5.875   9.763 -0.0854  0.9827  0.6359
 3214TIP3    H133837   3.126   5.924   9.823 -0.4913  0.6775  1.2769
 3214TIP3    H233838   3.109   5.787   9.760 -0.3120  0.8765  0.7880
 3215TIP3   OH233839   5.769   5.422   0.327  0.6633 -0.0584 -0.2489
 3215TIP3    H133840   5.717   5.371   0.390  0.8962 -0.2988 -0.2473
 3215TIP3    H233841   5.797   5.357   0.263  2.4492 -0.2940  0.7081
 3216TIP3   OH233842   2.081   1.780   7.788  0.4747  0.3499  0.4047
 3216TIP3    H133843   2.051   1.799   7.877 -0.1144 -0.9181  0.4959
 3216TIP3    H233844   2.176   1.793   7.791  0.2258  2.3969  0.6439
 3217TIP3   OH233845   6.631   2.487   2.607  0.0145  0.0182 -0.2140
 3217TIP3    H133846   6.683   2.438   2.544  1.4466 -0.3538  1.2028
 3217TIP3    H233847   6.682   2.565   2.627 -0.3989  0.1285  0.4856
 3218TIP3   OH233848   3.866   0.534   9.552 -0.0120  0.4991 -0.6700
 3218TIP3    H133849   3.892   0.505   9.639  0.5155  0.9783 -0.6612
 3218TIP3    H233850   3.880   0.458   9.496  0.3519  0.4109 -0.4649
 3219TIP3   OH233851   6.296   0.298   8.043  0.9795  0.3273 -0.8857
 3219TIP3    H133852   6.213   0.256   8.019  0.8718  0.2314 -0.3580
 3219TIP3    H233853   6.359   0.264   7.979  1.1340 -1.5130  0.1636
 3220TIP3   OH233854   4.614   0.548   9.657  0.3569  0.4143  0.0333
 3220TIP3    H133855   4.617   0.644   9.660 -0.8023  0.5489 -1.6884
 3220TIP3    H233856   4.678   0.524   9.590 -1.5086  0.2400 -1.7875
 3221TIP3   OH233857   6.195   4.102   8.293 -0.0452  0.2274 -0.0310
 3221TIP3    H133858   6.253   4.167   8.333 -1.8952  0.6608  2.1053
 3221TIP3    H233859   6.198   4.122   8.199  2.0478  1.1619  0.1737
 3222TIP3   OH233860   4.783   3.546   6.848 -0.0358  0.2103 -0.1378
 3222TIP3    H133861   4.716   3.607   6.819 -0.1025  0.5550  0.7099
 3222TIP3    H233862   4.838   3.597   6.908  1.7585  0.3150 -1.7759
 3223TIP3   OH233863   2.754   0.629   0.247  0.1512 -0.5806 -0.6061
 3223TIP3    H133864   2.664   0.636   0.215 -0.1164  0.6161  0.3577
 3223TIP3    H233865   2.774   0.715   0.283  1.2315 -1.2178  0.3836
 3224TIP3   OH233866   4.378   4.048   8.142 -0.3670 -0.6325  0.1190
 3224TIP3    H133867   4.371   4.139   8.112  1.4136 -0.5476 -0.1615
 3224TIP3    H233868   4.287   4.021   8.157 -1.1344  0.4234 -2.0662
 3225TIP3   OH233869   5.039   5.483   7.445  0.0929 -0.1231 -0.6254
 3225TIP3    H133870   5.069   5.539   7.373  0.7259  1.6643  0.9558
 3225TIP3    H233871   5.113   5.426   7.464 -0.6770 -1.8603 -2.4821
 3226TIP3   OH233872   1.724   0.196   7.706 -0.1323  0.2416  0.3165
 3226TIP3    H133873   1.808   0.170   7.742 -0.4240 -0.4875  0.4967
 3226TIP3    H233874   1.675   0.230   7.781 -1.4566 -3.0669  1.1364
 3227TIP3   OH233875   4.218   5.558   7.671  0.0782 -0.6511 -0.3731
 3227TIP3    H133876   4.209   5.639   7.721  1.2340 -0.1417 -0.9565
 3227TIP3    H233877   4.157   5.568   7.599  2.6840  1.3929 -2.5352
 3228TIP3   OH233878   0.637   0.624   9.438  0.3805  0.0536  0.6146
 3228TIP3    H133879   0.689   0.547   9.458  1.9523  1.2507  1.3899
 3228TIP3    H233880   0.579   0.635   9.513 -0.8652 -1.1213 -0.1243
 3229TIP3   OH233881   0.446   6.639   7.952  0.3654  0.7808  0.6817
 3229TIP3    H133882   0.409   6.673   7.870 -0.0509  0.8311  0.8895
 3229TIP3    H233883   0.529   6.600   7.925  0.5003  1.2923  0.3199
 3230TIP3   OH233884   0.092   0.742   6.458  0.3683 -0.8544  0.0199
 3230TIP3    H133885   0.033   0.668   6.475  0.1423 -0.3538  1.5827
 3230TIP3    H233886   0.076   0.802   6.531 -0.2366  1.2491 -1.7495
 3231TIP3   OH233887   3.132   6.315   1.891  0.1454 -0.2265 -0.1332
 3231TIP3    H133888   3.093   6.343   1.808  1.7707 -1.4131 -1.3694
 3231TIP3    H233889   3.119   6.220   1.892  0.6233 -0.2903  0.6987
 3232TIP3   OH233890   1.294   6.320   2.331 -0.2359 -0.1500  0.0809
 3232TIP3    H133891   1.281   6.318   2.426 -0.6185  0.7307  0.0563
 3232TIP3    H233892   1.308   6.412   2.311  1.2998 -0.4855 -0.5384
 3233TIP3   OH233893   2.693   1.532   9.908 -0.5053  0.0753  0.3143
 3233TIP3    H133894   2.607   1.533   9.866 -0.3612  1.8169 -0.0008
 3233TIP3    H233895   2.675   1.532  10.002 -0.8579  0.9916  0.2510
 3234TIP3   OH233896   4.833   5.357   6.767 -0.1271  0.2496  0.8285
 3234TIP3    H133897   4.893   5.294   6.808 -1.2215 -0.4446  1.4230
 3234TIP3    H233898   4.770   5.302   6.720 -0.5231  0.9420  0.5386
 3235TIP3   OH233899   6.218   6.555   0.160 -0.0737 -0.7273 -0.3075
 3235TIP3    H133900   6.278   6.486   0.189 -0.4074 -0.2577  1.6678
 3235TIP3    H233901   6.250   6.634   0.203 -0.9624 -0.0703 -0.8178
 3236TIP3   OH233902   6.582   1.833   1.017  0.2735 -0.4690 -0.3067
 3236TIP3    H133903   6.541   1.909   1.058  1.4783  0.6338 -1.0323
 3236TIP3    H233904   6.516   1.799   0.956 -0.4396 -0.2866  0.3576
 3237TIP3   OH233905   3.253   2.148   1.720 -0.2234  0.3867  0.9162
 3237TIP3    H133906   3.331   2.149   1.665 -0.4998  0.3080  0.5192
 3237TIP3    H233907   3.243   2.057   1.746 -1.2536  0.0276 -0.5909
 3238TIP3   OH233908   2.567   4.460   9.394  0.5635 -0.5996  0.0547
 3238TIP3    H133909   2.632   4.525   9.367 -1.8765  1.2040 -2.0062
 3238TIP3    H233910   2.491   4.512   9.420 -1.2620 -2.6020 -0.9867
 3239TIP3   OH233911   6.898   1.438   2.206  0.3786 -0.5328  0.4849
 3239TIP3    H133912   6.842   1.363   2.226  0.6083 -0.9788 -0.4834
 3239TIP3    H233913   6.983   1.400   2.186 -0.0622 -0.2742 -2.3127
 3240TIP3   OH233914   5.915   0.182   2.220  0.0087 -0.2403  0.4482
 3240TIP3    H133915   5.923   0.277   2.231  0.2099 -0.4403  2.1707
 3240TIP3    H233916   5.820   0.167   2.216 -0.0524  0.2351 -2.2999
 3241TIP3   OH233917   5.521   5.574   8.630  0.0983 -0.1582 -0.0685
 3241TIP3    H133918   5.475   5.542   8.552 -0.3427 -0.7361  0.4194
 3241TIP3    H233919   5.452   5.586   8.695  0.4745  0.2621  0.2627
 3242TIP3   OH233920   6.110   6.702   8.945 -0.0296 -0.0272 -0.4828
 3242TIP3    H133921   6.177   6.645   8.907 -1.0530 -0.4746 -1.6876
 3242TIP3    H233922   6.035   6.645   8.961 -0.7091  0.7614 -0.7408
 3243TIP3   OH233923   2.599   3.962   1.674  0.9367 -0.5949  0.5334
 3243TIP3    H133924   2.600   4.019   1.751 -1.4758  0.3355 -0.0204
 3243TIP3    H233925   2.548   3.885   1.701 -0.6988  0.1344 -0.3077
 3244TIP3   OH233926   2.254   6.264   7.580  0.4599 -0.1323  0.8873
 3244TIP3    H133927   2.218   6.337   7.530 -0.9089 -1.3685 -0.0123
 3244TIP3    H233928   2.255   6.191   7.519  0.6104 -1.1985  2.1085
 3245TIP3   OH233929   5.280   5.246   8.982 -0.2994  0.2869  0.2943
 3245TIP3    H133930   5.244   5.234   8.894 -0.8199  2.3377  0.1641
 3245TIP3    H233931   5.371   5.270   8.969 -0.1076 -0.3647  0.3864
 3246TIP3   OH233932   3.017   6.689   7.263 -0.4180  0.1466  0.1040
 3246TIP3    H133933   3.023   6.598   7.292 -3.7929 -0.1005  0.3853
 3246TIP3    H233934   2.957   6.687   7.189 -0.2582  2.1334 -0.1405
 3247TIP3   OH233935   2.683   2.818   7.270 -0.2865  0.5205 -0.3213
 3247TIP3    H133936   2.608   2.806   7.212 -0.6807 -1.5050  0.5020
 3247TIP3    H233937   2.735   2.887   7.229 -2.1745  1.4316 -1.3372
 3248TIP3   OH233938   6.443   7.089   1.294  0.0702 -0.3646  0.1292
 3248TIP3    H133939   6.533   7.092   1.326 -0.0877 -2.4851  0.9352
 3248TIP3    H233940   6.390   7.092   1.373 -0.5522  0.2534 -0.3077
 3249TIP3   OH233941   2.820   5.084   0.933 -0.7297 -0.5626 -0.4336
 3249TIP3    H133942   2.822   5.108   1.026 -1.2450 -2.2356  0.0497
 3249TIP3    H233943   2.892   5.134   0.894  1.0241 -1.5622  1.3184
 3250TIP3   OH233944   6.227   5.891   2.791 -0.3739 -0.4896  0.0082
 3250TIP3    H133945   6.269   5.969   2.755 -0.0017 -1.3907 -1.6144
 3250TIP3    H233946   6.134   5.915   2.796 -0.4212 -0.2628 -1.4650
 3251TIP3   OH233947   0.744   7.012   0.676  0.7225  0.1026 -0.0569
 3251TIP3    H133948   0.763   6.921   0.698 -3.3217 -0.9728 -0.2450
 3251TIP3    H233949   0.770   7.062   0.753  0.5866 -1.5954  1.1430
 3252TIP3   OH233950   2.092   0.049   8.940 -0.7743  0.2291 -0.7157
 3252TIP3    H133951   2.075   0.046   9.034 -1.1523 -2.0879 -0.8046
 3252TIP3    H233952   2.048   0.129   8.910  0.1366  1.5069  1.1856
 3253TIP3   OH233953   1.869   5.583   7.880 -0.1699  0.5835  0.3974
 3253TIP3    H133954   1.916   5.572   7.798 -0.6880  2.0512 -0.1286
 3253TIP3    H233955   1.882   5.675   7.904 -1.0725  0.5082  1.2905
 3254TIP3   OH233956   2.369   6.505   9.117 -0.0033 -0.0517  0.4643
 3254TIP3    H133957   2.398   6.576   9.174  3.4532  0.9874 -2.2384
 3254TIP3    H233958   2.295   6.542   9.069  0.1650  0.7933  0.8329
 3255TIP3   OH233959   1.186   5.038   6.812 -0.8974 -0.5881 -0.4420
 3255TIP3    H133960   1.158   4.952   6.844  1.7900 -1.1604  0.5743
 3255TIP3    H233961   1.208   5.023   6.720  1.7329 -1.6499  0.2693
 3256TIP3   OH233962   2.379   4.426   7.118  0.5509 -0.2748  0.4835
 3256TIP3    H133963   2.294   4.384   7.108  1.0007 -1.3085  0.8665
 3256TIP3    H233964   2.359   4.519   7.127 -0.5247 -0.4919  0.4622
 3257TIP3   OH233965   5.860   5.505   1.946  0.1931 -0.5373 -0.1433
 3257TIP3    H133966   5.864   5.564   2.022 -2.6895  0.3416 -0.5527
 3257TIP3    H233967   5.938   5.450   1.954  0.9546  0.7644  2.4152
 3258TIP3   OH233968   5.859   5.916   1.274  0.2140 -0.3420 -0.3099
 3258TIP3    H133969   5.876   5.931   1.181  1.8887 -1.2593 -0.1991
 3258TIP3    H233970   5.869   6.002   1.315 -1.1259  0.1817 -1.0207
 3259TIP3   OH233971   6.792   1.105   9.688  0.3586  0.4284 -0.8543
 3259TIP3    H133972   6.758   1.087   9.776  0.5597  0.3262 -0.7971
 3259TIP3    H233973   6.877   1.146   9.704  0.5125  0.1693 -1.0033
 3260TIP3   OH233974   6.920   1.332   0.720 -0.1235  0.1098  0.7082
 3260TIP3    H133975   6.967   1.414   0.736 -0.9269  0.4222  1.6088
 3260TIP3    H233976   6.946   1.275   0.792 -0.9580  0.2284  1.1219
 3261TIP3   OH233977   2.583   1.715   9.243  0.9419 -0.1303 -0.3773
 3261TIP3    H133978   2.646   1.643   9.245 -0.1850 -1.1536 -1.0085
 3261TIP3    H233979   2.531   1.700   9.164 -0.5096  0.3294  0.4491
 3262TIP3   OH233980   3.920   5.652   2.820 -0.1609 -0.2446 -0.1144
 3262TIP3    H133981   3.942   5.740   2.788  1.1074 -0.3431  0.3923
 3262TIP3    H233982   3.828   5.657   2.844 -0.3643  0.6563 -1.0324
 3263TIP3   OH233983   2.467   5.648   0.349 -0.1709 -0.3105  0.2064
 3263TIP3    H133984   2.404   5.660   0.420 -0.1402 -1.4705  0.4490
 3263TIP3    H233985   2.552   5.663   0.391 -0.1799 -0.5878  0.3323
 3264TIP3   OH233986   2.693   1.759   7.800 -0.3036  0.1494 -0.3347
 3264TIP3    H133987   2.623   1.747   7.864  0.5698 -1.4211  0.4077
 3264TIP3    H233988   2.773   1.733   7.847  0.5738  0.5031 -1.5793
 3265TIP3   OH233989   0.829   3.838   1.808 -0.5740 -0.0606  0.5604
 3265TIP3    H133990   0.739   3.810   1.824 -0.4340 -1.4084 -0.8413
 3265TIP3    H233991   0.882   3.759   1.822  0.0444 -0.0778 -1.5467
 3266TIP3   OH233992   5.319   1.134   8.400  0.0395  0.2164 -0.0879
 3266TIP3    H133993   5.330   1.197   8.472  0.3557  1.3510 -1.0949
 3266TIP3    H233994   5.262   1.067   8.436  0.1175  0.8061  1.1994
 3267TIP3   OH233995   7.121   6.273   0.667 -0.3866  0.2204  0.3482
 3267TIP3    H133996   7.048   6.257   0.608 -0.5834 -1.7803  1.0652
 3267TIP3    H233997   7.199   6.257   0.614 -0.5468 -0.7776  0.4012
 3268TIP3   OH233998   1.184   6.481   0.935 -0.5130  0.0608  0.1094
 3268TIP3    H133999   1.186   6.388   0.956  1.0119  0.1932  0.6253
 3268TIP3    H234000   1.275   6.504   0.917 -1.1078  1.0062 -2.0734
 3269TIP3   OH234001   2.105   1.726   8.087 -0.0329 -0.0306  0.2546
 3269TIP3    H134002   2.124   1.817   8.064  0.2553  0.1037  1.0109
 3269TIP3    H234003   2.191   1.683   8.091  0.0676  0.2839  2.4406
 3270TIP3   OH234004   1.214   0.762   0.909  0.5141 -0.0842  0.2781
 3270TIP3    H134005   1.233   0.714   0.990 -0.4249  1.8776  1.7639
 3270TIP3    H234006   1.286   0.825   0.901  0.1411  0.3249  0.0882
 3271TIP3   OH234007   4.887   6.406   8.781  0.1260 -0.5732 -0.0719
 3271TIP3    H134008   4.960   6.449   8.737 -0.9622  1.7405  0.2464
 3271TIP3    H234009   4.844   6.355   8.713  1.4765 -1.2587 -0.4539
 3272TIP3   OH234010   3.686   2.111   7.178 -1.0927 -0.0146 -0.5528
 3272TIP3    H134011   3.622   2.064   7.126  0.0856 -1.1889 -1.0044
 3272TIP3    H234012   3.770   2.089   7.138  0.0530 -2.2890  2.6722
 3273TIP3   OH234013   1.245   5.332   2.962 -0.8416 -0.1048  0.4021
 3273TIP3    H134014   1.298   5.275   3.017 -1.9065 -1.3654  0.1643
 3273TIP3    H234015   1.261   5.420   2.997 -0.8616 -0.7680  2.2188
 3274TIP3   OH234016   4.794   6.181   7.056 -0.4914 -0.1191 -0.1751
 3274TIP3    H134017   4.775   6.178   6.963 -1.6589 -1.1331  0.0699
 3274TIP3    H234018   4.724   6.129   7.097  0.9251 -1.1410  1.1038
 3275TIP3   OH234019   6.496   4.140   8.723  0.0879  0.2948 -0.4388
 3275TIP3    H134020   6.505   4.201   8.650  1.1638  0.1119 -0.4798
 3275TIP3    H234021   6.426   4.080   8.696  0.2449  0.4280 -1.1682
 3276TIP3   OH234022   6.145   2.564   9.278  0.2212 -0.2214  0.1442
 3276TIP3    H134023   6.211   2.623   9.314  1.3313 -1.0089 -0.5838
 3276TIP3    H234024   6.144   2.490   9.339 -0.0972 -0.1563  0.2221
 3277TIP3   OH234025   6.121   7.029   2.464  0.0541  0.2946 -0.0059
 3277TIP3    H134026   6.136   7.034   2.558  1.7191 -2.0667 -0.0420
 3277TIP3    H234027   6.194   6.977   2.431 -1.1183  0.0445 -2.4455
 3278TIP3   OH234028   6.361   2.102   0.749  0.1028  0.4209 -0.0285
 3278TIP3    H134029   6.282   2.093   0.696  1.0430  0.6145 -1.5037
 3278TIP3    H234030   6.400   2.014   0.748 -0.4747  0.1069  1.3908
 3279TIP3   OH234031   7.049   2.502   9.012  0.4737  0.2238  0.8410
 3279TIP3    H134032   7.132   2.485   9.057 -0.2076 -1.5945  1.4776
 3279TIP3    H234033   7.052   2.447   8.933  0.7799  1.8342 -0.3262
 3280TIP3   OH234034   0.657   5.459   9.960  0.2819 -0.6723 -0.3966
 3280TIP3    H134035   0.713   5.414  10.024  0.4690 -0.0074 -0.0910
 3280TIP3    H234036   0.712   5.527   9.923 -0.3402  0.0274 -0.0513
 3281TIP3   OH234037   1.350   2.971   8.926 -0.0396  0.2492  0.4992
 3281TIP3    H134038   1.350   3.001   9.017  1.2144  0.2252  0.5180
 3281TIP3    H234039   1.365   3.050   8.874 -0.2028  0.1779  0.3426
 3282TIP3   OH234040   2.708   6.247   0.804 -0.8886 -0.4560 -0.5575
 3282TIP3    H134041   2.733   6.339   0.817 -0.6260 -0.3862 -1.5204
 3282TIP3    H234042   2.698   6.212   0.893  0.1736  0.1838 -0.1763
 3283TIP3   OH234043   4.559   5.153   8.787  0.0668 -0.0412  0.1937
 3283TIP3    H134044   4.571   5.169   8.693 -0.1869  0.4276  0.2349
 3283TIP3    H234045   4.492   5.086   8.791 -2.5671  2.3915  0.0568
 3284TIP3   OH234046   2.037   0.470   1.186  0.2259 -0.2317  0.0182
 3284TIP3    H134047   2.109   0.429   1.138 -0.9860  0.6692 -2.7899
 3284TIP3    H234048   2.078   0.540   1.236  1.4733 -0.5160 -0.5591
 3285TIP3   OH234049   4.215   4.873   0.429  0.6164 -0.0629 -0.1285
 3285TIP3    H134050   4.226   4.883   0.334  1.7828  0.1722  0.0230
 3285TIP3    H234051   4.296   4.905   0.466 -0.1352  0.5913  1.0084
 3286TIP3   OH234052   6.791   0.989   2.451 -0.2003 -0.0214  0.0179
 3286TIP3    H134053   6.871   0.987   2.504 -1.0113  0.1678  1.2981
 3286TIP3    H234054   6.723   0.953   2.509 -1.2688  0.8983 -0.6143
 3287TIP3   OH234055   2.335   2.479   0.442  0.1965  0.2001 -0.1642
 3287TIP3    H134056   2.273   2.417   0.403 -1.0511  0.4518  1.2882
 3287TIP3    H234057   2.421   2.443   0.422 -0.4184 -0.4917 -1.7440
 3288TIP3   OH234058   1.957   0.807   2.972 -0.7652 -0.0305  0.7225
 3288TIP3    H134059   1.999   0.883   3.011 -2.3301  0.5132  1.4217
 3288TIP3    H234060   1.997   0.799   2.885  0.0633  1.0231  0.9953
 3289TIP3   OH234061   0.598   3.808   0.148 -0.3815 -0.0222  0.1674
 3289TIP3    H134062   0.573   3.800   0.056  0.8315  0.5745 -0.2315
 3289TIP3    H234063   0.520   3.844   0.191  0.6443  5.2819 -1.6646
 3290TIP3   OH234064   0.294   6.706   1.366 -0.0929 -0.4554  0.2898
 3290TIP3    H134065   0.330   6.677   1.282  2.9538  1.5024  0.7713
 3290TIP3    H234066   0.203   6.728   1.347  0.1689 -1.2733 -2.1934
 3291TIP3   OH234067   6.694   3.364   8.929 -0.1128 -0.5397  0.0423
 3291TIP3    H134068   6.694   3.281   8.881 -0.4995 -0.3812 -0.2422
 3291TIP3    H234069   6.718   3.429   8.863  1.8021 -0.6024  0.6132
 3292TIP3   OH234070   6.651   1.743   1.951 -0.0737  0.1216  0.2983
 3292TIP3    H134071   6.576   1.800   1.964  0.3188  0.5078  0.8886
 3292TIP3    H234072   6.654   1.730   1.856 -1.1852 -0.3255  0.3090
 3293TIP3   OH234073   5.033   0.655   0.448  0.0694 -0.6881  0.3112
 3293TIP3    H134074   5.124   0.646   0.477  0.3086  1.1440  0.2320
 3293TIP3    H234075   5.032   0.615   0.360  1.7605  2.4573 -1.3192
 3294TIP3   OH234076   5.115   3.363   8.566 -0.2606  0.2487 -0.5222
 3294TIP3    H134077   5.108   3.428   8.496  1.0264  1.1278  0.1238
 3294TIP3    H234078   5.054   3.294   8.541 -1.6085  1.6566 -1.2750
 3295TIP3   OH234079   1.727   2.126   0.219 -0.3892  0.6571 -0.0125
 3295TIP3    H134080   1.760   2.195   0.277 -2.0849  1.1645  0.4018
 3295TIP3    H234081   1.795   2.117   0.152  0.6917  1.4579  0.9329
 3296TIP3   OH234082   1.120   0.734   0.360 -0.1145  0.2910 -0.4309
 3296TIP3    H134083   1.090   0.659   0.412 -1.0341  0.8422 -0.1356
 3296TIP3    H234084   1.078   0.722   0.275  0.0796  0.2487 -0.5211
 3297TIP3   OH234085   6.909   0.888   1.976 -0.6242  0.3187 -0.1272
 3297TIP3    H134086   6.973   0.912   2.043  0.2497 -1.3780 -0.2993
 3297TIP3    H234087   6.862   0.969   1.957  2.1665  1.9201 -0.7535
 3298TIP3   OH234088   6.182   0.494   8.175  0.2256 -0.2473 -0.0556
 3298TIP3    H134089   6.225   0.577   8.152  0.7622 -0.2385  0.9097
 3298TIP3    H234090   6.213   0.433   8.108  2.1817 -0.3559  0.8626
 3299TIP3   OH234091   4.504   5.825   2.578  0.5621 -0.7451 -0.1709
 3299TIP3    H134092   4.560   5.898   2.605 -1.2802  1.0933 -1.0519
 3299TIP3    H234093   4.529   5.806   2.488 -0.4877  0.4001 -0.7283
 3300TIP3   OH234094   0.164   5.399   6.956  0.1735 -0.5616  0.4001
 3300TIP3    H134095   0.221   5.452   6.901  0.9584 -0.1349  1.5738
 3300TIP3    H234096   0.210   5.316   6.967 -0.4790 -1.0514 -0.4277
 3301TIP3   OH234097   4.847   7.121   1.202  0.1137 -0.0274  0.2548
 3301TIP3    H134098   4.805   7.085   1.280 -0.1657 -0.3689 -0.0445
 3301TIP3    H234099   4.918   7.060   1.182 -0.8360 -0.8701 -0.6956
 3302TIP3   OH234100   6.026   7.274   1.459  0.1841 -0.1915  0.1806
 3302TIP3    H134101   6.060   7.344   1.403  1.0489 -1.1895 -0.5824
 3302TIP3    H234102   5.953   7.237   1.409 -0.9201  0.7847  1.0239
 3303TIP3   OH234103   3.504   3.553   1.920  0.0947 -0.4098  0.0021
 3303TIP3    H134104   3.571   3.513   1.976  0.1190  2.2439  2.0521
 3303TIP3    H234105   3.545   3.557   1.833  1.6920 -0.9082  0.6850
 3304TIP3   OH234106   2.491   5.817   0.721  0.0312 -0.1810 -0.7284
 3304TIP3    H134107   2.475   5.817   0.815  1.0388  1.6699 -0.5183
 3304TIP3    H234108   2.439   5.744   0.688 -1.9784  0.3676  0.9876
 3305TIP3   OH234109   0.301   3.294   7.279 -0.7216 -0.3924 -0.3005
 3305TIP3    H134110   0.223   3.242   7.257 -0.2898 -1.5555  0.7947
 3305TIP3    H234111   0.360   3.232   7.321 -0.4951  1.1296  1.7826
 3306TIP3   OH234112   6.157   4.976   1.294 -0.2334  0.0780 -0.2853
 3306TIP3    H134113   6.127   4.887   1.314  1.6293 -0.2117  1.5832
 3306TIP3    H234114   6.079   5.030   1.302 -0.6421 -0.8016  3.0366
 3307TIP3   OH234115   3.408   0.017   9.560  0.1254  0.0850 -0.4889
 3307TIP3    H134116   3.361  -0.064   9.539  0.3769  0.1563 -1.3551
 3307TIP3    H234117   3.389   0.075   9.487  1.0059  0.3584 -0.5045
 3308TIP3   OH234118   7.176   3.749   2.343 -0.8397  0.3864 -0.1532
 3308TIP3    H134119   7.140   3.675   2.392 -1.3909  1.4460  1.1042
 3308TIP3    H234120   7.158   3.728   2.251 -0.7605 -1.1393  0.1577
 3309TIP3   OH234121   3.599   5.461   2.427  0.3412 -0.6815 -0.0801
 3309TIP3    H134122   3.531   5.486   2.490  0.8522  0.6730 -0.0459
 3309TIP3    H234123   3.560   5.476   2.341  0.5212 -0.0732 -0.0607
 3310TIP3   OH234124   3.457   6.942   8.611  0.6573 -0.1523 -0.2264
 3310TIP3    H134125   3.392   6.921   8.678  0.3906 -0.4628 -0.5790
 3310TIP3    H234126   3.525   6.990   8.658 -0.2735  1.0290 -0.0309
 3311TIP3   OH234127   6.730   3.282   8.074 -0.4173 -0.2584 -0.4842
 3311TIP3    H134128   6.697   3.335   8.002  0.9781  0.3545 -0.7155
 3311TIP3    H234129   6.781   3.213   8.031 -0.6761 -0.6850 -0.1195
 3312TIP3   OH234130   6.836   3.066   0.359 -0.0124 -0.6865 -0.0066
 3312TIP3    H134131   6.757   3.089   0.311  1.2325  0.2669 -1.7121
 3312TIP3    H234132   6.887   3.014   0.298  0.9343 -0.8123  0.8607
 3313TIP3   OH234133   1.321   6.031   3.054 -0.0574 -0.6528 -0.5321
 3313TIP3    H134134   1.299   6.123   3.043  0.2257 -0.4972  0.1954
 3313TIP3    H234135   1.342   6.001   2.965 -0.6963 -0.1646 -0.8552
 3314TIP3   OH234136   1.257   1.576   2.457  0.3340  0.5762 -0.0334
 3314TIP3    H134137   1.231   1.623   2.377  0.6149  0.9847  0.1115
 3314TIP3    H234138   1.310   1.639   2.505  1.0209 -0.0098 -0.0057
 3315TIP3   OH234139   4.868   6.889   1.878  0.3148 -0.2494  0.4623
 3315TIP3    H134140   4.815   6.810   1.889 -0.7798  0.6381  1.8840
 3315TIP3    H234141   4.827   6.953   1.936  0.1497  1.8821 -1.8416
 3316TIP3   OH234142   3.790   6.646   8.121  0.6888 -0.7276 -0.5989
 3316TIP3    H134143   3.708   6.686   8.150  1.0640 -0.8813  0.7520
 3316TIP3    H234144   3.798   6.672   8.030 -0.0763  0.6050 -0.3152
 3317TIP3   OH234145   1.326   6.604   2.342 -0.0892 -0.0453 -0.4408
 3317TIP3    H134146   1.283   6.690   2.337  0.4523  0.3123  0.6168
 3317TIP3    H234147   1.286   6.562   2.418  1.5848  0.4316  0.7730
 3318TIP3   OH234148   5.777   1.390   1.914 -0.1147  0.0095 -0.7299
 3318TIP3    H134149   5.707   1.381   1.978 -0.4390 -1.2290 -1.2253
 3318TIP3    H234150   5.853   1.349   1.955  0.2140  0.9240 -0.3881
 3319TIP3   OH234151   4.655   1.817   9.461 -0.1587  0.5166  0.5823
 3319TIP3    H134152   4.687   1.877   9.394 -0.5080  1.3356  1.1348
 3319TIP3    H234153   4.716   1.828   9.534  1.4000 -1.8079 -0.2685
 3320TIP3   OH234154   0.117   4.856   1.280  0.4167  0.6941  0.5638
 3320TIP3    H134155   0.175   4.825   1.211 -1.7730 -1.3728 -0.5149
 3320TIP3    H234156   0.087   4.942   1.249  2.7400  1.8055  1.1508
 3321TIP3   OH234157   4.386   3.441   0.109  0.2130 -0.5874  0.1628
 3321TIP3    H134158   4.352   3.396   0.187 -0.0334 -0.1382  0.3184
 3321TIP3    H234159   4.479   3.419   0.108 -0.0855 -1.9496 -0.3543
 3322TIP3   OH234160   3.881   4.392   8.358 -0.1267  0.5080 -0.3811
 3322TIP3    H134161   3.932   4.467   8.388 -0.7075  0.5576  0.5062
 3322TIP3    H234162   3.885   4.398   8.262  0.7470  1.0343 -0.3276
 3323TIP3   OH234163   2.125   1.031   2.979 -0.0819 -0.0807  0.6158
 3323TIP3    H134164   2.108   1.111   2.930 -0.2037  0.5471  1.6407
 3323TIP3    H234165   2.205   1.049   3.028 -0.2526 -0.4795  1.0564
 3324TIP3   OH234166   4.417   1.137   0.737  0.5444 -0.8626  0.0990
 3324TIP3    H134167   4.338   1.086   0.719 -0.4431  0.5157  0.4117
 3324TIP3    H234168   4.486   1.092   0.688 -0.7327 -1.1891 -1.4988
 3325TIP3   OH234169   2.288   2.387   8.773  0.4414 -0.1422  0.2345
 3325TIP3    H134170   2.232   2.316   8.744  0.0365 -0.1174  0.9396
 3325TIP3    H234171   2.250   2.465   8.732  0.2797 -0.1941  0.2860
 3326TIP3   OH234172   5.286   1.330   9.082 -0.4086  0.3905  0.3749
 3326TIP3    H134173   5.372   1.356   9.118  0.0072 -2.6338  1.8928
 3326TIP3    H234174   5.228   1.331   9.158 -0.5247 -2.1413  0.3890
 3327TIP3   OH234175   3.093   6.279   1.522 -0.2903  0.5874 -0.7113
 3327TIP3    H134176   3.113   6.318   1.436  0.5561 -0.8143 -1.1921
 3327TIP3    H234177   3.009   6.317   1.547 -0.3391  1.3577 -1.9550
 3328TIP3   OH234178   0.690   6.664   1.477 -0.7257  0.0866  0.1913
 3328TIP3    H134179   0.745   6.725   1.428  0.2595 -0.8191  0.1379
 3328TIP3    H234180   0.690   6.584   1.424 -1.2169 -0.2748  0.7245
 3329TIP3   OH234181   3.560   6.200   9.162 -0.5504 -0.4191 -0.4931
 3329TIP3    H134182   3.593   6.270   9.105 -1.4623 -0.4465 -1.0767
 3329TIP3    H234183   3.593   6.119   9.121  1.5440 -0.3217  0.8631
 3330TIP3   OH234184   5.704   5.587   1.735 -0.0916 -0.5245 -0.6891
 3330TIP3    H134185   5.764   5.559   1.804  1.8460 -2.3393 -2.9773
 3330TIP3    H234186   5.731   5.676   1.714 -0.0485 -0.3256  0.1609
 3331TIP3   OH234187   7.257   1.488   2.343 -0.1261  0.1259  0.6726
 3331TIP3    H134188   7.228   1.445   2.424 -1.0243 -3.5741 -1.3614
 3331TIP3    H234189   7.350   1.469   2.337  0.3333  1.9076  1.5880
 3332TIP3   OH234190   4.013   3.897   9.293  0.1618 -0.7900 -0.4159
 3332TIP3    H134191   3.978   3.914   9.206  3.0088  0.8717 -1.3723
 3332TIP3    H234192   4.103   3.929   9.289  0.5044 -0.9535  3.0629
 3333TIP3   OH234193   3.229   5.641   9.726  0.0917  0.0586 -0.1851
 3333TIP3    H134194   3.242   5.548   9.706 -0.8027 -0.2251  0.4519
 3333TIP3    H234195   3.287   5.687   9.666  0.6876 -0.9209 -0.3845
 3334TIP3   OH234196   2.877   2.819   0.467  0.4733  0.1847 -0.3739
 3334TIP3    H134197   2.886   2.907   0.429 -0.4265  1.2355  1.7325
 3334TIP3    H234198   2.827   2.770   0.401 -2.9847  2.5765  0.2228
 3335TIP3   OH234199   3.086   3.368   9.790  0.6351 -0.3466  0.3775
 3335TIP3    H134200   3.108   3.293   9.845  0.7924  0.8418  1.9971
 3335TIP3    H234201   3.033   3.425   9.846 -2.0013 -0.5518 -1.6919
 3336TIP3   OH234202   4.186   4.880   1.190  0.2784 -0.1537  0.3242
 3336TIP3    H134203   4.096   4.868   1.160 -0.2311  1.9542  0.9096
 3336TIP3    H234204   4.182   4.953   1.251  2.5758  0.8257 -0.5722
 3337TIP3   OH234205   5.408   4.142   0.970  0.8924 -0.1190 -0.0613
 3337TIP3    H134206   5.459   4.222   0.975  1.6061 -0.6354  1.7226
 3337TIP3    H234207   5.469   4.076   0.936  0.0081  0.2578 -2.6123
 3338TIP3   OH234208   5.373   0.314   1.338 -0.6008  0.1685  0.0280
 3338TIP3    H134209   5.356   0.290   1.429  0.9472  0.6372  0.4712
 3338TIP3    H234210   5.445   0.377   1.343  1.4809 -1.8928 -1.6804
 3339TIP3   OH234211   1.968   4.340   8.989 -0.3256 -0.1321 -0.1575
 3339TIP3    H134212   1.913   4.374   9.059 -1.3088 -0.5534 -0.7110
 3339TIP3    H234213   2.022   4.415   8.962  0.4809 -0.1099  1.4046
 3340TIP3   OH234214   1.603   2.470   7.957  0.6096  0.0742 -0.2191
 3340TIP3    H134215   1.541   2.533   7.920  0.2205 -0.1459  0.0506
 3340TIP3    H234216   1.563   2.441   8.039  0.3653 -1.1666 -0.7421
 3341TIP3   OH234217   1.121   6.619   6.989  0.2517  0.1493  0.2934
 3341TIP3    H134218   1.181   6.582   6.924  1.0589  0.3029  0.9352
 3341TIP3    H234219   1.061   6.673   6.937  0.5673 -0.1378 -0.3827
 3342TIP3   OH234220   1.644   6.460   8.771  0.0077 -0.0023 -0.2352
 3342TIP3    H134221   1.674   6.549   8.754  2.2278 -0.5504  0.4268
 3342TIP3    H234222   1.683   6.438   8.856 -1.0046 -1.4002 -0.1027
 3343TIP3   OH234223   5.405   4.435   8.982 -0.1409  0.1665  0.7658
 3343TIP3    H134224   5.336   4.385   9.026  1.4058 -0.6736  2.3561
 3343TIP3    H234225   5.449   4.370   8.926 -0.8886  0.8022 -0.6109
 3344TIP3   OH234226   6.597   2.810   1.668  0.4029  0.6364 -0.0871
 3344TIP3    H134227   6.684   2.827   1.633  0.0381  1.4286 -0.6345
 3344TIP3    H234228   6.606   2.825   1.762  1.3920 -1.5173  0.2237
 3345TIP3   OH234229   4.140   1.776   7.701  0.2518  0.3790  0.7256
 3345TIP3    H134230   4.072   1.724   7.745 -0.0312 -0.0471 -0.1878
 3345TIP3    H234231   4.091   1.841   7.651  0.2870 -1.6913 -2.2439
 3346TIP3   OH234232   0.240   7.193   2.355 -0.1270  0.2512 -0.3492
 3346TIP3    H134233   0.199   7.110   2.378  1.4474 -0.7417 -0.9479
 3346TIP3    H234234   0.267   7.231   2.439  0.0008 -0.3223 -0.1253
 3347TIP3   OH234235   6.238   5.215   2.298 -0.1443  0.3279  0.3755
 3347TIP3    H134236   6.217   5.179   2.212 -1.8413  0.4088  0.7278
 3347TIP3    H234237   6.173   5.177   2.357  0.8718  0.4291  1.5958
 3348TIP3   OH234238   0.814   4.520   1.243 -0.2951 -0.7875 -0.1703
 3348TIP3    H134239   0.785   4.611   1.232  0.2088 -0.6181 -0.1548
 3348TIP3    H234240   0.749   4.480   1.300 -0.1073 -0.2189  0.4523
 3349TIP3   OH234241   1.238   6.719   8.072 -0.2151 -0.2956 -0.5495
 3349TIP3    H134242   1.280   6.770   8.141  0.4471 -1.2982 -0.1852
 3349TIP3    H234243   1.253   6.628   8.097 -2.0812 -0.6971 -0.7399
 3350TIP3   OH234244   3.106   2.085   0.928  0.5303  0.0243  0.1384
 3350TIP3    H134245   3.197   2.078   0.900  0.5090  1.4764 -0.3868
 3350TIP3    H234246   3.111   2.109   1.021  0.6898 -0.0497  0.1481
 3351TIP3   OH234247   6.486   5.666   8.704  0.3776  0.3921 -0.2370
 3351TIP3    H134248   6.560   5.623   8.748  0.0305 -1.0563 -1.0045
 3351TIP3    H234249   6.462   5.738   8.763  2.2277  0.7587  0.1419
 3352TIP3   OH234250   1.935   6.857   1.427 -0.5401  0.4090 -0.2003
 3352TIP3    H134251   1.888   6.788   1.380 -0.3566 -0.4454  0.8334
 3352TIP3    H234252   1.904   6.850   1.517  1.5179 -0.1944  0.5358
 3353TIP3   OH234253   6.596   1.067   0.723 -0.3555  0.2348 -1.3017
 3353TIP3    H134254   6.668   1.006   0.740 -0.6753 -0.0999 -1.1344
 3353TIP3    H234255   6.577   1.056   0.630 -1.0696 -0.6526 -1.0618
 3354TIP3   OH234256   5.696   2.943   1.618  0.1726  0.0022  0.5051
 3354TIP3    H134257   5.743   2.997   1.554  3.2892 -1.4467  1.3343
 3354TIP3    H234258   5.758   2.934   1.691 -1.2412 -2.4883  1.5338
 3355TIP3   OH234259   2.774   6.305   8.529  0.2245 -0.5102  0.2131
 3355TIP3    H134260   2.859   6.296   8.571  1.3426  0.5405 -1.6614
 3355TIP3    H234261   2.725   6.227   8.555  2.1340 -1.6561  0.5450
 3356TIP3   OH234262   1.077   5.210   1.356 -0.3610 -0.3992 -0.7101
 3356TIP3    H134263   1.147   5.263   1.319  0.1851 -1.6164 -1.4928
 3356TIP3    H234264   1.007   5.213   1.290  0.0567 -1.4178 -1.2206
 3357TIP3   OH234265   1.070   0.254   2.660 -0.0604  0.6433  0.0016
 3357TIP3    H134266   1.086   0.343   2.628 -1.3201  1.2112  0.8229
 3357TIP3    H234267   1.090   0.259   2.754 -1.6376  0.5173  0.3737
 3358TIP3   OH234268   4.746   4.095   0.919 -0.1848 -0.0784 -0.3225
 3358TIP3    H134269   4.838   4.089   0.944 -0.0486  2.2396 -0.0409
 3358TIP3    H234270   4.698   4.071   0.998  0.2561  4.1285  1.4771
 3359TIP3   OH234271   4.794   4.402   7.773  0.5076 -0.2432 -0.8367
 3359TIP3    H134272   4.780   4.456   7.695  2.8979 -0.3578 -1.4372
 3359TIP3    H234273   4.707   4.392   7.812 -0.7994 -0.2787 -3.5325
 3360TIP3   OH234274   5.891   3.225   1.339 -0.3173 -0.5269  0.0384
 3360TIP3    H134275   5.869   3.159   1.406  0.0227  1.1325  1.8923
 3360TIP3    H234276   5.985   3.216   1.327 -0.1858 -0.0958  0.6636
 3361TIP3   OH234277   4.718   4.797   6.893 -0.3310  0.0370  0.2615
 3361TIP3    H134278   4.669   4.836   6.820  1.2022 -1.2998 -1.5490
 3361TIP3    H234279   4.770   4.728   6.854  0.0299 -1.2413  2.7677
 3362TIP3   OH234280   5.386   3.137   2.925  0.0508  0.1546 -0.2116
 3362TIP3    H134281   5.451   3.180   2.868  1.6407  0.6242  1.8254
 3362TIP3    H234282   5.317   3.202   2.935 -1.7650 -0.9730 -3.7982
 3363TIP3   OH234283   6.646   2.040   0.372 -0.3461  0.0046  0.0913
 3363TIP3    H134284   6.609   2.001   0.451 -3.0996 -1.2472 -1.6588
 3363TIP3    H234285   6.696   1.970   0.331 -0.8773 -0.0890 -0.4109
 3364TIP3   OH234286   0.006   1.633   1.869  0.4237 -0.0093  0.2265
 3364TIP3    H134287   0.035   1.711   1.917  0.1871  0.0083  0.3386
 3364TIP3    H234288   0.071   1.566   1.890  1.1576  0.4159 -0.6087
 3365TIP3   OH234289   6.455   3.720   9.316  0.4861  0.6240 -0.6896
 3365TIP3    H134290   6.380   3.696   9.261  0.6187  1.6830 -1.3702
 3365TIP3    H234291   6.423   3.711   9.406 -0.2763  0.5338 -0.9602
 3366TIP3   OH234292   6.471   2.963   2.517  0.4340  0.1245  0.4487
 3366TIP3    H134293   6.458   3.050   2.479 -1.4951  0.2500  1.2909
 3366TIP3    H234294   6.462   2.976   2.611  0.8099 -0.8956  0.6366
 3367TIP3   OH234295   0.267   5.412   0.194  0.1147 -0.0220 -0.2181
 3367TIP3    H134296   0.313   5.469   0.133  1.5497 -0.0780  0.7629
 3367TIP3    H234297   0.279   5.324   0.158 -0.0320  0.0541 -0.4559
 3368TIP3   OH234298   2.776   1.831   1.847  0.2691  0.1559  0.1554
 3368TIP3    H134299   2.783   1.783   1.764  0.7954  0.7372 -0.1456
 3368TIP3    H234300   2.843   1.791   1.903 -1.7562 -1.9802  1.2281
 3369TIP3   OH234301   0.738   7.230   0.849 -0.6343 -0.9203 -0.4698
 3369TIP3    H134302   0.665   7.237   0.788 -1.6330 -0.6321  0.7110
 3369TIP3    H234303   0.759   7.321   0.871 -0.2049 -1.0200 -0.4658
 3370TIP3   OH234304   3.089   5.549   8.623 -0.0918  0.2215  0.2466
 3370TIP3    H134305   2.999   5.529   8.650 -0.1496  0.1255 -0.0178
 3370TIP3    H234306   3.132   5.463   8.621 -0.6838 -0.0768 -2.1866
 3371TIP3   OH234307   6.460   4.554   9.909  0.4476 -0.1574  0.3130
 3371TIP3    H134308   6.531   4.492   9.897  1.2329  0.8940 -0.7106
 3371TIP3    H234309   6.433   4.578   9.820  0.0035  0.7735  0.6787
 3372TIP3   OH234310   1.138   5.552   1.932  0.2720 -0.3430 -0.3315
 3372TIP3    H134311   1.125   5.472   1.881  0.2129  0.0706 -0.9742
 3372TIP3    H234312   1.225   5.542   1.971  0.2481 -0.7356 -0.3822
 3373TIP3   OH234313   4.313   1.270   1.004  0.3335  0.4505 -0.4060
 3373TIP3    H134314   4.353   1.245   0.921  0.9025  2.1650 -0.7053
 3373TIP3    H234315   4.277   1.358   0.987 -0.0831  0.5718  0.9846
 3374TIP3   OH234316   3.329   3.736   9.173  0.3288 -0.0992 -0.1708
 3374TIP3    H134317   3.398   3.670   9.167 -0.3524 -0.9538  0.8860
 3374TIP3    H234318   3.301   3.732   9.265 -0.4014  0.9787 -0.3302
 3375TIP3   OH234319   2.108   0.287   1.443 -0.0807 -0.2335 -0.0327
 3375TIP3    H134320   2.064   0.296   1.359  1.1869 -1.5266 -0.8827
 3375TIP3    H234321   2.046   0.240   1.498 -0.2565 -0.9606 -0.8296
 3376TIP3   OH234322   4.778   2.824   0.778  0.0954 -0.5004 -0.5036
 3376TIP3    H134323   4.771   2.730   0.790 -1.3541 -0.4812 -0.9597
 3376TIP3    H234324   4.871   2.843   0.787  0.5131 -2.0789 -1.1620
 3377TIP3   OH234325   4.312   5.290   8.360  0.3138 -0.3383  0.0751
 3377TIP3    H134326   4.244   5.274   8.295  0.3859 -1.9805  0.3494
 3377TIP3    H234327   4.382   5.334   8.312 -0.2385 -0.1739 -0.5962
 3378TIP3   OH234328   0.663   3.367   0.547 -0.2220  0.2308 -0.1952
 3378TIP3    H134329   0.597   3.368   0.478 -0.2417  0.1384 -0.1777
 3378TIP3    H234330   0.714   3.288   0.531  0.3189  0.6583 -0.6134
 3379TIP3   OH234331   4.141   0.077   1.885 -0.2102  0.8161 -0.4237
 3379TIP3    H134332   4.234   0.053   1.882 -0.4224 -0.5075  1.6819
 3379TIP3    H234333   4.139   0.158   1.936 -0.3414 -0.2802  1.3854
 3380TIP3   OH234334   0.898   2.218   0.696 -0.1062 -0.0088 -0.4841
 3380TIP3    H134335   0.929   2.152   0.758 -0.1781 -0.3842 -0.8428
 3380TIP3    H234336   0.814   2.247   0.731 -0.4152 -0.6239 -0.6920
 3381TIP3   OH234337   3.033   5.623   6.048 -0.1319 -0.4748 -0.2645
 3381TIP3    H134338   3.017   5.537   6.087  0.1914 -0.9744 -1.1907
 3381TIP3    H234339   3.037   5.606   5.954 -0.2817  0.5949 -0.4750
 3382TIP3   OH234340   2.391   1.645   9.030 -0.5553 -0.4918 -0.3423
 3382TIP3    H134341   2.351   1.723   8.991 -0.6204 -0.8349 -0.9788
 3382TIP3    H234342   2.376   1.576   8.965 -0.7119 -1.0905  0.3187
 3383TIP3   OH234343   0.524   5.354   9.554 -0.3959  0.4387 -0.5091
 3383TIP3    H134344   0.531   5.348   9.649 -1.0369 -0.2363 -0.4922
 3383TIP3    H234345   0.485   5.439   9.537 -0.8417  0.3121 -0.1299
 3384TIP3   OH234346   2.781   3.442   8.616  0.1700 -0.4868  0.3126
 3384TIP3    H134347   2.690   3.468   8.607  0.4241 -0.0527 -1.1626
 3384TIP3    H234348   2.779   3.346   8.614 -0.0270 -0.4965 -2.7293
 3385TIP3   OH234349   4.391   3.087   8.371 -0.3600 -0.0158  0.5044
 3385TIP3    H134350   4.396   3.167   8.424  0.4131  1.4343 -1.6286
 3385TIP3    H234351   4.297   3.071   8.360 -0.5309 -0.2164  2.0527
 3386TIP3   OH234352   3.025   4.270   2.336 -0.1483  0.1613 -0.2917
 3386TIP3    H134353   3.098   4.249   2.394 -0.5888  1.0740  0.6226
 3386TIP3    H234354   3.024   4.366   2.331  0.3622  0.1056 -2.4560
 3387TIP3   OH234355   6.337   1.293   8.631 -0.1042  0.1963 -0.0731
 3387TIP3    H134356   6.404   1.341   8.680  0.2139 -1.2329  0.9891
 3387TIP3    H234357   6.261   1.352   8.630 -0.2155  0.2289  2.4368
 3388TIP3   OH234358   6.760   4.011   8.570  0.7193  0.1773  0.1059
 3388TIP3    H134359   6.782   4.057   8.488 -0.7700  1.0633  0.1557
 3388TIP3    H234360   6.677   3.968   8.551  1.1640 -0.9734  0.6720
 3389TIP3   OH234361   2.964   3.085   1.337 -0.2843 -0.5735 -0.2919
 3389TIP3    H134362   2.892   3.120   1.285 -1.2345 -0.8254  0.8049
 3389TIP3    H234363   2.981   2.999   1.299 -2.4461 -1.7071  1.0640
 3390TIP3   OH234364   4.552   6.093   7.100 -0.6745 -0.6855  0.0242
 3390TIP3    H134365   4.556   6.020   7.038 -0.5579  0.9004 -1.9156
 3390TIP3    H234366   4.507   6.163   7.052  1.0013  1.2071  1.0691
 3391TIP3   OH234367   2.677   5.447   0.888 -0.4854 -0.2114 -0.4546
 3391TIP3    H134368   2.739   5.520   0.893  2.1775 -2.3453  1.0355
 3391TIP3    H234369   2.704   5.398   0.810  0.4847 -1.7088  0.7601
 3392TIP3   OH234370   6.219   3.995   9.955  0.2227 -0.1509 -0.1504
 3392TIP3    H134371   6.224   4.069  10.017 -2.7537  0.2475 -0.1979
 3392TIP3    H234372   6.174   3.927  10.004  0.7587 -1.0523 -0.8875
 3393TIP3   OH234373   3.696   6.621   0.870 -0.0433 -0.1199  0.1561
 3393TIP3    H134374   3.624   6.572   0.829 -0.4146 -0.2405  0.9253
 3393TIP3    H234375   3.693   6.707   0.829 -0.0686 -0.4043 -0.4456
 3394TIP3   OH234376   2.497   3.819   1.009 -0.3703 -0.1070 -0.4031
 3394TIP3    H134377   2.487   3.745   0.948  0.8048  0.5257 -1.4075
 3394TIP3    H234378   2.412   3.863   1.006 -0.5599 -0.4902 -1.0498
 3395TIP3   OH234379   3.843   4.764   2.394 -0.2037 -0.1601  0.0184
 3395TIP3    H134380   3.835   4.795   2.484 -0.7383 -0.4940  0.0927
 3395TIP3    H234381   3.905   4.824   2.353  0.7737 -0.5759  0.8600
 3396TIP3   OH234382   5.417   5.764   1.135  0.2485  0.5882 -0.0525
 3396TIP3    H134383   5.362   5.722   1.069  1.8541 -0.6401 -0.6812
 3396TIP3    H234384   5.374   5.848   1.152 -2.2095 -0.6316  0.0899
 3397TIP3   OH234385   3.394   0.332   2.143 -0.3818  0.6284 -0.1892
 3397TIP3    H134386   3.454   0.337   2.218 -1.3116 -0.0687  0.6280
 3397TIP3    H234387   3.445   0.290   2.074  0.0834  0.0774  0.4784
 3398TIP3   OH234388   6.472   6.326   8.016  0.3386 -0.3561  0.2163
 3398TIP3    H134389   6.492   6.341   7.924 -1.1793  0.8569  0.0519
 3398TIP3    H234390   6.383   6.358   8.028 -0.0495 -1.8234  1.7992
 3399TIP3   OH234391   0.281   0.194   0.029 -0.0753 -0.1441 -0.1749
 3399TIP3    H134392   0.345   0.146  -0.024 -1.0848 -0.8702 -0.7824
 3399TIP3    H234393   0.315   0.188   0.118  2.3234  2.1602 -0.8040
 3400TIP3   OH234394   2.112   4.728   9.378  0.3317 -0.8167  0.2818
 3400TIP3    H134395   2.074   4.786   9.312  0.8362 -1.3492 -0.4961
 3400TIP3    H234396   2.042   4.665   9.398 -0.2046  0.0184  1.1041
 3401TIP3   OH234397   6.802   0.604   1.971  0.2954  0.2294 -0.4063
 3401TIP3    H134398   6.860   0.679   1.956  0.0441  0.2561 -1.2854
 3401TIP3    H234399   6.789   0.603   2.066  0.8203  0.9088 -0.3169
 3402TIP3   OH234400   3.453   2.971   9.014 -0.6961 -0.1573 -0.2265
 3402TIP3    H134401   3.509   2.910   9.062  1.3315 -0.1611 -2.3901
 3402TIP3    H234402   3.383   2.917   8.978 -1.6199 -0.3300  1.7036
 3403TIP3   OH234403   2.106   3.498   9.131  0.3300  0.0943 -0.5857
 3403TIP3    H134404   2.113   3.592   9.145  1.1250  0.1061 -0.9891
 3403TIP3    H234405   2.162   3.480   9.055 -1.2700 -0.4370 -1.6981
 3404TIP3   OH234406   0.462   6.785   0.646 -0.0350  0.0823 -0.1656
 3404TIP3    H134407   0.371   6.793   0.673  0.1059 -0.1777  0.4092
 3404TIP3    H234408   0.512   6.798   0.727  0.4249 -0.0543 -0.4238
 3405TIP3   OH234409   4.388   0.265   7.365 -0.2543 -0.0423  0.2634
 3405TIP3    H134410   4.407   0.281   7.273  0.5895 -1.1028  0.2285
 3405TIP3    H234411   4.411   0.347   7.409 -1.5515  0.8053 -0.5516
 3406TIP3   OH234412   7.077   4.332   1.337  0.0356  0.6493  0.5005
 3406TIP3    H134413   7.054   4.374   1.254 -1.3627  1.6697  1.3685
 3406TIP3    H234414   7.171   4.346   1.346 -0.1825  2.5473  0.1546
 3407TIP3   OH234415   4.190   3.003   8.154  0.4046  0.4490 -0.0854
 3407TIP3    H134416   4.156   2.976   8.239  0.9131  0.6374  0.1820
 3407TIP3    H234417   4.271   2.952   8.144 -0.0602 -0.1695 -0.8120
 3408TIP3   OH234418   4.054   5.749   2.082 -0.1199  0.2042  0.1651
 3408TIP3    H134419   4.059   5.697   2.002 -3.0809 -0.9781  0.5940
 3408TIP3    H234420   4.060   5.685   2.153  0.2936  0.9597  0.8222
 3409TIP3   OH234421   4.278   4.414   8.889  0.3601  0.7940  0.0171
 3409TIP3    H134422   4.198   4.465   8.881 -1.1121 -1.4945 -0.7760
 3409TIP3    H234423   4.269   4.366   8.971 -0.2694 -1.2728 -1.1832
 3410TIP3   OH234424   1.752   1.367   9.227  0.0607 -0.7935 -0.0308
 3410TIP3    H134425   1.713   1.385   9.313  1.7030  1.0732  0.4149
 3410TIP3    H234426   1.710   1.429   9.168  0.0908 -0.9511 -0.2189
 3411TIP3   OH234427   2.036   5.456   8.661 -0.2833  0.1595 -0.1755
 3411TIP3    H134428   2.043   5.392   8.590  0.2717 -2.0093  1.6838
 3411TIP3    H234429   1.960   5.428   8.711  0.3683  0.5124  1.0602
 3412TIP3   OH234430   3.790   6.258   8.499 -0.0338  0.6255  0.6652
 3412TIP3    H134431   3.783   6.169   8.465  0.2858  1.2984 -1.3433
 3412TIP3    H234432   3.876   6.288   8.468 -0.9727  2.2960 -0.5010
 3413TIP3   OH234433   0.799   4.290   0.357  0.3105 -0.5483 -0.0866
 3413TIP3    H134434   0.832   4.237   0.284  1.7656 -1.3625  1.0973
 3413TIP3    H234435   0.712   4.256   0.375  1.2891 -2.7335  0.7680
 3414TIP3   OH234436   1.508   4.400   0.723 -0.0065  0.7962 -0.3749
 3414TIP3    H134437   1.590   4.445   0.741  0.3998 -0.2114  0.3994
 3414TIP3    H234438   1.441   4.450   0.769  0.3370  1.0132 -0.1104
 3415TIP3   OH234439   7.262   6.169   0.424 -0.3794 -0.1567  0.2212
 3415TIP3    H134440   7.185   6.118   0.400 -0.9111  0.5889  0.2851
 3415TIP3    H234441   7.302   6.194   0.341 -0.1421 -0.6337  0.1899
 3416TIP3   OH234442   4.368   3.970   1.009 -0.3434 -0.0851  0.1125
 3416TIP3    H134443   4.399   3.939   1.094  0.9418 -0.7536 -0.5695
 3416TIP3    H234444   4.443   3.958   0.951 -1.1553  0.5076 -1.0834
 3417TIP3   OH234445   2.590   4.754   0.372  0.0017 -0.6530 -0.2916
 3417TIP3    H134446   2.506   4.718   0.402 -0.1994 -0.3988 -0.5399
 3417TIP3    H234447   2.601   4.835   0.422 -0.5187 -0.0300 -1.1551
 3418TIP3   OH234448   5.991   3.311   8.012  0.5200 -0.4258 -0.5184
 3418TIP3    H134449   6.006   3.307   8.106 -1.5734  2.1411  0.0630
 3418TIP3    H234450   6.058   3.254   7.974  2.2082 -0.6065  2.4263
 3419TIP3   OH234451   0.428   6.247   8.543 -0.2729 -0.1109 -0.1256
 3419TIP3    H134452   0.510   6.198   8.538 -0.6297 -0.6376 -1.1155
 3419TIP3    H234453   0.444   6.313   8.611  1.4391  0.6652 -1.2019
 3420TIP3   OH234454   5.292   2.612   2.761  0.2166  0.2827 -0.3714
 3420TIP3    H134455   5.222   2.573   2.709  1.1232 -0.1971 -1.2680
 3420TIP3    H234456   5.247   2.663   2.829 -0.9845  0.2717 -1.1431
 3421TIP3   OH234457   7.091   7.266   9.376  0.2616  0.5903 -0.1440
 3421TIP3    H134458   7.048   7.294   9.457  2.4840  0.0860  1.3244
 3421TIP3    H234459   7.142   7.342   9.348  0.6045  0.3260 -0.2505
 3422TIP3   OH234460   0.315   0.182   8.559 -1.0123  0.1175 -0.0716
 3422TIP3    H134461   0.268   0.236   8.496 -0.5781 -0.2759 -0.7385
 3422TIP3    H234462   0.319   0.236   8.638 -0.2126  1.2638 -0.8605
 3423TIP3   OH234463   3.267   5.593   1.975 -0.0137 -0.0681 -0.0067
 3423TIP3    H134464   3.289   5.564   1.886  0.4791  0.2553  0.0009
 3423TIP3    H234465   3.300   5.683   1.979 -2.3591  0.8700 -0.3426
 3424TIP3   OH234466   5.659   4.635   9.328 -0.4983  0.3002 -0.2857
 3424TIP3    H134467   5.648   4.545   9.357  0.0759 -0.0264 -1.0489
 3424TIP3    H234468   5.617   4.638   9.242  0.2023  0.5325 -0.6320
 3425TIP3   OH234469   4.468   6.529   1.881  0.3842  0.4101  0.3901
 3425TIP3    H134470   4.401   6.597   1.871 -0.1675 -0.2334 -0.5153
 3425TIP3    H234471   4.475   6.515   1.975 -1.2739  0.0179  0.4843
 3426TIP3   OH234472   0.029   4.513   1.414 -0.0038 -0.1307  0.2965
 3426TIP3    H134473  -0.003   4.488   1.501  1.6649  0.2826  1.0789
 3426TIP3    H234474   0.111   4.465   1.405  0.1895  0.3792 -0.7600
 3427TIP3   OH234475   6.714   5.223   0.244 -0.0783 -0.6045  0.1496
 3427TIP3    H134476   6.745   5.254   0.329 -0.1446 -0.8533  0.2644
 3427TIP3    H234477   6.684   5.303   0.200 -1.9678 -0.7047  1.1525
 3428TIP3   OH234478   2.216   6.624   2.115  0.4762 -0.0045 -0.5153
 3428TIP3    H134479   2.152   6.561   2.082  2.3185 -2.1292 -0.2818
 3428TIP3    H234480   2.198   6.630   2.208 -1.1331  1.6522 -0.8690
 3429TIP3   OH234481   4.696   4.514   0.564  0.0264 -0.0397 -0.0432
 3429TIP3    H134482   4.726   4.433   0.605  1.0169  0.4162  0.1610
 3429TIP3    H234483   4.614   4.535   0.609 -0.0911 -0.7647  0.0933
 3430TIP3   OH234484   5.253   6.991   2.066  0.1412  0.3360  0.1133
 3430TIP3    H134485   5.207   7.036   2.137 -0.1771 -0.4462  0.4204
 3430TIP3    H234486   5.199   7.006   1.989 -1.0253 -1.1305  0.6003
 3431TIP3   OH234487   2.803   3.066   0.344 -0.4353 -0.8507 -0.4466
 3431TIP3    H134488   2.708   3.076   0.341 -0.4582  2.2632  2.9657
 3431TIP3    H234489   2.834   3.116   0.268 -1.3883 -3.4907 -2.7400
 3432TIP3   OH234490   6.241   7.089   6.737  0.1036  0.2104  0.0179
 3432TIP3    H134491   6.279   7.107   6.823  1.8849  1.5291 -0.9854
 3432TIP3    H234492   6.164   7.146   6.733 -0.0041  0.1269  0.7356
 3433TIP3   OH234493   4.715   4.975   9.300  0.0950  0.0984  0.3212
 3433TIP3    H134494   4.697   4.950   9.209 -0.4111  0.5324  0.2984
 3433TIP3    H234495   4.795   4.928   9.322  0.5948  0.5057 -0.5726
 3434TIP3   OH234496   7.072   6.292   2.686 -0.1620 -0.5403  0.6270
 3434TIP3    H134497   7.162   6.299   2.720 -0.9327  3.1475  2.4663
 3434TIP3    H234498   7.038   6.212   2.726  2.1519 -1.9171  0.0547
 3435TIP3   OH234499   1.967   2.000   8.423 -0.0552 -0.1888 -0.1323
 3435TIP3    H134500   1.939   1.992   8.514  0.7881  1.1315  0.2779
 3435TIP3    H234501   1.905   2.063   8.385  0.5023  0.4412 -0.0292
 3436TIP3   OH234502   0.953   6.057   1.730  0.1283  0.4966  0.4686
 3436TIP3    H134503   0.963   6.041   1.636  1.3965 -0.3767  0.7101
 3436TIP3    H234504   0.986   5.977   1.771 -1.7063  0.2948  1.6548
 3437TIP3   OH234505   0.914   0.020   6.710  0.4075  0.3263  0.3620
 3437TIP3    H134506   0.827   0.054   6.732 -0.0019 -1.4363  1.7792
 3437TIP3    H234507   0.974   0.068   6.767  0.1417  0.4026  0.5813
 3438TIP3   OH234508   1.972   3.435   8.295  0.1865 -0.5215  0.3248
 3438TIP3    H134509   2.063   3.444   8.267  0.5125 -1.7987  0.8960
 3438TIP3    H234510   1.958   3.341   8.301 -1.0278 -0.3354  0.7544
 3439TIP3   OH234511   5.946   3.826   8.430 -0.1956  0.0617 -0.1276
 3439TIP3    H134512   5.951   3.862   8.341  0.2783 -1.3337 -0.6796
 3439TIP3    H234513   5.989   3.741   8.425  0.9504  0.4770  1.7351
 3440TIP3   OH234514   7.041   3.536   7.736  0.8053  0.2973  0.3193
 3440TIP3    H134515   7.071   3.504   7.822  0.2179  0.5486  0.6261
 3440TIP3    H234516   7.023   3.457   7.686 -1.8350  0.0412  1.4856
 3441TIP3   OH234517   3.358   4.299   8.619 -0.2541 -0.1288  0.4649
 3441TIP3    H134518   3.274   4.253   8.611 -0.5058  0.5844 -1.7808
 3441TIP3    H234519   3.422   4.240   8.579 -0.0354  0.1833  0.3531
 3442TIP3   OH234520   4.443   0.572   2.022 -0.1593 -0.0013  0.1265
 3442TIP3    H134521   4.357   0.610   2.033  0.1784  1.2148 -1.0870
 3442TIP3    H234522   4.504   0.646   2.029  0.8978 -0.9770  1.9980
 3443TIP3   OH234523   0.472   6.125   1.924 -0.4824  0.7992  0.6555
 3443TIP3    H134524   0.519   6.186   1.981 -0.1644 -0.6604  2.0192
 3443TIP3    H234525   0.540   6.088   1.867 -0.3213  0.2831  1.1699
 3444TIP3   OH234526   2.509   6.106   0.022 -0.1470 -0.3970 -0.0244
 3444TIP3    H134527   2.468   6.183   0.060  1.2009  0.0331  0.6289
 3444TIP3    H234528   2.599   6.108   0.054  0.6839 -0.7734 -2.1113
 3445TIP3   OH234529   5.211   6.005   1.385  0.0857  0.4509  0.2650
 3445TIP3    H134530   5.237   6.084   1.337 -1.0345  1.5703  1.4114
 3445TIP3    H234531   5.125   6.027   1.422  0.0117 -1.1034  1.0932
 3446TIP3   OH234532   2.187   5.304   7.833  0.0041  0.2789 -0.2455
 3446TIP3    H134533   2.199   5.327   7.741  1.6112  2.5044  0.4373
 3446TIP3    H234534   2.274   5.313   7.872 -0.6721 -0.4336  1.5390
 3447TIP3   OH234535   4.433   3.293   7.293 -0.2064  0.8230  0.0029
 3447TIP3    H134536   4.403   3.207   7.263  0.8854  0.3722  0.1352
 3447TIP3    H234537   4.487   3.326   7.222  0.1602  0.9679  0.3461
 3448TIP3   OH234538   7.121   6.096   9.643  0.8157  0.3925 -0.4387
 3448TIP3    H134539   7.061   6.109   9.716  2.8583  0.0552  1.4208
 3448TIP3    H234540   7.113   6.176   9.590 -0.3830  0.8349  0.3784
 3449TIP3   OH234541   4.428   4.993   1.986 -0.3375  0.0130 -0.0007
 3449TIP3    H134542   4.338   5.008   1.956  0.0050  3.1112  0.1909
 3449TIP3    H234543   4.419   4.936   2.062 -1.9622 -1.0527 -0.9223
 3450TIP3   OH234544   3.779   2.867   0.220  0.3732 -0.2241 -0.0045
 3450TIP3    H134545   3.709   2.899   0.164  0.7500  0.6177 -0.0070
 3450TIP3    H234546   3.781   2.927   0.294  0.3611 -0.8999  0.5615
 3451TIP3   OH234547   2.776   5.205   7.366 -0.2839 -0.1196  0.2162
 3451TIP3    H134548   2.747   5.177   7.279 -0.7260 -0.9773  0.6243
 3451TIP3    H234549   2.830   5.132   7.397  1.2188  0.8645  0.0242
 3452TIP3   OH234550   5.124   1.096   1.699  0.5081 -0.3069 -0.2420
 3452TIP3    H134551   5.067   1.023   1.675 -1.8473  1.3064  0.1361
 3452TIP3    H234552   5.069   1.173   1.692  2.6295  1.3640  0.3373
 3453TIP3   OH234553   0.702   5.391   7.487  0.3470  0.3068 -0.1197
 3453TIP3    H134554   0.713   5.452   7.414 -0.7144  0.0420 -0.5150
 3453TIP3    H234555   0.680   5.447   7.562  2.4849  0.6869  0.2965
 3454TIP3   OH234556   2.745   5.930   1.330  0.2956 -0.1405 -0.1574
 3454TIP3    H134557   2.830   5.964   1.357  0.1899 -0.8807  1.2062
 3454TIP3    H234558   2.681   5.988   1.371  0.1316  0.0495 -0.6715
 3455TIP3   OH234559   6.340   1.437   9.334 -0.2399  0.3246  0.1756
 3455TIP3    H134560   6.429   1.471   9.326 -0.1192  0.0368  0.2959
 3455TIP3    H234561   6.345   1.347   9.302 -0.5924  0.4652 -0.2750
 3456TIP3   OH234562   3.677   2.773   7.594 -0.2723  0.1807 -0.0462
 3456TIP3    H134563   3.688   2.709   7.524  0.0482  2.2105 -1.9347
 3456TIP3    H234564   3.732   2.847   7.569  1.6890  0.1635  3.5181
 3457TIP3   OH234565   3.901   4.431   8.085 -0.1184 -0.0629 -0.0847
 3457TIP3    H134566   3.830   4.493   8.064 -0.9125 -1.1864 -0.8317
 3457TIP3    H234567   3.981   4.479   8.065 -0.5109  1.9516  2.6192
 3458TIP3   OH234568   7.086   3.491   1.703 -0.3243  0.7809 -0.0016
 3458TIP3    H134569   7.118   3.569   1.749 -0.1762  1.8476 -1.8109
 3458TIP3    H234570   7.006   3.519   1.659 -2.0043 -0.9614  1.7409
 3459TIP3   OH234571   0.413   3.121   7.488  0.0229  0.1956 -0.7860
 3459TIP3    H134572   0.445   3.203   7.527  0.1861  0.3928 -1.3173
 3459TIP3    H234573   0.376   3.072   7.561  0.2966  0.5690 -0.3922
 3460TIP3   OH234574   5.480   0.859   0.790  0.3039  0.0141  0.5034
 3460TIP3    H134575   5.569   0.886   0.809  0.4182  0.9535 -1.1274
 3460TIP3    H234576   5.467   0.884   0.698 -1.1319 -1.4613  0.2581
 3461TIP3   OH234577   0.113   5.227   9.314 -0.4540  0.3751  0.1549
 3461TIP3    H134578   0.049   5.224   9.243 -1.2344 -0.9796  0.8712
 3461TIP3    H234579   0.197   5.240   9.270 -0.8047 -1.2828 -1.1337
 3462TIP3   OH234580   5.017   2.652   8.816  0.1696  0.0513 -0.0796
 3462TIP3    H134581   4.928   2.620   8.825 -0.1221  0.7787 -0.2368
 3462TIP3    H234582   5.015   2.706   8.737  0.9442 -0.5648 -0.5343
 3463TIP3   OH234583   3.549   4.624   8.596  0.2144  0.6071 -0.0210
 3463TIP3    H134584   3.640   4.636   8.623  0.4036 -0.3821 -0.1500
 3463TIP3    H234585   3.497   4.667   8.664  0.7941  3.4815 -1.2572
 3464TIP3   OH234586   1.140   2.838   1.694 -0.3535  0.2766 -0.0974
 3464TIP3    H134587   1.139   2.844   1.790 -0.6526  1.5170 -0.1661
 3464TIP3    H234588   1.232   2.848   1.670 -0.4803  1.9655 -0.0226
 3465TIP3   OH234589   5.048   5.720   8.231 -0.0005 -0.8269  0.0519
 3465TIP3    H134590   5.103   5.789   8.194 -0.6431 -0.3467 -0.0033
 3465TIP3    H234591   5.089   5.639   8.200 -0.4981 -0.4415 -1.6791
 3466TIP3   OH234592   4.726   0.520   0.191  0.4476  0.1995  0.2202
 3466TIP3    H134593   4.652   0.574   0.165  1.3058  1.6910  0.7701
 3466TIP3    H234594   4.766   0.492   0.109 -0.5541 -0.4431 -0.0799
 3467TIP3   OH234595   5.899   5.095   1.255 -0.3657 -0.1310  0.3124
 3467TIP3    H134596   5.899   5.092   1.159  1.9614  1.0157  0.2175
 3467TIP3    H234597   5.886   5.187   1.277 -1.3449 -0.4447  1.1405
 3468TIP3   OH234598   4.310   1.872   2.053 -0.0990  0.4758  0.6088
 3468TIP3    H134599   4.341   1.962   2.048 -1.2200  0.8759  0.5847
 3468TIP3    H234600   4.345   1.838   2.135  1.1253  0.6031  0.1709
 3469TIP3   OH234601   4.816   3.465   0.473  0.4900  0.0115  0.4633
 3469TIP3    H134602   4.880   3.528   0.440 -0.0846 -0.4321 -1.7226
 3469TIP3    H234603   4.763   3.514   0.535  0.8611  1.3334 -0.2278
 3470TIP3   OH234604   4.291   1.065   1.477  0.0979 -0.3274  0.4897
 3470TIP3    H134605   4.304   1.157   1.500  0.5202 -0.3736  0.4467
 3470TIP3    H234606   4.196   1.055   1.472  0.0467  0.0921  0.5488
 3471TIP3   OH234607   2.581   6.674   1.410 -0.8095 -0.8780 -1.1272
 3471TIP3    H134608   2.623   6.706   1.330  0.0141  2.9397  0.6153
 3471TIP3    H234609   2.498   6.721   1.415 -0.3024 -0.0927  0.7937
 3472TIP3   OH234610   3.127   1.784   6.755  0.1799 -0.5498 -0.1457
 3472TIP3    H134611   3.044   1.832   6.761  0.0788 -0.6855 -0.4308
 3472TIP3    H234612   3.103   1.693   6.773  0.1483 -0.6993 -0.9269
 3473TIP3   OH234613   6.092   5.278   9.353  0.0727  0.4661 -0.3370
 3473TIP3    H134614   6.081   5.193   9.310 -0.0571 -1.1080  2.5728
 3473TIP3    H234615   6.169   5.266   9.410 -1.7145  1.1752  2.4193
 3474TIP3   OH234616   6.899   6.053   1.629  0.7679 -0.3025  0.0145
 3474TIP3    H134617   6.969   5.989   1.643  1.2431  0.1647 -0.1904
 3474TIP3    H234618   6.932   6.109   1.558 -0.5062 -1.0625 -1.2174
 3475TIP3   OH234619   1.061   4.487   1.420 -0.2552  0.2053  0.0182
 3475TIP3    H134620   1.149   4.515   1.445  0.2954 -0.9122 -0.5539
 3475TIP3    H234621   1.004   4.560   1.444  0.6413  0.4310  1.6311
 3476TIP3   OH234622   0.432   2.562   1.776 -0.1974 -0.3371 -0.4279
 3476TIP3    H134623   0.432   2.602   1.689  3.5056 -1.9312 -1.3512
 3476TIP3    H234624   0.440   2.468   1.760 -1.4513 -0.8999  1.7019
 3477TIP3   OH234625   6.942   7.023   9.964 -0.6163 -0.1142 -0.2589
 3477TIP3    H134626   6.892   7.104   9.974  0.3953  0.5859 -0.7634
 3477TIP3    H234627   7.006   7.042   9.896 -0.3220 -1.3256 -0.3501
 3478TIP3   OH234628   1.910   0.522   8.830  0.5122 -0.0628  0.0396
 3478TIP3    H134629   1.838   0.583   8.845 -1.3491 -2.3702  1.2726
 3478TIP3    H234630   1.984   0.558   8.878 -0.8110  0.7401  1.5581
 3479TIP3   OH234631   5.239   2.290   7.211 -0.1831 -0.2913 -0.4741
 3479TIP3    H134632   5.297   2.278   7.136 -1.7921 -0.9100 -1.6665
 3479TIP3    H234633   5.277   2.236   7.280  0.5818 -0.7739 -1.2564
 3480TIP3   OH234634   5.733   3.416   0.990 -0.6469  0.2513 -0.3641
 3480TIP3    H134635   5.701   3.501   1.020 -0.0888  0.3449 -0.0069
 3480TIP3    H234636   5.708   3.355   1.059 -2.2326 -0.1421 -1.2309
 3481TIP3   OH234637   3.240   6.937   9.308  0.0112  0.2358 -0.4606
 3481TIP3    H134638   3.256   7.022   9.350 -0.0525 -0.9550  2.2231
 3481TIP3    H234639   3.220   6.959   9.217  2.2133  2.8970 -0.4513
 3482TIP3   OH234640   4.053   5.444   0.422  0.0680 -0.2241  0.1992
 3482TIP3    H134641   4.017   5.533   0.431 -0.1821 -0.4377  1.5531
 3482TIP3    H234642   4.112   5.450   0.347 -1.2878  0.6399 -0.8512
 3483TIP3   OH234643   7.174   0.561   2.008  0.2524  0.0839  0.2687
 3483TIP3    H134644   7.160   0.636   1.950  3.3172  1.0276  0.5719
 3483TIP3    H234645   7.138   0.589   2.092  1.2596  1.2071  0.3486
 3484TIP3   OH234646   6.909   6.111   1.143 -0.0670 -0.0046  0.4824
 3484TIP3    H134647   6.962   6.043   1.102 -1.0926 -0.1488 -0.6511
 3484TIP3    H234648   6.821   6.096   1.109 -0.2779  2.0241  0.0345
 3485TIP3   OH234649   3.328   3.413   1.621 -0.8869 -0.2438 -0.4015
 3485TIP3    H134650   3.308   3.320   1.636 -2.1272  0.2030  0.8300
 3485TIP3    H234651   3.416   3.411   1.583  0.4785 -1.8127  2.4248
 3486TIP3   OH234652   2.750   5.511   1.221 -0.5334  0.3112  0.1710
 3486TIP3    H134653   2.817   5.487   1.157  0.0861  1.3454  0.4132
 3486TIP3    H234654   2.696   5.433   1.230 -0.2590 -0.0436 -1.1567
 3487TIP3   OH234655   1.267   0.298   1.357  0.0847  0.6112  0.0213
 3487TIP3    H134656   1.204   0.366   1.381 -1.1199 -0.4792  0.0582
 3487TIP3    H234657   1.348   0.346   1.337 -0.3739  1.9443  1.2005
 3488TIP3   OH234658   0.672   6.622   0.509  0.2698  0.0557  0.4281
 3488TIP3    H134659   0.723   6.670   0.444 -1.0062  0.2173 -0.4949
 3488TIP3    H234660   0.595   6.676   0.524 -1.0874 -1.5139 -0.4579
 3489TIP3   OH234661   3.528   4.814   0.052 -0.0505 -0.8749  0.3590
 3489TIP3    H134662   3.542   4.863   0.133  0.7000 -0.4687 -0.0098
 3489TIP3    H234663   3.443   4.845   0.019  1.3966  1.8989 -1.0482
 3490TIP3   OH234664   6.058   0.827   0.370 -0.4201  0.7568 -0.4044
 3490TIP3    H134665   6.070   0.841   0.276  0.7441  1.9440 -0.1153
 3490TIP3    H234666   5.996   0.895   0.397  0.4320  1.4146 -0.0640
 3491TIP3   OH234667   1.778   4.914   9.065  0.2608  0.2625  0.3673
 3491TIP3    H134668   1.854   4.940   9.013  0.5269 -1.8432 -0.3730
 3491TIP3    H234669   1.806   4.922   9.156  1.0645  0.3729  0.1131
 3492TIP3   OH234670   2.042   4.010   1.283 -0.0653 -0.3636  0.4077
 3492TIP3    H134671   2.006   3.923   1.268 -0.8462 -0.0635  0.5307
 3492TIP3    H234672   1.973   4.070   1.255  0.9089  0.2364 -0.8249
 3493TIP3   OH234673   1.071   2.866   7.771  0.4051 -0.3965  0.1529
 3493TIP3    H134674   1.069   2.880   7.676  0.7143 -0.7297  0.0941
 3493TIP3    H234675   1.088   2.773   7.781 -0.6758 -0.5515  0.5463
 3494TIP3   OH234676   6.643   1.777   1.669  0.0501  0.1616  0.4342
 3494TIP3    H134677   6.705   1.845   1.643  0.1085  0.7776  2.1021
 3494TIP3    H234678   6.557   1.820   1.665 -0.1743 -0.3412 -0.6788
 3495TIP3   OH234679   4.404   1.818   0.350 -0.6685 -0.3519  0.2890
 3495TIP3    H134680   4.371   1.890   0.404  1.5190  1.6022 -0.7705
 3495TIP3    H234681   4.331   1.796   0.292 -1.2926  1.3140  0.3719
 3496TIP3   OH234682   5.202   4.274   0.214  0.0809  0.4445 -0.2748
 3496TIP3    H134683   5.152   4.239   0.287  1.2220 -1.1668 -0.2155
 3496TIP3    H234684   5.147   4.344   0.178 -1.8145 -0.6993  0.2861
 3497TIP3   OH234685   4.771   7.043   8.262  0.0547  0.3311  0.4163
 3497TIP3    H134686   4.748   7.014   8.174 -1.0012 -1.0306  1.1081
 3497TIP3    H234687   4.729   7.128   8.271 -1.0911 -0.1823  0.1005
 3498TIP3   OH234688   0.730   2.716   9.260 -0.3178  0.0085  0.4414
 3498TIP3    H134689   0.795   2.681   9.321  1.2509 -0.4027 -1.3605
 3498TIP3    H234690   0.728   2.810   9.277  0.0822 -0.1029  1.1202
 3499TIP3   OH234691   3.785   1.202   0.475  0.0166 -0.2396 -0.4156
 3499TIP3    H134692   3.816   1.131   0.419  2.5812  1.6197 -1.5236
 3499TIP3    H234693   3.856   1.215   0.539 -1.3542 -0.0421  1.1442
 3500TIP3   OH234694   5.646   2.486   1.761 -0.8111 -0.0758  0.2821
 3500TIP3    H134695   5.685   2.413   1.714 -1.1708 -0.7674  1.0306
 3500TIP3    H234696   5.569   2.511   1.708  0.3419  1.0080 -0.9606
 3501TIP3   OH234697   5.091   7.094   2.530  0.2920 -0.0772  0.1982
 3501TIP3    H134698   5.018   7.155   2.520  0.7651  0.7978  1.7441
 3501TIP3    H234699   5.056   7.023   2.585 -0.2217 -1.2070 -1.4963
 3502TIP3   OH234700   1.654   5.945   8.678 -0.0598 -0.3625 -0.5769
 3502TIP3    H134701   1.694   6.028   8.705  1.4987 -0.5868 -2.0429
 3502TIP3    H234702   1.694   5.880   8.735  1.1051 -0.4726 -1.4743
 3503TIP3   OH234703   6.509   5.381   9.057  0.0154  0.2214  0.8205
 3503TIP3    H134704   6.538   5.349   9.142  1.4960 -1.9582 -0.3965
 3503TIP3    H234705   6.445   5.315   9.028  0.8746 -0.0810 -0.4784
 3504TIP3   OH234706   4.159   4.445   9.573 -0.1051 -0.2413 -0.0082
 3504TIP3    H134707   4.173   4.526   9.523  1.8799 -0.9885 -0.7699
 3504TIP3    H234708   4.169   4.472   9.665 -2.5332  0.9053 -0.0148
 3505TIP3   OH234709   4.887   1.899   0.582 -0.0904  0.7264 -0.3971
 3505TIP3    H134710   4.856   1.826   0.528  0.4342  1.1262 -1.2650
 3505TIP3    H234711   4.970   1.924   0.543 -0.1879  1.6974 -0.0141
 3506TIP3   OH234712   0.089   2.434   2.195 -0.2965 -0.1877  0.6069
 3506TIP3    H134713   0.154   2.501   2.177 -2.0015  1.8934  1.7734
 3506TIP3    H234714   0.079   2.434   2.290  0.5933 -3.1127  0.8141
 3507TIP3   OH234715   0.080   2.662   8.837 -0.9245 -0.1661  0.7261
 3507TIP3    H134716   0.110   2.595   8.899 -0.2277  1.2733  2.0162
 3507TIP3    H234717   0.028   2.722   8.890 -0.1470  1.2131 -0.0149
 3508TIP3   OH234718   3.029   4.319   1.231  0.2195  0.3309  0.4804
 3508TIP3    H134719   2.941   4.301   1.263  0.3944  2.0845  2.1194
 3508TIP3    H234720   3.085   4.311   1.309  2.2536 -4.5627 -1.0887
 3509TIP3   OH234721   3.821   5.978   7.838  0.1732  0.3108 -0.6984
 3509TIP3    H134722   3.807   6.064   7.879  0.0744  0.1492 -0.3856
 3509TIP3    H234723   3.735   5.953   7.804 -0.0434 -0.1132  0.1081
 3510TIP3   OH234724   7.125   6.532   8.925  0.0324  0.0504  0.0891
 3510TIP3    H134725   7.217   6.507   8.923  0.5778  1.8813 -1.7380
 3510TIP3    H234726   7.124   6.624   8.896 -2.3285  0.2179  0.4646
 3511TIP3   OH234727   5.650   4.624   8.753  0.0411  0.0095  0.6178
 3511TIP3    H134728   5.733   4.581   8.777  0.2273  1.0925  2.0747
 3511TIP3    H234729   5.585   4.583   8.810 -0.6048 -1.3040 -0.9744
 3512TIP3   OH234730   1.410   3.585   2.193 -0.1654 -0.2526 -0.4649
 3512TIP3    H134731   1.326   3.565   2.151 -0.4694 -1.7811  0.7737
 3512TIP3    H234732   1.400   3.675   2.222 -0.1192  0.7226 -3.1465
 3513TIP3   OH234733   6.929   6.338   0.464 -0.1558  0.1702  0.1748
 3513TIP3    H134734   6.980   6.333   0.384  0.7979 -1.3527  0.8428
 3513TIP3    H234735   6.841   6.310   0.438  0.7331 -2.9266  0.0749
 3514TIP3   OH234736   5.979   4.675   2.887  0.3225 -0.1932 -0.1724
 3514TIP3    H134737   5.967   4.734   2.962  0.5065 -0.6253  0.2058
 3514TIP3    H234738   5.922   4.601   2.906 -2.6193  1.3487 -2.3176
 3515TIP3   OH234739   0.272   3.838   1.796 -0.9933  0.6971  0.1088
 3515TIP3    H134740   0.274   3.742   1.800 -1.6978  0.6359 -0.6372
 3515TIP3    H234741   0.245   3.857   1.706 -1.4662  1.5905  0.4286
 3516TIP3   OH234742   2.214   5.317   0.015 -0.7928 -0.3221 -0.0345
 3516TIP3    H134743   2.189   5.407   0.037  2.0154  0.5024  0.1706
 3516TIP3    H234744   2.273   5.291   0.085  0.5485 -1.3217 -1.4826
 3517TIP3   OH234745   5.137   3.248   7.243 -0.5907 -0.0582 -0.0077
 3517TIP3    H134746   5.199   3.175   7.237 -0.4897  0.1465 -2.2784
 3517TIP3    H234747   5.184   3.323   7.206 -1.0234  0.9650  1.4160
 3518TIP3   OH234748   6.412   4.380   8.613  0.5787  0.1891 -0.2230
 3518TIP3    H134749   6.319   4.386   8.591  0.1571 -1.2509  1.0194
 3518TIP3    H234750   6.431   4.463   8.656 -0.8677 -0.4985  1.9393
 3519TIP3   OH234751   2.100   1.898   7.286 -0.3151  0.4858  0.4636
 3519TIP3    H134752   2.081   1.991   7.297 -0.1321  0.4440  1.2443
 3519TIP3    H234753   2.026   1.864   7.236  0.3628  1.3316 -1.1658
 3520TIP3   OH234754   6.820   1.164   2.243 -0.1910 -0.3300 -0.7752
 3520TIP3    H134755   6.780   1.088   2.200 -2.4560  1.1905 -1.5722
 3520TIP3    H234756   6.804   1.151   2.336 -2.1976 -0.0474 -1.0373
 3521TIP3   OH234757   4.373   1.745   0.860 -0.0770 -0.3978 -0.2415
 3521TIP3    H134758   4.375   1.735   0.765 -0.6737 -1.3930 -0.1573
 3521TIP3    H234759   4.462   1.770   0.884 -0.0983  0.5992 -1.1256
 3522TIP3   OH234760   0.270   1.012   6.802  0.5587 -0.0381 -0.3962
 3522TIP3    H134761   0.365   1.014   6.786  0.4340 -0.4289 -1.2232
 3522TIP3    H234762   0.235   0.962   6.729 -0.2633 -0.1240  0.0534
 3523TIP3   OH234763   0.586   1.993   8.023  0.2482 -0.3514 -0.2513
 3523TIP3    H134764   0.547   1.918   7.978  1.0636 -0.0992 -1.4093
 3523TIP3    H234765   0.602   1.961   8.112 -0.6674 -1.1054 -0.3354
 3524TIP3   OH234766   3.030   1.074   2.239  0.4466  0.7479  0.4419
 3524TIP3    H134767   3.080   1.095   2.160  0.1029 -0.9895 -0.2753
 3524TIP3    H234768   3.096   1.053   2.304  0.6928  0.5161  0.1175
 3525TIP3   OH234769   3.203   6.557   2.248 -0.0063 -0.0203  0.2424
 3525TIP3    H134770   3.203   6.649   2.221  0.3695  0.2620  1.1373
 3525TIP3    H234771   3.180   6.560   2.341  0.0244 -0.8348  0.2840
 3526TIP3   OH234772   6.328   1.106   9.567 -0.3324  0.4552  0.1933
 3526TIP3    H134773   6.253   1.102   9.508 -1.1540  2.6211  1.0029
 3526TIP3    H234774   6.403   1.084   9.512 -1.1449  1.7793 -1.5282
 3527TIP3   OH234775   7.199   6.903   0.777 -0.2057 -0.1171 -0.1346
 3527TIP3    H134776   7.225   6.995   0.770 -0.9613  0.0252 -1.1882
 3527TIP3    H234777   7.146   6.899   0.856 -1.8725  0.7855 -1.1553
 3528TIP3   OH234778   2.173   1.817   8.658  0.2522 -0.4657 -0.1157
 3528TIP3    H134779   2.121   1.839   8.736 -0.8413  1.8059 -1.3870
 3528TIP3    H234780   2.138   1.733   8.629 -0.1823 -0.7388  1.1442
 3529TIP3   OH234781   3.834   3.413   9.732  0.0857  0.1661  0.1093
 3529TIP3    H134782   3.856   3.440   9.643 -0.1736 -1.7778 -0.5820
 3529TIP3    H234783   3.851   3.319   9.734 -0.7420  0.0093  1.8608
 3530TIP3   OH234784   2.646   0.968   2.092 -0.0324  0.0075 -0.4052
 3530TIP3    H134785   2.653   1.021   2.172 -1.1569  0.0699 -0.3298
 3530TIP3    H234786   2.736   0.943   2.072  0.1429 -1.8171  2.1168
 3531TIP3   OH234787   5.430   6.320   7.040 -0.3446 -0.1192 -0.3115
 3531TIP3    H134788   5.462   6.387   6.979  1.7488 -0.4986  0.2885
 3531TIP3    H234789   5.353   6.359   7.081 -0.5628  0.9575 -1.6666
 3532TIP3   OH234790   5.952   1.041   0.539  0.0105  0.5650 -0.4453
 3532TIP3    H134791   5.879   1.102   0.550 -0.4356 -0.2798  1.7571
 3532TIP3    H234792   6.028   1.087   0.574 -0.3797 -0.1756  1.4808
 3533TIP3   OH234793   0.898   6.259   7.764 -0.7662  0.2502  0.2009
 3533TIP3    H134794   0.886   6.164   7.761 -0.9185  0.2823 -1.4430
 3533TIP3    H234795   0.897   6.281   7.857 -0.0045 -1.4463  0.6430
 3534TIP3   OH234796   1.253   2.586   0.474  0.5032  0.1463 -0.6854
 3534TIP3    H134797   1.197   2.514   0.502 -1.2243  0.9156 -1.9639
 3534TIP3    H234798   1.223   2.606   0.385  2.3496  1.0750 -1.1367
 3535TIP3   OH234799   4.209   6.365   2.347 -0.4938 -0.6206  0.0974
 3535TIP3    H134800   4.129   6.394   2.303 -0.7135 -0.1321  0.7885
 3535TIP3    H234801   4.215   6.422   2.424  0.3397 -0.8792  0.2327
 3536TIP3   OH234802   7.169   4.434   7.555 -0.3145 -0.2804  0.0753
 3536TIP3    H134803   7.140   4.518   7.591  0.8344 -0.4859  1.5860
 3536TIP3    H234804   7.088   4.387   7.534 -0.9991  0.5977  0.6896
 3537TIP3   OH234805   1.890   3.852   0.953  0.7213  0.0663  0.5620
 3537TIP3    H134806   1.916   3.944   0.950 -1.2870  0.6475 -0.6907
 3537TIP3    H234807   1.972   3.804   0.943  1.5995  1.7349 -0.7779
 3538TIP3   OH234808   2.321   1.474   1.879 -0.3448  0.2957  0.6223
 3538TIP3    H134809   2.268   1.553   1.881 -2.5744 -1.1072  2.7873
 3538TIP3    H234810   2.277   1.417   1.816  2.0287  1.1292 -1.9901
 3539TIP3   OH234811   3.189   6.861   1.227 -1.1388 -0.0567  0.1523
 3539TIP3    H134812   3.217   6.936   1.173  0.4240 -0.7632 -0.0578
 3539TIP3    H234813   3.110   6.829   1.183 -0.9478  0.5249 -0.6567
 3540TIP3   OH234814   7.239   2.545   7.692 -0.0428  0.0109  1.6812
 3540TIP3    H134815   7.334   2.554   7.698  0.2737 -0.7811 -0.9961
 3540TIP3    H234816   7.218   2.471   7.750  1.1904 -0.7942  1.1211
 3541TIP3   OH234817   4.881   1.236   2.016  0.3044  0.4402 -0.0302
 3541TIP3    H134818   4.811   1.295   1.990 -0.3044 -1.3527 -2.9611
 3541TIP3    H234819   4.956   1.262   1.962  0.7967  0.0921  0.4711
 3542TIP3   OH234820   6.538   5.612   2.197  0.7528 -0.6338  0.5042
 3542TIP3    H134821   6.514   5.546   2.133  1.6163 -1.2353  0.7844
 3542TIP3    H234822   6.468   5.610   2.262  0.8638 -1.4134  0.6056
 3543TIP3   OH234823   0.303   4.132   2.189 -0.0170  0.2436  0.8678
 3543TIP3    H134824   0.283   4.195   2.120  1.0446 -0.6817 -0.3381
 3543TIP3    H234825   0.224   4.079   2.197 -0.1423  0.3506  0.3581
 3544TIP3   OH234826   1.870   0.246   9.477  1.0352 -0.0446 -0.5132
 3544TIP3    H134827   1.844   0.155   9.459  2.0253 -1.3123  3.3208
 3544TIP3    H234828   1.801   0.279   9.534  1.5614  0.9876 -0.4539
 3545TIP3   OH234829   6.662   6.400   8.871  0.1359  0.4339 -0.1476
 3545TIP3    H134830   6.742   6.404   8.818 -0.1801  1.8233 -0.5460
 3545TIP3    H234831   6.596   6.445   8.819 -0.4908  0.7500  0.8926
 3546TIP3   OH234832   0.255   5.852   8.072 -0.4114  0.0418  0.5642
 3546TIP3    H134833   0.239   5.796   8.148 -1.8129 -0.0615  0.2172
 3546TIP3    H234834   0.219   5.802   7.998  0.8792  0.1572 -0.1894
 3547TIP3   OH234835   5.642   2.715   9.875  0.0517 -0.1174 -0.1731
 3547TIP3    H134836   5.726   2.669   9.871 -0.4822 -1.1284 -0.0434
 3547TIP3    H234837   5.604   2.702   9.788 -0.5190 -0.7248  0.1647
 3548TIP3   OH234838   6.733   5.788   8.539 -0.1640 -0.1827  0.3198
 3548TIP3    H134839   6.654   5.760   8.585  0.0305 -0.9744  0.1840
 3548TIP3    H234840   6.804   5.775   8.601 -0.0896  0.2044  0.3218
 3549TIP3   OH234841   3.670   5.923   0.374  0.5493  0.3602 -0.0796
 3549TIP3    H134842   3.588   5.879   0.398  0.2967  0.5803 -0.5140
 3549TIP3    H234843   3.724   5.855   0.336  0.0609  0.4660 -0.9879
 3550TIP3   OH234844   3.054   2.091   0.091 -0.4203  0.1069 -0.6201
 3550TIP3    H134845   3.055   2.140   0.009  1.4521  2.5357  0.7145
 3550TIP3    H234846   3.017   2.152   0.155  0.1199 -0.9220  0.7304
 3551TIP3   OH234847   2.092   3.809   9.718  1.3501  0.0751  0.1425
 3551TIP3    H134848   2.054   3.892   9.691  2.2155  0.6186  0.5521
 3551TIP3    H234849   2.022   3.745   9.706  0.2028  1.0966  1.1661
 3552TIP3   OH234850   1.655   3.297   1.298 -0.0906 -0.5563  0.2975
 3552TIP3    H134851   1.565   3.329   1.305  0.2321  0.0167  2.8835
 3552TIP3    H234852   1.687   3.296   1.389  2.7839  0.0504 -0.6087
 3553TIP3   OH234853   2.882   2.408   0.518 -0.1439 -0.0836  0.9532
 3553TIP3    H134854   2.906   2.496   0.548  0.3795 -0.7829  2.7137
 3553TIP3    H234855   2.923   2.349   0.581  0.3836 -1.6578 -0.7729
 3554TIP3   OH234856   2.864   1.594   8.746  0.3503  0.0694  0.6768
 3554TIP3    H134857   2.933   1.646   8.705 -0.2290  0.4415  0.1470
 3554TIP3    H234858   2.908   1.515   8.777  0.5962 -0.8819 -1.8795
 3555TIP3   OH234859   1.763   3.247   1.059  1.0967  0.4979  0.9787
 3555TIP3    H134860   1.721   3.274   1.140 -2.6627 -0.4297 -0.4258
 3555TIP3    H234861   1.707   3.283   0.990  0.1589 -4.0683 -1.0601
 3556TIP3   OH234862   0.234   4.995   9.099 -0.1780  0.3660 -0.1469
 3556TIP3    H134863   0.285   5.076   9.104 -0.8234  0.7571  0.2901
 3556TIP3    H234864   0.218   4.982   9.006 -1.2790  1.5256 -0.1449
 3557TIP3   OH234865   0.254   3.540   9.737 -0.5496 -0.1696  0.4484
 3557TIP3    H134866   0.187   3.476   9.761 -0.2009 -0.7171 -0.0128
 3557TIP3    H234867   0.211   3.597   9.673 -1.0819  0.5100  1.3804
 3558TIP3   OH234868   5.116   5.459  10.000 -0.1010  0.3333  0.3591
 3558TIP3    H134869   5.149   5.465  10.089  0.9689 -1.0023  0.0956
 3558TIP3    H234870   5.123   5.366   9.978  1.5080  0.8685 -1.7472
 3559TIP3   OH234871   3.510   2.384   6.944  0.3341  0.0122  0.2088
 3559TIP3    H134872   3.603   2.400   6.925  0.3407 -0.8517 -0.5598
 3559TIP3    H234873   3.505   2.289   6.956 -0.5491 -0.0140 -0.3327
 3560TIP3   OH234874   6.419   4.177   1.566 -0.2125 -0.0877  0.6395
 3560TIP3    H134875   6.393   4.095   1.610  0.4226 -2.2197 -2.5730
 3560TIP3    H234876   6.514   4.175   1.567 -0.1985  0.5113  0.3635
 3561TIP3   OH234877   2.460   5.436   1.048 -0.8976  0.2744 -0.3240
 3561TIP3    H134878   2.400   5.458   0.977 -0.7949  0.1678 -0.4461
 3561TIP3    H234879   2.547   5.439   1.008 -0.8920 -0.4843 -0.3831
 3562TIP3   OH234880   2.036   1.812   0.335  0.2692 -0.3786 -0.3523
 3562TIP3    H134881   1.999   1.723   0.334 -0.4641 -0.1200  1.2098
 3562TIP3    H234882   2.079   1.819   0.420  0.6073  0.6746 -0.5979
 3563TIP3   OH234883   4.083   0.930   8.983  0.4584  0.0620  0.0137
 3563TIP3    H134884   4.084   0.888   8.897 -0.5584  0.2997 -0.1289
 3563TIP3    H234885   4.154   0.993   8.980  1.3155 -0.8899 -0.1529
 3564TIP3   OH234886   2.948   7.266   2.896  0.0544 -0.5879  0.3571
 3564TIP3    H134887   3.023   7.210   2.914 -1.5813 -2.4896  1.7542
 3564TIP3    H234888   2.889   7.210   2.845 -1.3501  0.0458  1.2291
 3565TIP3   OH234889   2.369   2.184   7.508 -0.6338 -0.1523 -0.1217
 3565TIP3    H134890   2.408   2.104   7.545 -0.3379 -0.1565 -0.4357
 3565TIP3    H234891   2.445   2.238   7.485 -0.7975 -0.3689 -1.2023
 3566TIP3   OH234892   1.743   3.067   9.801  0.2011  0.2895  0.2194
 3566TIP3    H134893   1.799   2.989   9.803  0.7169  0.6576  0.5218
 3566TIP3    H234894   1.804   3.140   9.808 -0.2128  0.7634 -0.9001
 3567TIP3   OH234895   0.487   0.337   1.509 -0.1088  0.0848 -0.5394
 3567TIP3    H134896   0.435   0.407   1.547  0.1352 -0.6787  1.2847
 3567TIP3    H234897   0.445   0.320   1.424 -1.8370  0.6014  0.1566
 3568TIP3   OH234898   6.151   2.823   2.643  0.5313  0.5773 -0.4284
 3568TIP3    H134899   6.229   2.822   2.699  0.4196 -0.4114 -0.2757
 3568TIP3    H234900   6.141   2.732   2.614 -0.3495  0.7685 -0.7532
 3569TIP3   OH234901   0.347   1.581   8.069 -0.9293 -0.3618 -0.6069
 3569TIP3    H134902   0.271   1.564   8.014 -0.2621  2.9076 -2.8038
 3569TIP3    H234903   0.420   1.589   8.008  0.4622  0.3481  1.0754
 3570TIP3   OH234904   3.293   0.128   6.705 -0.3294  0.0042 -0.7884
 3570TIP3    H134905   3.299   0.221   6.683  1.7509 -0.0828 -0.8194
 3570TIP3    H234906   3.202   0.105   6.687 -0.6784  1.8197 -1.6083
 3571TIP3   OH234907   4.239   5.228   7.865 -0.3377 -0.6556 -0.1329
 3571TIP3    H134908   4.320   5.253   7.819 -0.5675  0.8796  0.2323
 3571TIP3    H234909   4.183   5.306   7.858 -0.6976 -0.6784  2.0226
 3572TIP3   OH234910   6.518   0.202   7.868 -0.9222  0.1138 -0.0262
 3572TIP3    H134911   6.601   0.245   7.847 -0.3984  1.2142  3.6890
 3572TIP3    H234912   6.522   0.119   7.820  2.7005 -0.2430  0.6120
 3573TIP3   OH234913   0.613   6.792   2.406 -0.0948 -0.2017 -0.0055
 3573TIP3    H134914   0.598   6.751   2.491  0.4451 -1.4001 -0.4619
 3573TIP3    H234915   0.689   6.849   2.420  1.4337 -2.0880 -0.1635
 3574TIP3   OH234916   0.437   2.446   8.477 -0.2518 -0.7968 -0.3668
 3574TIP3    H134917   0.486   2.456   8.395 -0.1952  0.3377 -0.2071
 3574TIP3    H234918   0.356   2.403   8.450  0.4499 -1.9625 -0.7520
 3575TIP3   OH234919   3.647   1.349   6.908 -0.0316  0.5347  0.0300
 3575TIP3    H134920   3.623   1.441   6.902 -0.4083  0.4988  0.8541
 3575TIP3    H234921   3.638   1.316   6.819 -0.6859  1.1018 -0.1239
 3576TIP3   OH234922   3.101   0.284   8.322  0.4735 -0.9481  0.3674
 3576TIP3    H134923   3.114   0.200   8.366  1.7463 -0.2969  1.3413
 3576TIP3    H234924   3.117   0.266   8.229  1.8539 -1.5872  0.7055
 3577TIP3   OH234925   2.954   0.608   8.049  0.0600  0.5143  0.3558
 3577TIP3    H134926   3.047   0.630   8.060 -0.0243  2.4645 -1.9598
 3577TIP3    H234927   2.953   0.514   8.031  1.4310  0.2085  1.6827
 3578TIP3   OH234928   5.863   0.476   0.421 -0.4642 -0.6730 -0.0918
 3578TIP3    H134929   5.824   0.563   0.423 -1.7704 -1.1975  3.3986
 3578TIP3    H234930   5.824   0.434   0.344 -2.6662  0.6239  0.2452
 3579TIP3   OH234931   6.421   3.000   9.855 -0.4024  0.1882 -0.5296
 3579TIP3    H134932   6.467   2.949   9.788  2.4939  0.1479  1.3150
 3579TIP3    H234933   6.455   3.089   9.845  0.7837  0.0040  1.3582
 3580TIP3   OH234934   4.459   3.655   0.502  0.2973 -0.2145  0.2478
 3580TIP3    H134935   4.473   3.575   0.552 -0.9047 -1.1176 -0.7983
 3580TIP3    H234936   4.520   3.718   0.539 -0.1670 -0.9989  2.4733
 3581TIP3   OH234937   4.995   3.138   7.744  0.7929  0.3599 -0.1733
 3581TIP3    H134938   5.028   3.093   7.666  0.1218  2.6434 -1.8928
 3581TIP3    H234939   5.045   3.219   7.748 -1.7853  2.0833 -0.5619
 3582TIP3   OH234940   2.815   0.886   0.354 -0.0474 -0.0442 -0.4812
 3582TIP3    H134941   2.739   0.886   0.411 -0.1672 -0.7580 -0.6319
 3582TIP3    H234942   2.843   0.977   0.351  0.2744 -0.0558  1.1327
 3583TIP3   OH234943   5.246   4.723   1.961  0.2785  0.0747  0.0437
 3583TIP3    H134944   5.280   4.690   2.044  0.6472  0.5011  0.0666
 3583TIP3    H234945   5.249   4.819   1.971  0.8020  0.1362 -0.6452
 3584TIP3   OH234946   3.140   1.207   7.454 -0.6285  0.5602 -0.3378
 3584TIP3    H134947   3.055   1.190   7.414 -0.7234  0.4293 -0.0851
 3584TIP3    H234948   3.181   1.120   7.458 -1.0642  0.3905  0.8488
 3585TIP3   OH234949   3.472   5.068   7.374  0.8359  0.4040 -0.3116
 3585TIP3    H134950   3.489   5.079   7.281  0.3228  0.1975 -0.4335
 3585TIP3    H234951   3.551   5.099   7.417  1.0041  0.6685 -0.8088
 3586TIP3   OH234952   5.800   0.671   1.819  0.1461  0.0424  0.0322
 3586TIP3    H134953   5.847   0.678   1.737 -2.0492 -0.6765 -1.3755
 3586TIP3    H234954   5.714   0.709   1.801 -1.0110 -1.7421  1.4184
 3587TIP3   OH234955   7.014   0.578   8.494 -0.1414 -0.6132 -0.6165
 3587TIP3    H134956   6.970   0.632   8.429  0.6042  0.2152 -0.4521
 3587TIP3    H234957   7.098   0.555   8.455 -0.0561 -0.8620 -0.3006
 3588TIP3   OH234958   0.052   1.958   9.243  0.3352  0.1914  0.4119
 3588TIP3    H134959  -0.038   1.937   9.216  0.8365 -1.0277 -0.3516
 3588TIP3    H234960   0.078   1.884   9.298  1.0732  0.2535  0.1512
 3589TIP3   OH234961   1.622   0.445   6.820  0.2861  0.7241  0.1400
 3589TIP3    H134962   1.682   0.422   6.750 -1.4850  0.7708 -1.4924
 3589TIP3    H234963   1.598   0.536   6.803 -0.1079  0.7689  0.8590
 3590TIP3   OH234964   7.240   5.950   8.947  0.6959  0.1572 -0.2931
 3590TIP3    H134965   7.243   5.864   8.988  0.4324 -0.6316 -1.8482
 3590TIP3    H234966   7.147   5.966   8.929  0.4013  1.9899  2.3390
 3591TIP3   OH234967   3.700   6.001   8.450  0.5871 -0.1227 -0.2152
 3591TIP3    H134968   3.630   6.021   8.388  0.0764 -1.1266  0.0043
 3591TIP3    H234969   3.721   5.909   8.433 -1.2153 -1.2004  2.6278
 3592TIP3   OH234970   1.704   2.539   1.353  0.0831  0.4347  0.1600
 3592TIP3    H134971   1.628   2.543   1.296  0.9237 -0.2510 -1.0707
 3592TIP3    H234972   1.772   2.498   1.299  1.3054  0.9704  1.2353
 3593TIP3   OH234973   0.771   4.440   8.742  0.0647  0.2865 -0.0084
 3593TIP3    H134974   0.755   4.473   8.654 -1.7274  0.5193  0.3582
 3593TIP3    H234975   0.864   4.418   8.743  0.7313  2.6438 -1.1626
 3594TIP3   OH234976   2.431   2.010   8.190  0.0705  0.3529 -0.3999
 3594TIP3    H134977   2.435   2.090   8.243  1.7756 -0.1884  0.3563
 3594TIP3    H234978   2.347   1.970   8.214 -1.0394  2.1001 -1.1369
 3595TIP3   OH234979   0.650   6.588   9.099 -0.0936  0.1954 -0.2127
 3595TIP3    H134980   0.620   6.552   9.016  0.0030  0.5539 -0.4032
 3595TIP3    H234981   0.742   6.560   9.105 -0.2116 -0.1711 -0.0320
 3596TIP3   OH234982   2.754   2.932   7.746  0.1777  0.7649 -0.6219
 3596TIP3    H134983   2.730   2.869   7.677  0.5341  0.5692 -0.5688
 3596TIP3    H234984   2.813   2.994   7.703 -0.2016  1.0864 -0.6835
 3597TIP3   OH234985   5.448   2.139   0.500 -0.0686 -0.2250 -0.0020
 3597TIP3    H134986   5.433   2.214   0.558  0.5499 -0.3559  0.3446
 3597TIP3    H234987   5.425   2.063   0.554  1.5185 -0.4135  0.4601
 3598TIP3   OH234988   6.286   3.599   8.603 -0.1312 -0.6238  0.5583
 3598TIP3    H134989   6.292   3.686   8.565  0.6791  0.7580  3.5496
 3598TIP3    H234990   6.362   3.552   8.569  0.8215  0.6927  0.8058
 3599TIP3   OH234991   6.803   3.763   9.431 -0.0062  0.3581 -0.3366
 3599TIP3    H134992   6.834   3.762   9.522 -1.9485  1.0398  0.3913
 3599TIP3    H234993   6.750   3.684   9.422 -0.1555  0.5024 -0.7571
 3600TIP3   OH234994   0.164   1.638   1.606  0.0266 -0.6386 -0.6307
 3600TIP3    H134995   0.119   1.630   1.690  0.3007 -0.9673 -0.5162
 3600TIP3    H234996   0.125   1.571   1.550 -0.2313 -0.3507 -0.8064
 3601TIP3   OH234997   5.295   1.534   2.095  0.3438 -0.4205 -0.3134
 3601TIP3    H134998   5.217   1.518   2.149  0.0113 -1.7506 -1.1539
 3601TIP3    H234999   5.289   1.627   2.073  0.4422  0.1549  1.8158
 3602TIP3   OH235000   6.480   3.807   0.438 -0.0801 -0.0772 -0.0684
 3602TIP3    H135001   6.500   3.792   0.530  0.6046 -0.8112 -0.3246
 3602TIP3    H235002   6.493   3.722   0.396 -1.1510  0.0506 -0.7203
 3603TIP3   OH235003   4.139   4.637   7.636  0.1167  0.0069 -0.0844
 3603TIP3    H135004   4.135   4.727   7.602 -2.4546 -0.3119 -0.8335
 3603TIP3    H235005   4.061   4.629   7.692  0.5353 -1.6375  0.3155
 3604TIP3   OH235006   1.486   4.906   8.080 -0.1017 -0.1746 -0.2288
 3604TIP3    H135007   1.514   4.819   8.111  1.4403  0.2146 -0.4573
 3604TIP3    H235008   1.547   4.967   8.122 -1.1677  0.8103 -0.0809
 3605TIP3   OH235009   0.363   0.775   6.589  0.6760  0.2596 -0.5199
 3605TIP3    H135010   0.425   0.849   6.590  1.4553 -0.3804 -0.5316
 3605TIP3    H235011   0.329   0.773   6.500  0.4332  0.7785 -0.4424
 3606TIP3   OH235012   0.251   6.670   2.065 -0.6312  0.1711 -0.0305
 3606TIP3    H135013   0.218   6.752   2.103 -0.4578 -0.3892  1.3858
 3606TIP3    H235014   0.346   6.680   2.066 -0.5323 -0.6751  1.6828
 3607TIP3   OH235015   1.000   3.425   1.059  0.3776  0.1016  0.3336
 3607TIP3    H135016   0.941   3.351   1.046  0.2427  0.4570 -1.3405
 3607TIP3    H235017   0.943   3.496   1.088 -0.8313  1.4330 -4.4093
 3608TIP3   OH235018   3.860   7.047   0.359 -0.0526  0.8506 -0.4416
 3608TIP3    H135019   3.795   7.114   0.337 -1.6270 -0.9931 -1.6647
 3608TIP3    H235020   3.815   6.988   0.419  0.9907  0.3323 -0.1448
 3609TIP3   OH235021   4.276   4.714   1.969 -0.2825 -0.0913 -0.0013
 3609TIP3    H135022   4.371   4.720   1.962 -0.0495 -1.2167  1.5663
 3609TIP3    H235023   4.257   4.620   1.967 -1.3330  0.1051 -0.0551
 3610TIP3   OH235024   3.247   1.838   0.757 -0.2420  0.4198 -0.3744
 3610TIP3    H135025   3.306   1.775   0.716 -0.0717  0.9854 -1.0141
 3610TIP3    H235026   3.229   1.801   0.843  1.5026  0.5174  0.0740
 3611TIP3   OH235027   1.424   2.642   8.599 -0.1576  0.2194 -0.4665
 3611TIP3    H135028   1.389   2.574   8.542 -0.7497  0.5864 -0.5543
 3611TIP3    H235029   1.434   2.718   8.541  0.9060  0.0896 -0.4680
 3612TIP3   OH235030   6.025   2.085   9.774 -0.2323  0.0101 -0.5145
 3612TIP3    H135031   6.091   2.135   9.822 -0.7659 -0.2969  0.5775
 3612TIP3    H235032   6.065   1.999   9.759  0.1885  0.3258 -1.2246
 3613TIP3   OH235033   4.518   1.248   9.268 -0.2056  0.1234 -0.7611
 3613TIP3    H135034   4.469   1.197   9.333  0.1008  0.9805  0.1539
 3613TIP3    H235035   4.515   1.194   9.189  0.1823 -1.3732  0.2024
 3614TIP3   OH235036   1.550   0.538   8.835 -0.4326  0.1088  0.0009
 3614TIP3    H135037   1.578   0.459   8.881 -1.4976 -1.0132 -1.2017
 3614TIP3    H235038   1.628   0.594   8.832 -0.0592 -0.2115  2.2090
 3615TIP3   OH235039   4.966   6.116   1.458 -0.2898 -0.0401 -0.3563
 3615TIP3    H135040   4.873   6.122   1.480  0.3598  3.3309  2.3228
 3615TIP3    H235041   4.983   6.193   1.405  0.9625 -0.7999 -1.1087
 3616TIP3   OH235042   1.753   6.712   8.766  0.0693 -0.0714 -0.6528
 3616TIP3    H135043   1.727   6.753   8.848  1.4906  0.4921 -0.4493
 3616TIP3    H235044   1.706   6.761   8.698 -1.4830 -0.8422 -0.1887
 3617TIP3   OH235045   3.952   1.506   1.987  0.1287  0.3714 -0.1334
 3617TIP3    H135046   3.886   1.570   2.012  1.5603  1.5067  0.8925
 3617TIP3    H235047   4.036   1.552   1.996  1.2189 -1.5968  0.5926
 3618TIP3   OH235048   6.138   7.190   9.094 -0.2565  0.2906  0.1775
 3618TIP3    H135049   6.070   7.158   9.034 -1.1115  0.4992  1.0108
 3618TIP3    H235050   6.095   7.191   9.180  0.4733  1.4407  0.5500
 3619TIP3   OH235051   3.556   6.751   3.140  0.2917  0.0883 -0.2768
 3619TIP3    H135052   3.490   6.817   3.117  0.0566  0.6400  1.7627
 3619TIP3    H235053   3.640   6.794   3.121  0.1009  0.4467 -0.3211
 3620TIP3   OH235054   5.406   3.851   2.114 -0.1590  0.1602 -0.9010
 3620TIP3    H135055   5.386   3.875   2.204  2.4237 -3.2210  0.8126
 3620TIP3    H235056   5.477   3.910   2.088 -0.5552  0.7969 -0.5591
 3621TIP3   OH235057   4.009   1.846   1.289  0.2198 -0.0603  0.3258
 3621TIP3    H135058   4.102   1.854   1.310  0.2301  1.0132 -0.0485
 3621TIP3    H235059   3.991   1.752   1.295  1.1680 -0.2149  1.0518
 3622TIP3   OH235060   3.021   3.628   9.014  0.4938  0.1286  0.1565
 3622TIP3    H135061   3.105   3.582   9.008 -0.3122 -1.4008  0.1009
 3622TIP3    H235062   3.045   3.720   9.017  2.1070 -0.1291 -2.0153
 3623TIP3   OH235063   0.900   1.509   0.519 -0.7267 -0.0953 -0.3338
 3623TIP3    H135064   0.927   1.561   0.443 -0.5832  0.3160 -0.0041
 3623TIP3    H235065   0.809   1.534   0.533 -0.4164  0.6870  0.3271
 3624TIP3   OH235066   6.382   3.324   8.801  0.5269 -0.3282 -0.2990
 3624TIP3    H135067   6.452   3.371   8.756 -1.6946  1.7550 -1.8735
 3624TIP3    H235068   6.361   3.251   8.743  0.4684 -0.1100 -0.5557
 3625TIP3   OH235069   1.243   0.660   9.144 -0.2175 -0.0969  0.1781
 3625TIP3    H135070   1.196   0.743   9.153  0.2582  0.0008  2.1530
 3625TIP3    H235071   1.255   0.650   9.050  0.3396  2.4406 -0.1024
 3626TIP3   OH235072   0.241   3.860   9.658 -0.1802 -0.1374  0.3555
 3626TIP3    H135073   0.177   3.798   9.623  1.2598  0.0814 -3.0481
 3626TIP3    H235074   0.325   3.819   9.640  0.7251  1.1237  1.5800
 3627TIP3   OH235075   5.941   3.248   8.700  0.2643 -0.3276  0.0593
 3627TIP3    H135076   6.000   3.286   8.635 -0.6022  0.6556 -0.1788
 3627TIP3    H235077   5.908   3.168   8.659  2.6253 -1.8112  0.8356
 3628TIP3   OH235078   2.771   4.009   7.400 -0.1771 -0.3880 -0.4691
 3628TIP3    H135079   2.859   3.994   7.434  0.3553 -1.2971 -2.1857
 3628TIP3    H235080   2.771   3.972   7.312 -1.9377  0.6192 -0.9565
 3629TIP3   OH235081   3.100   6.586   8.175 -0.8820 -0.2248 -0.3375
 3629TIP3    H135082   3.131   6.512   8.123 -0.4121 -1.8126  2.0023
 3629TIP3    H235083   3.062   6.647   8.112  0.9198 -1.3327 -2.6281
 3630TIP3   OH235084   6.026   2.274   7.947 -0.0258 -0.0323  0.3798
 3630TIP3    H135085   5.962   2.324   7.898  0.8806  0.7296 -0.0565
 3630TIP3    H235086   5.982   2.191   7.966 -1.3376  0.6927  0.6192
 3631TIP3   OH235087   7.006   1.401   8.005 -0.1530 -0.2320 -0.0586
 3631TIP3    H135088   7.034   1.350   7.929 -1.7539 -0.8094 -0.2979
 3631TIP3    H235089   6.960   1.338   8.060 -1.3199  0.7445  0.1051
 3632TIP3   OH235090   5.260   7.228   7.317  0.3760  0.4795 -0.3026
 3632TIP3    H135091   5.257   7.175   7.396 -1.3143 -1.0116 -1.2856
 3632TIP3    H235092   5.196   7.187   7.258  1.5129  1.5531 -2.4161
 3633TIP3   OH235093   1.852   4.224   1.197 -0.0268 -0.3806  0.0846
 3633TIP3    H135094   1.912   4.286   1.155 -0.6995  0.0354 -0.2809
 3633TIP3    H235095   1.816   4.173   1.125 -1.5077  0.6173  0.0702
 3634TIP3   OH235096   4.889   0.218   0.391 -0.0345  0.1035  0.7025
 3634TIP3    H135097   4.826   0.283   0.423  0.1857  0.7566 -0.1533
 3634TIP3    H235098   4.861   0.201   0.301  0.4707 -0.2806  0.6164
 3635TIP3   OH235099   4.756   4.673   0.920 -0.0557  0.0636  0.3422
 3635TIP3    H135100   4.825   4.725   0.962 -1.1252  1.8747 -0.0385
 3635TIP3    H235101   4.679   4.685   0.976 -0.3346 -1.1452  0.2383
 3636TIP3   OH235102   3.141   4.916   8.901  0.6506  0.3157 -0.1816
 3636TIP3    H135103   3.056   4.914   8.856  0.1357  1.2190  0.7107
 3636TIP3    H235104   3.172   4.825   8.897 -0.2678  0.0064 -0.6731
 3637TIP3   OH235105   5.143   0.162   6.798 -0.3436 -0.4059  0.1630
 3637TIP3    H135106   5.095   0.113   6.731  0.8181  1.7192 -2.4304
 3637TIP3    H235107   5.099   0.246   6.802  0.3598 -0.0697  1.1720
 3638TIP3   OH235108   2.703   3.832   2.293 -0.5998 -0.0708 -0.1751
 3638TIP3    H135109   2.764   3.841   2.366  0.6675 -0.5934 -1.1271
 3638TIP3    H235110   2.621   3.869   2.325  0.2762  0.8554  1.0699
 3639TIP3   OH235111   1.935   5.222   0.822  0.2165 -0.1755  0.2075
 3639TIP3    H135112   1.996   5.204   0.751 -0.6195 -0.5620 -0.4311
 3639TIP3    H235113   1.978   5.189   0.901  0.9221 -0.2346 -0.2002
 3640TIP3   OH235114   5.583   0.461   9.538 -0.1950  0.7415 -0.2531
 3640TIP3    H135115   5.520   0.395   9.511  0.6245  0.2196 -0.9339
 3640TIP3    H235116   5.659   0.447   9.482  1.2869  0.1147  1.7737
 3641TIP3   OH235117   3.954   0.224   8.268  0.0087  0.2323 -0.2835
 3641TIP3    H135118   3.964   0.192   8.358  1.0427 -1.4109 -0.9260
 3641TIP3    H235119   3.886   0.168   8.230  1.5590 -1.0267 -1.3182
 3642TIP3   OH235120   5.729   1.746   1.555  0.1130 -0.4483 -0.4360
 3642TIP3    H135121   5.775   1.825   1.584 -0.4017 -0.5072  0.5853
 3642TIP3    H235122   5.638   1.774   1.544 -0.2357 -1.0689  0.7189
 3643TIP3   OH235123   1.748   1.152   9.045 -0.2313 -0.0558  0.0809
 3643TIP3    H135124   1.701   1.185   8.968 -0.4757 -1.2335 -0.2983
 3643TIP3    H235125   1.768   1.230   9.096 -1.7797  0.5714 -0.2131
 3644TIP3   OH235126   4.505   2.956   1.377  0.7730  0.2635 -0.1796
 3644TIP3    H135127   4.561   2.992   1.446  0.2176 -0.4121  0.6562
 3644TIP3    H235128   4.566   2.921   1.312  1.4409 -2.3643  1.7033
 3645TIP3   OH235129   2.730   0.428   7.180 -0.1654  0.1718 -0.5326
 3645TIP3    H135130   2.662   0.488   7.151  0.5812  1.7398  0.8183
 3645TIP3    H235131   2.807   0.482   7.191  0.2542 -0.7743  1.8147
 3646TIP3   OH235132   3.017   1.202   0.223  0.0068 -0.4636  0.4396
 3646TIP3    H135133   3.024   1.118   0.179 -1.7071 -0.3246 -0.1381
 3646TIP3    H235134   3.076   1.260   0.175 -1.3008 -0.4968 -1.2806
 3647TIP3   OH235135   5.625   5.091   8.087 -0.2546 -0.0787 -0.4368
 3647TIP3    H135136   5.672   5.010   8.065  1.3109  0.5313  0.4515
 3647TIP3    H235137   5.692   5.159   8.082 -0.8268  0.7112  1.7597
 3648TIP3   OH235138   4.256   6.878   8.301  0.6864  0.3489  1.0953
 3648TIP3    H135139   4.228   6.919   8.383 -0.2036 -1.3953  1.7081
 3648TIP3    H235140   4.203   6.919   8.233 -1.5107 -0.9785  1.9097
 3649TIP3   OH235141   4.617   3.142   1.127 -0.5980 -0.6886 -0.3210
 3649TIP3    H135142   4.535   3.190   1.136 -0.6099 -0.8208  0.3093
 3649TIP3    H235143   4.677   3.203   1.084 -1.3442 -0.9599 -1.8145
 3650TIP3   OH235144   1.028   5.308   2.272  0.0084 -0.0341  0.0418
 3650TIP3    H135145   1.005   5.215   2.264 -0.8024  0.1402  0.3040
 3650TIP3    H235146   0.950   5.355   2.243 -1.1928  0.5897  3.7862
 3651TIP3   OH235147   0.810   6.263   0.184 -0.2432  0.1134  0.4903
 3651TIP3    H135148   0.753   6.270   0.107 -0.1252 -1.3070  0.2387
 3651TIP3    H235149   0.814   6.352   0.220 -1.1135  0.5967 -0.5595
 3652TIP3   OH235150   2.419   4.938   9.499 -0.3479 -0.1135 -0.1655
 3652TIP3    H135151   2.340   4.915   9.548 -1.3565  0.6666 -1.3701
 3652TIP3    H235152   2.448   4.856   9.460 -0.4422 -0.4419  0.4438
 3653TIP3   OH235153   1.401   6.001   9.132 -0.4571  0.2051  0.1512
 3653TIP3    H135154   1.394   5.907   9.119 -1.5702  0.0707  1.5023
 3653TIP3    H235155   1.458   6.031   9.061  0.3492 -1.5414  0.0263
 3654TIP3   OH235156   1.451   4.615   0.314 -0.0907 -0.5309  0.1410
 3654TIP3    H135157   1.447   4.693   0.259  0.1021 -0.9518 -0.4814
 3654TIP3    H235158   1.511   4.638   0.384  0.5368 -0.3606 -0.4355
 3655TIP3   OH235159   1.650   0.944   1.270  0.4916  0.5885 -0.2035
 3655TIP3    H135160   1.644   1.003   1.345  3.0067  2.0102 -1.0097
 3655TIP3    H235161   1.573   0.966   1.216 -0.6306  0.4417  1.2843
 3656TIP3   OH235162   1.798   3.381   1.955  0.0580 -0.5046 -0.7857
 3656TIP3    H135163   1.782   3.297   1.913 -0.6396  0.0478 -1.6674
 3656TIP3    H235164   1.894   3.387   1.960  0.1420 -0.9296 -1.6088
 3657TIP3   OH235165   5.886   4.459   1.640  0.3394  0.0512  0.2865
 3657TIP3    H135166   5.860   4.422   1.556  0.4882  2.0559 -0.6931
 3657TIP3    H235167   5.812   4.441   1.698 -0.5671  0.2772 -0.7719
 3658TIP3   OH235168   2.484   0.608   7.184  0.0280  0.5047 -0.5619
 3658TIP3    H135169   2.439   0.676   7.234 -0.2223 -0.2089  0.2045
 3658TIP3    H235170   2.421   0.585   7.115 -0.7513 -0.3545  0.3930
 3659TIP3   OH235171   4.445   6.085   7.344  0.3750 -0.2799  0.0343
 3659TIP3    H135172   4.497   6.086   7.264  0.0522 -1.2272 -0.1868
 3659TIP3    H235173   4.422   5.994   7.358  0.0405 -0.0721  0.9638
 3660TIP3   OH235174   0.660   0.964   8.227 -0.4892 -0.2707  0.9677
 3660TIP3    H135175   0.686   1.056   8.219  1.2937 -0.4161  3.6223
 3660TIP3    H235176   0.641   0.952   8.320 -0.3446 -2.6663  0.7640
 3661TIP3   OH235177   0.216   1.021   8.407  0.4334 -0.2912  0.2495
 3661TIP3    H135178   0.257   0.943   8.445  0.9187 -0.5387 -0.7486
 3661TIP3    H235179   0.254   1.094   8.455  0.3348 -0.6401  0.8686
 3662TIP3   OH235180   3.364   1.671   8.510 -0.2554  0.2646  0.3241
 3662TIP3    H135181   3.437   1.671   8.448 -1.2624  0.4089 -0.9056
 3662TIP3    H235182   3.313   1.749   8.486 -1.3644 -0.3958  0.4866
 3663TIP3   OH235183   1.055   1.106   0.868  0.0924  0.2993  0.4799
 3663TIP3    H135184   1.036   1.015   0.842 -2.3500  0.5665  1.1474
 3663TIP3    H235185   0.975   1.136   0.910  1.3432  2.3544  1.5100
 3664TIP3   OH235186   3.595   5.683   8.110 -0.2563  0.2400 -0.1759
 3664TIP3    H135187   3.587   5.620   8.039 -1.3591 -2.3316  2.0566
 3664TIP3    H235188   3.546   5.760   8.080  0.6181 -0.1097 -2.7416
 3665TIP3   OH235189   5.943   5.051   7.353 -0.4046  0.2809  0.2985
 3665TIP3    H135190   5.869   4.996   7.326  0.8511 -0.9463 -0.7490
 3665TIP3    H235191   5.962   5.104   7.276 -0.7452  1.2620  0.8677
 3666TIP3   OH235192   2.791   1.456   0.168  0.1278 -0.5895 -0.1669
 3666TIP3    H135193   2.818   1.365   0.160 -0.5285 -0.7052 -1.1394
 3666TIP3    H235194   2.778   1.469   0.262 -2.9542 -2.4419 -0.2166
 3667TIP3   OH235195   4.381   4.951   8.837 -0.0827  0.3862 -0.2235
 3667TIP3    H135196   4.305   4.984   8.788 -0.3260 -0.9589 -0.7941
 3667TIP3    H235197   4.370   4.856   8.837  0.8733  0.2511  0.9074
 3668TIP3   OH235198   6.887   6.269   7.248 -0.2947 -0.1940  0.2280
 3668TIP3    H135199   6.830   6.283   7.173  0.1029  0.2425  0.0034
 3668TIP3    H235200   6.925   6.182   7.233  0.3972  0.2145 -0.5021
 3669TIP3   OH235201   2.340   7.185   9.207 -0.0198  0.4387 -0.3188
 3669TIP3    H135202   2.252   7.192   9.242  0.0703  0.6649 -0.1375
 3669TIP3    H235203   2.345   7.253   9.140  0.7342  1.9450  1.1911
 3670TIP3   OH235204   5.570   2.246   7.683  0.7987  0.0970 -0.6401
 3670TIP3    H135205   5.575   2.223   7.591  2.1052  0.7741 -0.7683
 3670TIP3    H235206   5.552   2.163   7.728 -1.2646 -0.0110 -1.5779
 3671TIP3   OH235207   3.919   5.218   3.114 -0.0553  0.8261 -0.1487
 3671TIP3    H135208   3.843   5.269   3.143 -0.2288  1.5368 -1.7194
 3671TIP3    H235209   3.904   5.205   3.020  1.1998 -0.0304 -0.2547
 3672TIP3   OH235210   7.265   3.396   9.016  0.0727 -0.7121 -0.1618
 3672TIP3    H135211   7.170   3.385   9.012  0.0028  0.1588 -1.3545
 3672TIP3    H235212   7.297   3.310   9.043 -1.1601 -0.4915  2.2933
 3673TIP3   OH235213   4.732   2.651   8.758 -0.6729 -0.0018  0.0261
 3673TIP3    H135214   4.675   2.575   8.775  0.0886 -0.3541  1.1696
 3673TIP3    H235215   4.776   2.630   8.676 -2.0786  0.2314 -0.8292
 3674TIP3   OH235216   6.434   6.190   2.398  0.3717  0.4114 -0.6579
 3674TIP3    H135217   6.346   6.229   2.393 -0.4148 -0.9517  1.2050
 3674TIP3    H235218   6.422   6.111   2.450  2.9617  0.9497  0.9581
 3675TIP3   OH235219   3.143   6.655   8.594 -0.1757  0.3786  0.5547
 3675TIP3    H135220   3.078   6.592   8.562 -0.0091 -0.1873  1.3046
 3675TIP3    H235221   3.163   6.710   8.518 -1.9468  0.9304  0.4389
 3676TIP3   OH235222   4.621   1.561   0.074 -0.1518 -0.5176 -0.1839
 3676TIP3    H135223   4.636   1.576  -0.020 -0.1544  2.0814  0.1564
 3676TIP3    H235224   4.526   1.556   0.082 -0.1238 -1.6575 -0.4077
 3677TIP3   OH235225   1.899   1.557   1.793 -0.3712  0.5778  0.1299
 3677TIP3    H135226   1.891   1.480   1.849 -1.9721  0.9914  0.5229
 3677TIP3    H235227   1.985   1.594   1.816  0.5251 -1.1715 -0.2339
 3678TIP3   OH235228   4.404   1.013   2.103 -0.1643 -0.1555  0.2676
 3678TIP3    H135229   4.327   1.062   2.073  1.2699  1.5126 -0.9430
 3678TIP3    H235230   4.462   1.012   2.027  1.0199 -1.3808  1.1427
 3679TIP3   OH235231   4.224   4.511   9.830 -0.5127 -0.6760 -0.2632
 3679TIP3    H135232   4.310   4.550   9.816  0.1771 -1.0244  2.5599
 3679TIP3    H235233   4.200   4.535   9.919 -3.1275 -1.0673 -0.7624
 3680TIP3   OH235234   4.497   6.716   0.061 -0.4892  0.3632 -0.5020
 3680TIP3    H135235   4.479   6.741   0.151 -0.2331 -1.4008  0.0804
 3680TIP3    H235236   4.411   6.694   0.025 -0.5209  0.4544 -0.4829
 3681TIP3   OH235237   6.402   1.579   1.904 -0.3819 -0.1734 -0.3862
 3681TIP3    H135238   6.468   1.522   1.944  0.5664  0.7044 -0.6578
 3681TIP3    H235239   6.424   1.580   1.811 -0.4608  0.5266 -0.4026
 3682TIP3   OH235240   2.813   5.107   1.210  0.0422  0.0175  0.1252
 3682TIP3    H135241   2.813   5.013   1.228  1.8292 -0.2352 -0.8722
 3682TIP3    H235242   2.769   5.146   1.285 -1.5448 -1.6625  0.1427
 3683TIP3   OH235243   5.775   7.191   8.719 -0.3333  0.0794 -0.2606
 3683TIP3    H135244   5.756   7.160   8.630 -1.6944  1.1372 -0.3671
 3683TIP3    H235245   5.690   7.211   8.757  0.2473 -0.0731  1.2059
 3684TIP3   OH235246   2.012   6.516   9.543  0.1235  0.3511  0.2012
 3684TIP3    H135247   2.007   6.434   9.592 -1.1117  1.1169  1.4538
 3684TIP3    H235248   2.042   6.580   9.608 -3.0581  1.7195  0.5276
 3685TIP3   OH235249   4.465   4.248   1.037 -1.0592  0.5001  0.1360
 3685TIP3    H135250   4.507   4.262   1.122  0.6730 -0.9414 -0.4192
 3685TIP3    H235251   4.432   4.158   1.041 -1.4335  0.6036 -0.5230
 3686TIP3   OH235252   0.263   6.508   9.123  0.3645  0.4170 -0.2686
 3686TIP3    H135253   0.309   6.428   9.097  1.1445  0.4733  0.8167
 3686TIP3    H235254   0.191   6.517   9.061 -0.5369 -1.8387  0.3431
 3687TIP3   OH235255   3.658   0.352   1.720  0.1034 -0.0584  0.3079
 3687TIP3    H135256   3.619   0.390   1.641  1.5489  0.2183 -0.3054
 3687TIP3    H235257   3.743   0.395   1.728 -0.3461  0.5670  2.5259
 3688TIP3   OH235258   3.135   2.541   0.570 -0.0706  0.8777 -0.1152
 3688TIP3    H135259   3.123   2.636   0.570  1.6952  1.1548  0.9202
 3688TIP3    H235260   3.137   2.517   0.663  0.6882  0.0248 -0.3389
 3689TIP3   OH235261   2.200   4.902   9.654 -0.4119  0.2040 -0.3190
 3689TIP3    H135262   2.135   4.890   9.584 -1.4694  2.0461  0.2966
 3689TIP3    H235263   2.158   4.962   9.716  0.3370 -1.6587  2.1436
 3690TIP3   OH235264   1.738   1.731   1.964 -0.3707  0.0692  0.4606
 3690TIP3    H135265   1.675   1.729   1.892 -0.3439  3.5323  0.1436
 3690TIP3    H235266   1.822   1.714   1.923 -0.5725  0.1163  0.0204
 3691TIP3   OH235267   3.953   2.878   7.736  0.0202  0.3075  0.5581
 3691TIP3    H135268   3.942   2.956   7.683  0.3172 -0.4452 -0.6486
 3691TIP3    H235269   3.913   2.808   7.685  1.2192 -0.6192  0.8406
 3692TIP3   OH235270   4.588   0.821   2.000 -0.5825  0.0681 -0.7012
 3692TIP3    H135271   4.624   0.798   2.086 -1.2751  0.0906 -0.4008
 3692TIP3    H235272   4.642   0.894   1.970  1.3546 -1.5498 -1.4527
 3693TIP3   OH235273   6.759   3.167   8.303  0.1500  0.1696 -0.0427
 3693TIP3    H135274   6.725   3.079   8.290  0.8435  0.0141 -0.8963
 3693TIP3    H235275   6.744   3.212   8.220  0.1871  0.7246  0.2395
 3694TIP3   OH235276   1.047   3.497   8.716 -0.3162 -0.0513 -0.3697
 3694TIP3    H135277   1.079   3.408   8.726  1.3922  0.4454 -1.1017
 3694TIP3    H235278   0.973   3.489   8.656  1.9311 -0.6579 -3.2730
 3695TIP3   OH235279   6.419   3.074   1.910  0.0303  0.0616 -0.0276
 3695TIP3    H135280   6.355   3.102   1.974  0.8327  1.4085  0.2249
 3695TIP3    H235281   6.465   3.001   1.951 -0.4894 -0.0825  0.2969
 3696TIP3   OH235282   3.614   5.958   8.983 -0.4618 -0.6049 -0.7027
 3696TIP3    H135283   3.522   5.977   8.968 -0.2273  0.5751 -0.8066
 3696TIP3    H235284   3.656   5.978   8.900  0.2737  1.8370  0.1686
 3697TIP3   OH235285   5.403   2.613   9.278  0.4631  0.1689  0.2229
 3697TIP3    H135286   5.408   2.627   9.183 -0.8184  0.6063  0.1920
 3697TIP3    H235287   5.428   2.522   9.290  0.0554 -0.0679 -0.6084
 3698TIP3   OH235288   4.017   6.292   9.250 -0.0553  0.2674 -0.2035
 3698TIP3    H135289   4.009   6.330   9.163  2.7346  0.3032 -0.5320
 3698TIP3    H235290   4.031   6.199   9.235 -2.7275 -0.3405  0.4365
 3699TIP3   OH235291   3.590   2.663   0.266 -0.0920  0.0897 -0.1403
 3699TIP3    H135292   3.673   2.712   0.266  0.7749 -1.2663 -1.7587
 3699TIP3    H235293   3.615   2.573   0.288 -1.4162 -0.0020  1.1307
 3700TIP3   OH235294   2.731   2.221   0.788  0.6798  0.5703 -0.1902
 3700TIP3    H135295   2.730   2.196   0.880 -0.6333  0.8297 -0.1070
 3700TIP3    H235296   2.814   2.187   0.754  0.6467 -0.5573  0.7960
 3701TIP3   OH235297   5.578   0.850   7.695  0.7355 -0.6461  0.1478
 3701TIP3    H135298   5.621   0.803   7.765 -0.6702  0.4780  1.8547
 3701TIP3    H235299   5.588   0.793   7.618  2.9251 -1.5785  1.0434
 3702TIP3   OH235300   5.279   1.748   8.579  0.4348  0.3224  0.0003
 3702TIP3    H135301   5.266   1.669   8.632 -0.3290 -0.6939 -1.6295
 3702TIP3    H235302   5.192   1.788   8.574  0.7019  0.9599  0.3225
 3703TIP3   OH235303   3.319   6.234   8.437  0.0235 -0.0941 -0.2633
 3703TIP3    H135304   3.310   6.238   8.532 -0.6191 -1.0802 -0.2633
 3703TIP3    H235305   3.278   6.315   8.406 -0.1446  0.0329  0.2762
 3704TIP3   OH235306   2.180   1.558   2.398  0.4801 -0.0571 -0.6212
 3704TIP3    H135307   2.263   1.557   2.445 -0.8781 -4.0357  2.2697
 3704TIP3    H235308   2.134   1.635   2.431  1.4111 -0.1797  1.0190
 3705TIP3   OH235309   3.836   2.476   7.696  0.2247 -0.1714 -0.3306
 3705TIP3    H135310   3.896   2.504   7.626  0.3510 -1.3160 -0.6914
 3705TIP3    H235311   3.750   2.476   7.655  0.0358  0.8914  0.0253
 3706TIP3   OH235312   1.236   7.106   9.105  0.1272  0.1230  0.4075
 3706TIP3    H135313   1.235   7.041   9.176  0.5002  0.0370  0.3352
 3706TIP3    H235314   1.328   7.112   9.080  0.1623  1.0130  0.7235
 3707TIP3   OH235315   2.247   0.341   1.117  0.1901 -0.0446  0.5854
 3707TIP3    H135316   2.295   0.332   1.200 -0.5986 -0.0987  1.0445
 3707TIP3    H235317   2.307   0.307   1.051  0.5815 -0.6052  1.2153
 3708TIP3   OH235318   6.780   2.318   7.386 -0.1145  0.2473  0.0591
 3708TIP3    H135319   6.824   2.238   7.416  0.7650  0.9406  0.6584
 3708TIP3    H235320   6.833   2.347   7.311 -0.7803 -0.0438 -0.5372
 3709TIP3   OH235321   1.003   1.469   2.217  0.1800 -0.1684  0.1118
 3709TIP3    H135322   1.001   1.563   2.196  0.2415  0.4523  2.5608
 3709TIP3    H235323   0.940   1.430   2.156 -1.2051  1.7538  0.1939
 3710TIP3   OH235324   2.109   5.146   0.616 -0.2254  0.4102 -0.0110
 3710TIP3    H135325   2.169   5.220   0.618 -0.0108  0.2282  0.4339
 3710TIP3    H235326   2.139   5.092   0.543  1.0029 -0.3654  1.0169
 3711TIP3   OH235327   0.659   6.737   7.168 -0.4698 -0.3864  0.1395
 3711TIP3    H135328   0.751   6.711   7.173 -0.8565 -1.6123  2.3346
 3711TIP3    H235329   0.643   6.750   7.075  1.9771  0.1393 -0.2899
 3712TIP3   OH235330   1.717   1.493   2.718  0.1630  0.3080 -0.5492
 3712TIP3    H135331   1.684   1.547   2.790 -2.0307  1.3273 -2.2204
 3712TIP3    H235332   1.780   1.434   2.760  1.2720  2.8510  1.6933
 3713TIP3   OH235333   2.624   0.972   9.443  0.5155  0.5034  0.6615
 3713TIP3    H135334   2.610   0.923   9.524 -1.3995  1.2441  0.8490
 3713TIP3    H235335   2.718   0.986   9.439  0.7790 -0.5746  2.1390
 3714TIP3   OH235336   5.619   0.991   8.884  0.5359 -0.4150 -0.2069
 3714TIP3    H135337   5.608   1.009   8.977  1.3079  0.7733 -0.3360
 3714TIP3    H235338   5.557   0.919   8.866 -0.6467  0.2912  0.9072
 3715TIP3   OH235339   0.254   1.197   2.576 -0.1558  0.0115 -0.2817
 3715TIP3    H135340   0.185   1.153   2.526 -0.8629 -0.8007  1.3046
 3715TIP3    H235341   0.294   1.127   2.628  0.4512  0.8271  0.3800
 3716TIP3   OH235342   3.224   4.662   8.806 -0.0324  0.4462  0.0359
 3716TIP3    H135343   3.244   4.568   8.807  1.6266  0.7325 -1.1636
 3716TIP3    H235344   3.173   4.675   8.726  0.2941  0.6419 -0.1457
 3717TIP3   OH235345   7.132   0.699   8.721  0.1727  0.2420  0.5915
 3717TIP3    H135346   7.071   0.683   8.794  0.3010 -0.8444  0.4785
 3717TIP3    H235347   7.090   0.658   8.646  1.4359 -1.3311  0.7010
 3718TIP3   OH235348   4.053   0.484   8.953 -0.0937 -0.3178  0.2409
 3718TIP3    H135349   4.130   0.428   8.955  0.7558  0.8312  1.2188
 3718TIP3    H235350   4.086   0.569   8.924 -1.2414 -0.1269 -0.6105
 3719TIP3   OH235351   6.582   1.815   0.538  0.3734  0.0104  0.1671
 3719TIP3    H135352   6.590   1.765   0.456 -1.1712 -1.6419  0.9730
 3719TIP3    H235353   6.488   1.818   0.555  0.7004 -0.1562  2.1695
 3720TIP3   OH235354   5.290   4.484   8.490  0.2141  0.2272 -0.4433
 3720TIP3    H135355   5.260   4.575   8.494 -0.8125 -0.1005 -0.5914
 3720TIP3    H235356   5.289   4.462   8.397 -0.1746 -0.1360 -0.3582
 3721TIP3   OH235357   6.316   4.088   7.569  0.0206 -0.5388  0.0893
 3721TIP3    H135358   6.292   4.092   7.661 -1.0460 -0.2717 -0.1840
 3721TIP3    H235359   6.398   4.038   7.567  1.5860  1.7791  1.4650
 3722TIP3   OH235360   1.924   4.294   0.011  0.2753  0.6618 -0.0659
 3722TIP3    H135361   1.998   4.352   0.031  0.9588 -0.5055  0.8665
 3722TIP3    H235362   1.856   4.354  -0.021  1.7179  1.7258 -1.3185
 3723TIP3   OH235363   6.836   1.882   1.058  0.3861  0.1826 -0.1695
 3723TIP3    H135364   6.752   1.842   1.038  0.4937 -0.4240  0.5584
 3723TIP3    H235365   6.845   1.875   1.153  1.7542 -0.8068 -0.3348
 3724TIP3   OH235366   3.374   0.595   1.524  0.1498 -0.1859 -1.1998
 3724TIP3    H135367   3.382   0.640   1.608  0.6025 -1.3233 -0.6104
 3724TIP3    H235368   3.461   0.559   1.508 -0.1689 -0.7586 -1.6915
 3725TIP3   OH235369   1.119   0.478   2.533  0.1580 -0.3537 -0.0990
 3725TIP3    H135370   1.095   0.570   2.536 -1.5046 -0.7792  1.6646
 3725TIP3    H235371   1.127   0.458   2.439 -1.7808  1.0320 -0.6284
 3726TIP3   OH235372   3.416   4.619   7.717  0.1437 -0.2022 -0.2064
 3726TIP3    H135373   3.406   4.606   7.623  0.6770  0.4919 -0.3722
 3726TIP3    H235374   3.353   4.688   7.739  0.7466  0.3775 -0.2602
 3727TIP3   OH235375   1.938   0.417   8.521  0.6001 -0.3202 -0.3683
 3727TIP3    H135376   2.014   0.381   8.566  0.4853  0.3309  0.3709
 3727TIP3    H235377   1.933   0.508   8.551 -0.4764 -0.3582 -0.3864
 3728TIP3   OH235378   5.984   0.767   8.680 -0.2262 -0.8212 -0.0806
 3728TIP3    H135379   5.929   0.726   8.747 -0.0023 -0.0633  0.5799
 3728TIP3    H235380   6.065   0.789   8.725 -0.0058 -0.4564 -0.6435
 3729TIP3   OH235381   4.612   1.903   9.848  0.3198 -0.1152 -0.0775
 3729TIP3    H135382   4.689   1.879   9.795  0.8006 -1.8594  1.3156
 3729TIP3    H235383   4.537   1.878   9.794  0.7141  0.9332 -1.1564
 3730TIP3   OH235384   7.246   4.004   0.424  0.7917 -0.0809 -0.8662
 3730TIP3    H135385   7.253   3.972   0.514  0.4907  0.1294 -0.7651
 3730TIP3    H235386   7.239   3.925   0.371 -2.1788 -0.2100 -0.4358
 3731TIP3   OH235387   5.596   5.067   1.087  0.1365  0.2168  0.4233
 3731TIP3    H135388   5.605   5.067   1.183 -0.1597  1.6215  0.4758
 3731TIP3    H235389   5.551   5.150   1.067 -0.6346 -0.4839 -0.8689
 3732TIP3   OH235390   4.211   5.384   0.190 -0.4149  0.1337 -0.1453
 3732TIP3    H135391   4.271   5.404   0.118 -0.1147  1.8840  0.5431
 3732TIP3    H235392   4.248   5.306   0.231 -0.3328 -0.6126 -1.5802
 3733TIP3   OH235393   3.040   6.019   1.479 -0.3154  0.6191  0.5467
 3733TIP3    H135394   3.073   6.020   1.389 -2.3562 -1.7932 -0.3759
 3733TIP3    H235395   3.039   6.110   1.506 -1.2196  1.6688 -2.5616
 3734TIP3   OH235396   0.351   1.338   9.665 -0.2570  0.2426 -0.0366
 3734TIP3    H135397   0.312   1.308   9.747  0.1425 -0.0724  0.0400
 3734TIP3    H235398   0.290   1.309   9.597  0.1827 -0.8560  0.0260
 3735TIP3   OH235399   6.382   7.166   6.954  0.2555  0.2946 -0.0816
 3735TIP3    H135400   6.358   7.145   7.044 -0.3603  1.5096  0.0420
 3735TIP3    H235401   6.477   7.182   6.958 -0.1417  2.8203  0.8710
 3736TIP3   OH235402   6.488   6.292   9.255  0.5253  1.0573 -0.3182
 3736TIP3    H135403   6.498   6.366   9.195  1.7716  0.9886 -0.2268
 3736TIP3    H235404   6.577   6.275   9.287  0.2433 -0.4129 -0.2554
 3737TIP3   OH235405   4.616   3.723   7.057 -0.1898  0.2364 -0.0500
 3737TIP3    H135406   4.711   3.730   7.048 -0.0057  0.3434  1.5450
 3737TIP3    H235407   4.581   3.777   6.987  0.8954 -0.4932 -1.2053
 3738TIP3   OH235408   4.443   6.223   8.105 -0.2034 -0.3527  0.0767
 3738TIP3    H135409   4.354   6.252   8.086 -0.6873 -1.5826  0.3851
 3738TIP3    H235410   4.478   6.196   8.021 -0.0479  0.2896 -0.0731
 3739TIP3   OH235411   2.712   3.589   1.713  0.1544 -0.1770  0.3454
 3739TIP3    H135412   2.719   3.566   1.620 -2.0437 -1.6628  0.4544
 3739TIP3    H235413   2.788   3.549   1.754 -0.0847 -1.5859 -0.5102
 3740TIP3   OH235414   1.229   2.643   9.550 -0.6652  0.0106 -0.3725
 3740TIP3    H135415   1.257   2.654   9.459  0.0767 -0.4872 -0.2160
 3740TIP3    H235416   1.292   2.696   9.601  0.1891 -1.3104  0.0068
 3741TIP3   OH235417   5.155   1.112   8.015  0.6078  0.7015  0.3787
 3741TIP3    H135418   5.174   1.026   8.052  1.1374  0.6211 -0.0525
 3741TIP3    H235419   5.241   1.146   7.990  0.3387  1.0693 -0.0708
 3742TIP3   OH235420   0.734   2.516   0.628  0.2779  0.1967  0.4115
 3742TIP3    H135421   0.677   2.568   0.685  0.7319 -0.5671  1.6058
 3742TIP3    H235422   0.725   2.426   0.661 -0.2956 -0.4696 -1.4464
 3743TIP3   OH235423   2.881   4.687   8.941 -0.3982 -0.0841 -0.4294
 3743TIP3    H135424   2.882   4.764   8.885 -1.2429  0.2672  0.0200
 3743TIP3    H235425   2.890   4.613   8.881  3.2585  0.3809 -0.6840
 3744TIP3   OH235426   2.149   3.207   9.375  0.1099 -0.4639 -0.0944
 3744TIP3    H135427   2.057   3.226   9.358  0.1880 -0.3397 -0.3858
 3744TIP3    H235428   2.190   3.208   9.288  0.6246  0.7036  0.1484
 3745TIP3   OH235429   5.737   0.723   7.907  0.1462 -0.0302 -0.2453
 3745TIP3    H135430   5.828   0.701   7.925  0.6011  0.0299 -2.2623
 3745TIP3    H235431   5.689   0.642   7.923  0.5066 -0.0484  0.8776
 3746TIP3   OH235432   0.693   5.785   8.628 -0.1923 -0.1554  0.1956
 3746TIP3    H135433   0.749   5.848   8.672 -0.4408  0.5974 -0.5543
 3746TIP3    H235434   0.749   5.709   8.613 -0.3299 -0.8264  2.6069
 3747TIP3   OH235435   1.084   6.196   2.011 -0.1770 -0.5458 -0.2385
 3747TIP3    H135436   1.147   6.140   1.967  0.3295 -0.3223  0.1905
 3747TIP3    H235437   1.030   6.232   1.941  0.0772 -0.8575 -0.5932
 3748TIP3   OH235438   3.489   7.147   8.410  0.2024  0.3115  0.7340
 3748TIP3    H135439   3.585   7.151   8.408  0.4190 -2.4403  2.0051
 3748TIP3    H235440   3.468   7.110   8.496 -1.9067 -0.8944 -0.2297
 3749TIP3   OH235441   5.763   0.123   8.196 -0.1207  0.1580 -0.1234
 3749TIP3    H135442   5.674   0.157   8.202  0.3818  1.4457  0.2983
 3749TIP3    H235443   5.760   0.040   8.243 -1.4349 -0.5677 -1.4112
 3750TIP3   OH235444   4.314   6.752   9.711  0.4490 -0.0049 -0.2844
 3750TIP3    H135445   4.306   6.830   9.765  0.3227 -0.6935  0.7321
 3750TIP3    H235446   4.408   6.738   9.702  0.4712  0.2549 -0.4504
 3751TIP3   OH235447   5.074   2.946   7.530  0.1990 -0.3357 -0.7176
 3751TIP3    H135448   5.082   2.879   7.461  0.2408 -1.2540  0.1609
 3751TIP3    H235449   5.157   2.940   7.578  0.0919  0.1770 -0.4693
 3752TIP3   OH235450   6.521   1.092   7.613 -0.3603  0.0051 -0.6370
 3752TIP3    H135451   6.574   1.170   7.600 -1.9926  1.2512 -0.2356
 3752TIP3    H235452   6.518   1.080   7.708 -0.0570 -0.6121 -0.6985
 3753TIP3   OH235453   2.483   4.388   1.487  0.2626  0.0812  0.3006
 3753TIP3    H135454   2.408   4.373   1.544  0.1902  0.3126  0.2656
 3753TIP3    H235455   2.445   4.399   1.399  0.1613  1.9911  0.5302
 3754TIP3   OH235456   2.092   2.684   8.971 -0.2139  0.5346 -0.4321
 3754TIP3    H135457   2.066   2.683   8.879 -0.2251 -2.0718 -0.4811
 3754TIP3    H235458   2.069   2.772   9.002 -2.0624  0.8245 -2.4003
 3755TIP3   OH235459   3.708   7.268   0.731 -0.4277  0.6407 -0.6183
 3755TIP3    H135460   3.680   7.350   0.692  1.7648  1.2743 -1.0170
 3755TIP3    H235461   3.752   7.293   0.812 -1.2010 -0.3031  0.1161
 3756TIP3   OH235462   2.852   2.881   8.545  0.1654 -0.4699 -0.5057
 3756TIP3    H135463   2.766   2.881   8.503  0.0029  3.5702 -0.5594
 3756TIP3    H235464   2.911   2.843   8.479 -1.5604 -4.7405  0.0718
 3757TIP3   OH235465   1.011   1.945   8.406  0.1673  0.4487 -0.4109
 3757TIP3    H135466   0.980   1.886   8.337  0.3842  1.0526 -1.0423
 3757TIP3    H235467   1.102   1.919   8.420 -0.6159 -1.5178  1.6496
 3758TIP3   OH235468   5.832   5.309   8.103 -0.1642  0.0319  0.6852
 3758TIP3    H135469   5.869   5.391   8.070  2.2591 -0.8173  1.0642
 3758TIP3    H235470   5.830   5.320   8.198  0.7615 -0.5186  0.7875
 3759TIP3   OH235471   6.096   4.799   9.144 -0.3309 -0.2001 -0.0831
 3759TIP3    H135472   6.012   4.770   9.110 -0.0286 -2.4010  0.8413
 3759TIP3    H235473   6.153   4.722   9.135  1.4282  1.0485 -0.1608
 3760TIP3   OH235474   7.187   6.564   9.313 -0.0085  0.3517 -0.3794
 3760TIP3    H135475   7.210   6.648   9.274 -0.4846  1.0216  0.7438
 3760TIP3    H235476   7.117   6.530   9.257  0.3635  0.5697 -0.9892
 3761TIP3   OH235477   3.906   4.443   1.308 -0.5929  0.1477 -0.6093
 3761TIP3    H135478   3.929   4.524   1.353 -2.1276  0.9810 -1.2325
 3761TIP3    H235479   3.880   4.383   1.377  1.9306 -0.3610 -0.0116
 3762TIP3   OH235480   5.983   0.666   8.041 -0.1579 -0.0422  0.3241
 3762TIP3    H135481   6.016   0.576   8.046 -1.6269 -0.7192 -1.0805
 3762TIP3    H235482   6.058   0.721   8.063  1.3354 -1.5466 -0.7875
 3763TIP3   OH235483   0.351   2.178   2.027  0.2290 -0.1142 -0.6241
 3763TIP3    H135484   0.328   2.145   2.114  0.4275 -1.2916 -0.9966
 3763TIP3    H235485   0.441   2.209   2.036 -0.7514  2.8064  0.3721
 3764TIP3   OH235486   1.526   3.063   1.208  0.1138  0.5748 -0.3171
 3764TIP3    H135487   1.528   3.022   1.294  3.3533  0.6316 -0.2379
 3764TIP3    H235488   1.565   3.149   1.221 -1.9361  1.7726 -1.4103
 3765TIP3   OH235489   3.598   3.222   8.415  0.0328 -0.3497  0.7844
 3765TIP3    H135490   3.604   3.127   8.413  1.9735 -0.2642  0.0422
 3765TIP3    H235491   3.566   3.246   8.328  0.8257 -0.2850  0.5024
 3766TIP3   OH235492   6.960   0.314   2.216  0.3728 -0.3266 -0.1433
 3766TIP3    H135493   6.950   0.275   2.129 -0.0277  0.2191 -0.3488
 3766TIP3    H235494   6.916   0.398   2.209 -0.5573 -0.7127  0.8929
 3767TIP3   OH235495   2.499   0.372   1.668  0.2783 -0.2107 -0.0122
 3767TIP3    H135496   2.551   0.336   1.596 -0.3306  1.1942 -1.2216
 3767TIP3    H235497   2.563   0.404   1.731  1.1674  3.6020 -2.4955
 3768TIP3   OH235498   3.985   5.682   8.087 -0.6512  0.0067  0.7325
 3768TIP3    H135499   3.978   5.766   8.133 -2.4055 -0.1651  0.8372
 3768TIP3    H235500   3.928   5.691   8.011  0.4465 -0.5350 -0.1906
 3769TIP3   OH235501   6.661   6.570   0.544 -0.4119 -0.1177  0.6880
 3769TIP3    H135502   6.723   6.507   0.581 -2.1251 -1.0963  2.0120
 3769TIP3    H235503   6.686   6.577   0.451  1.6125 -0.4925  1.1541
 3770TIP3   OH235504   3.304   5.744   8.568 -0.2530  0.0439  0.3244
 3770TIP3    H135505   3.330   5.659   8.604  0.9368 -0.1843 -0.9942
 3770TIP3    H235506   3.270   5.724   8.481  1.3665  1.0088 -0.5934
 3771TIP3   OH235507   3.783   2.736   9.607  0.2440 -0.3786  0.0204
 3771TIP3    H135508   3.817   2.656   9.646  1.9332 -0.2987 -1.1449
 3771TIP3    H235509   3.862   2.782   9.576 -0.6859  1.6205  0.4469
 3772TIP3   OH235510   7.156   1.115   3.080  0.0438 -0.3842 -0.3051
 3772TIP3    H135511   7.190   1.178   3.015 -0.5462  0.6558  0.3729
 3772TIP3    H235512   7.080   1.159   3.118 -1.7841 -2.4283 -1.3918
 3773TIP3   OH235513   1.941   6.692   0.459  0.1338  0.2625  0.4327
 3773TIP3    H135514   1.978   6.775   0.491 -0.6946  1.4865 -1.5797
 3773TIP3    H235515   1.892   6.657   0.533  0.7457  1.4206  1.4169
 3774TIP3   OH235516   6.512   5.443   1.981  0.4425 -0.0072 -0.5811
 3774TIP3    H135517   6.508   5.496   1.901  0.1065 -0.0270 -0.5769
 3774TIP3    H235518   6.443   5.378   1.970  0.1583  0.2106 -0.1223
 3775TIP3   OH235519   1.575   6.363   7.653  0.4830 -0.1783 -0.3065
 3775TIP3    H135520   1.495   6.382   7.604  0.7292 -1.9043 -1.4410
 3775TIP3    H235521   1.607   6.281   7.617  1.1170 -1.1480  2.2430
 3776TIP3   OH235522   1.871   6.578   2.426 -0.3256  0.3836 -0.2001
 3776TIP3    H135523   1.948   6.553   2.477  0.0503  1.5511 -0.1541
 3776TIP3    H235524   1.805   6.512   2.448  0.4619 -0.2781  0.2377
 3777TIP3   OH235525   1.245   3.390   8.369  0.0204 -0.1087 -0.0772
 3777TIP3    H135526   1.292   3.404   8.451 -0.0499 -4.0567  0.8660
 3777TIP3    H235527   1.153   3.401   8.391  0.0903  0.3910 -0.0382
 3778TIP3   OH235528   0.047   2.013   7.225 -0.5506  0.2306 -0.2318
 3778TIP3    H135529  -0.010   2.073   7.177  1.1710  1.4094 -0.9317
 3778TIP3    H235530   0.063   1.941   7.164 -1.3378 -0.1431 -0.0021
 3779TIP3   OH235531   2.477   2.119   0.378 -0.6887 -0.5537  0.3054
 3779TIP3    H135532   2.474   2.118   0.282  0.5594 -1.0159  0.2594
 3779TIP3    H235533   2.513   2.034   0.402 -1.4961 -0.6564  1.2222
 3780TIP3   OH235534   3.090   5.566   7.581  0.0894  0.2872 -0.0515
 3780TIP3    H135535   3.077   5.654   7.547 -1.9557  0.5804  1.3192
 3780TIP3    H235536   3.025   5.512   7.535  1.4252 -0.5916 -0.9987
 3781TIP3   OH235537   4.583   6.810   7.437  0.0045  0.3063 -0.4691
 3781TIP3    H135538   4.622   6.723   7.437  0.7450  0.6165 -1.2202
 3781TIP3    H235539   4.654   6.867   7.407 -0.4839  1.1587 -0.0451
 3782TIP3   OH235540   6.055   2.238   7.007 -0.2685 -0.1106  0.7851
 3782TIP3    H135541   5.966   2.241   7.040 -0.0699 -1.3901  1.5018
 3782TIP3    H235542   6.110   2.258   7.082  0.0775  0.2432  0.4472
 3783TIP3   OH235543   1.578   1.784   0.405  0.3603 -0.0284  0.0552
 3783TIP3    H135544   1.501   1.742   0.443 -0.6929 -1.0169 -2.9539
 3783TIP3    H235545   1.543   1.852   0.348  1.8423  0.9679  0.2760
 3784TIP3   OH235546   0.331   6.253   0.205 -0.1081  0.0152 -0.5839
 3784TIP3    H135547   0.244   6.216   0.188  0.0860  0.5524 -3.2289
 3784TIP3    H235548   0.316   6.347   0.214  0.2563  0.2062 -1.8233
 3785TIP3   OH235549   0.946   2.726   0.270  0.2588  0.5215 -0.1495
 3785TIP3    H135550   0.904   2.726   0.183  0.2586 -0.1604 -0.1588
 3785TIP3    H235551   0.929   2.638   0.304  1.4792  0.3063 -0.0571
 3786TIP3   OH235552   3.039   4.686   1.600  0.2732  0.2915  0.2810
 3786TIP3    H135553   2.998   4.613   1.645  1.2113 -1.5981 -1.7227
 3786TIP3    H235554   2.993   4.690   1.516  1.0384  1.2261 -0.1086
 3787TIP3   OH235555   4.895   5.306   1.159  0.0195  0.1708  0.4789
 3787TIP3    H135556   4.889   5.313   1.255 -0.2721 -0.1224  0.4836
 3787TIP3    H235557   4.804   5.315   1.129 -0.0553 -1.0128  0.3149
 3788TIP3   OH235558   5.402   2.653   7.867  0.1044  0.0075  0.7515
 3788TIP3    H135559   5.329   2.702   7.904 -0.6066 -0.7905  0.4204
 3788TIP3    H235560   5.362   2.592   7.806  1.1700  0.7337 -0.7508
 3789TIP3   OH235561   4.964   1.231   2.578  0.0163 -0.1495  0.0097
 3789TIP3    H135562   4.884   1.182   2.598  0.7743 -0.7257  1.8201
 3789TIP3    H235563   4.947   1.320   2.610 -1.2532  0.8387 -3.0242
 3790TIP3   OH235564   7.186   0.673   1.076 -0.1318  0.1306 -0.6531
 3790TIP3    H135565   7.253   0.682   1.143  0.0960 -1.4893 -0.6127
 3790TIP3    H235566   7.228   0.701   0.995 -0.3879  2.0410 -0.1738
 3791TIP3   OH235567   3.414   3.851   7.785  0.6031 -0.5194  0.2982
 3791TIP3    H135568   3.412   3.945   7.799  3.6228 -0.2688 -0.2756
 3791TIP3    H235569   3.324   3.828   7.761 -0.6019  1.8879  2.0674
 3792TIP3   OH235570   1.801   3.331   7.287 -0.0188  0.1623  0.6331
 3792TIP3    H135571   1.757   3.247   7.301 -0.7845  0.6956  1.5170
 3792TIP3    H235572   1.894   3.312   7.299 -0.1234 -0.6755  0.2223
 3793TIP3   OH235573   4.004   1.036   1.415 -0.7292  0.3528 -0.1747
 3793TIP3    H135574   3.975   0.946   1.431  0.9289 -0.2425 -0.2904
 3793TIP3    H235575   4.034   1.036   1.324  0.4768  0.6406  0.1935
 3794TIP3   OH235576   5.634   6.877   1.519 -0.0537 -0.4076  0.0133
 3794TIP3    H135577   5.570   6.814   1.484  0.7144 -0.5175 -1.2729
 3794TIP3    H235578   5.719   6.835   1.502  0.3726 -0.4800  2.1115
 3795TIP3   OH235579   1.106   0.336   1.860 -0.4153 -0.1560 -0.7115
 3795TIP3    H135580   1.139   0.320   1.948 -0.1811 -0.9271 -0.9372
 3795TIP3    H235581   1.172   0.298   1.802  0.7943  2.6085 -1.3333
 3796TIP3   OH235582   2.107   5.920   7.689 -0.3432  0.1859 -0.2338
 3796TIP3    H135583   2.098   5.882   7.601  1.2250  0.6448 -0.6395
 3796TIP3    H235584   2.053   5.865   7.745 -1.0981 -0.3361 -1.4304
 3797TIP3   OH235585   2.983   6.220   9.725 -0.0670 -0.2959  0.6742
 3797TIP3    H135586   2.943   6.288   9.671 -1.4145 -1.5805 -0.0069
 3797TIP3    H235587   2.917   6.151   9.731  1.6508 -2.0707  0.3811
 3798TIP3   OH235588   1.864   2.040   8.657 -0.0235  0.1663 -0.8515
 3798TIP3    H135589   1.884   2.109   8.720 -2.5319  0.3027 -0.0783
 3798TIP3    H235590   1.865   1.959   8.708 -1.9700  0.2643 -0.5746
 3799TIP3   OH235591   5.590   3.477   2.530 -0.4971 -0.5304 -0.2394
 3799TIP3    H135592   5.528   3.548   2.545 -0.9229 -0.9133 -0.1836
 3799TIP3    H235593   5.552   3.426   2.458 -0.1039 -0.5967 -0.4023
 3800TIP3   OH235594   1.001   5.074   0.035 -0.1473 -0.1308 -0.5048
 3800TIP3    H135595   1.035   5.000  -0.016 -1.1685 -0.3916 -0.8292
 3800TIP3    H235596   0.908   5.053   0.049 -0.0177  0.1693  1.0317
 3801TIP3   OH235597   1.547   1.628   1.008  0.3497 -0.3424  0.0280
 3801TIP3    H135598   1.536   1.720   1.034 -1.3308  0.0989 -1.9573
 3801TIP3    H235599   1.563   1.581   1.090  0.3916  1.5923  1.1881
 3802TIP3   OH235600   1.335   4.194   3.026  0.5449 -0.3036 -0.3092
 3802TIP3    H135601   1.294   4.259   2.968  2.0847  0.6359 -0.3959
 3802TIP3    H235602   1.375   4.130   2.966  0.7492 -0.2246 -0.2576
 3803TIP3   OH235603   6.753   4.652   8.269  0.1972 -0.8100  0.1606
 3803TIP3    H135604   6.682   4.667   8.330  0.2075 -0.6879  0.1426
 3803TIP3    H235605   6.726   4.576   8.218  0.2480 -0.9931  0.4048
 3804TIP3   OH235606   2.537   5.536   1.677 -0.3168  0.1442  0.1911
 3804TIP3    H135607   2.493   5.516   1.595  0.0229 -0.2083  0.0971
 3804TIP3    H235608   2.509   5.467   1.737  0.6154 -0.4518 -0.0494
 3805TIP3   OH235609   2.226   6.146   8.446  0.3483  0.3014  0.3541
 3805TIP3    H135610   2.209   6.062   8.489  0.5430  0.1537  0.1418
 3805TIP3    H235611   2.244   6.206   8.519 -0.6294  0.3602  0.5580
 3806TIP3   OH235612   4.258   5.364   7.231  0.2023 -0.0662 -0.5445
 3806TIP3    H135613   4.199   5.439   7.216 -1.4271 -1.6528 -2.6302
 3806TIP3    H235614   4.291   5.342   7.144  1.4394 -1.1974  0.1846
 3807TIP3   OH235615   4.136   5.022   8.335 -0.1690 -0.5357  0.4689
 3807TIP3    H135616   4.078   5.067   8.397 -1.3166 -0.4447 -0.6481
 3807TIP3    H235617   4.138   5.078   8.258  1.0455 -0.7820  0.2958
 3808TIP3   OH235618   5.609   1.347   2.315 -0.1146  0.3064  0.8386
 3808TIP3    H135619   5.664   1.299   2.377 -1.2564  0.8642  2.3427
 3808TIP3    H235620   5.609   1.437   2.347 -2.0389  0.2856  1.0096
 3809TIP3   OH235621   4.597   5.405   0.186 -0.5541  0.1056  0.8670
 3809TIP3    H135622   4.551   5.328   0.154 -1.5292  0.6698  0.9018
 3809TIP3    H235623   4.565   5.417   0.275 -0.1727  0.3820  0.9715
 3810TIP3   OH235624   4.836   4.802   7.720 -0.4794 -0.2637 -0.2921
 3810TIP3    H135625   4.875   4.882   7.683  0.1522  0.0607  1.0036
 3810TIP3    H235626   4.897   4.776   7.790 -1.9441 -0.4531  0.9621
 3811TIP3   OH235627   1.393   6.143   1.513  0.0499  0.0898  0.0347
 3811TIP3    H135628   1.456   6.200   1.557 -0.5344  1.0868 -0.3752
 3811TIP3    H235629   1.315   6.144   1.569  0.4603 -1.3166  0.6538
 3812TIP3   OH235630   4.348   1.764   7.217  0.5628 -0.4279 -0.2936
 3812TIP3    H135631   4.349   1.678   7.174  0.3173 -0.0807 -1.0048
 3812TIP3    H235632   4.268   1.805   7.186  0.0521 -0.3955  0.9848
 3813TIP3   OH235633   2.140   4.375   7.623 -0.3283 -0.0422 -0.6324
 3813TIP3    H135634   2.153   4.431   7.699 -0.5042  2.2310 -2.1669
 3813TIP3    H235635   2.115   4.436   7.553 -2.6344 -2.2658 -1.9254
 3814TIP3   OH235636   5.095   4.898   7.288 -0.3090  0.6202 -0.1772
 3814TIP3    H135637   5.003   4.875   7.296 -0.3808  0.7134 -0.6911
 3814TIP3    H235638   5.096   4.976   7.233  0.0693  0.6763 -0.0971
 3815TIP3   OH235639   2.609   6.805   1.176 -0.4577 -0.3334 -0.6861
 3815TIP3    H135640   2.643   6.889   1.206  0.7178 -0.5920 -1.2203
 3815TIP3    H235641   2.514   6.813   1.182 -0.3143  0.2269  1.4011
 3816TIP3   OH235642   1.358   6.703   2.669  0.1857  0.4132 -0.4529
 3816TIP3    H135643   1.424   6.637   2.689  0.7626  1.5160  1.4608
 3816TIP3    H235644   1.285   6.654   2.631  0.3997 -1.3956  1.3659
 3817TIP3   OH235645   0.300   2.915   0.540  0.3789  0.0416  0.0409
 3817TIP3    H135646   0.259   2.943   0.458  1.3925 -0.2010 -0.5781
 3817TIP3    H235647   0.260   2.970   0.607 -1.2982 -0.5425 -0.4535
 3818TIP3   OH235648   5.575   3.350   1.987 -0.2287 -0.4745 -0.4614
 3818TIP3    H135649   5.552   3.442   1.975  1.3169  0.3293  2.0504
 3818TIP3    H235650   5.616   3.325   1.904 -1.7527  0.6733 -1.6333
 3819TIP3   OH235651   1.280   5.945   9.499 -1.1033  0.0528  0.0045
 3819TIP3    H135652   1.265   5.851   9.505 -1.2854  0.0879  0.1042
 3819TIP3    H235653   1.193   5.982   9.482 -0.8742  0.1022 -1.1797
 3820TIP3   OH235654   6.877   3.608   8.832  0.0629  0.1138 -0.6392
 3820TIP3    H135655   6.960   3.609   8.880  0.8459  0.9641 -1.9422
 3820TIP3    H235656   6.859   3.701   8.815 -1.0909 -0.0714 -0.5089
 3821TIP3   OH235657   5.807   2.702   6.932  0.4768 -0.6378 -0.2800
 3821TIP3    H135658   5.810   2.780   6.987  2.1014 -0.4956 -0.5087
 3821TIP3    H235659   5.746   2.724   6.861  0.4304  0.1740  0.0065
 3822TIP3   OH235660   5.210   5.516   9.721 -0.5037 -0.4907 -0.0285
 3822TIP3    H135661   5.276   5.577   9.689  0.6016 -1.1165  1.0024
 3822TIP3    H235662   5.170   5.561   9.796 -3.3657  1.1449 -2.3261
 3823TIP3   OH235663   6.585   1.689   0.304  0.7196 -0.2028  0.5339
 3823TIP3    H135664   6.645   1.615   0.297  0.3359 -0.4410 -0.3434
 3823TIP3    H235665   6.529   1.683   0.227  0.4693  0.8173  0.6108
 3824TIP3   OH235666   0.573   0.115   8.342 -0.1450  0.3878  0.2928
 3824TIP3    H135667   0.557   0.130   8.248 -0.6274 -0.5636  0.2178
 3824TIP3    H235668   0.633   0.040   8.344 -1.2264 -0.4894  0.7750
 3825TIP3   OH235669   4.877   1.706   7.917 -0.4597  0.6379  0.0881
 3825TIP3    H135670   4.862   1.751   8.000 -1.9760 -1.3007  0.9543
 3825TIP3    H235671   4.825   1.755   7.853 -0.3008  1.4003  0.5266
 3826TIP3   OH235672   1.570   5.531   2.388 -0.0684 -0.2594  0.1687
 3826TIP3    H135673   1.530   5.617   2.404  0.2953 -0.0519 -0.0148
 3826TIP3    H235674   1.632   5.519   2.459  0.5862  0.0705 -0.3339
 3827TIP3   OH235675   0.134   1.694   0.472  0.2813 -0.1301 -0.1996
 3827TIP3    H135676   0.081   1.677   0.394 -0.6156  0.1304  0.3377
 3827TIP3    H235677   0.138   1.790   0.477  0.1070 -0.1398  0.2121
 3828TIP3   OH235678   2.248   3.686   2.734  0.4248 -0.0248  0.7107
 3828TIP3    H135679   2.152   3.685   2.731  0.3008 -2.0659  2.7232
 3828TIP3    H235680   2.274   3.629   2.661  0.1844  1.2069 -0.3718
 3829TIP3   OH235681   6.077   1.825   1.400 -0.1619  0.1458  0.2092
 3829TIP3    H135682   6.097   1.919   1.403 -0.5267  0.2062  0.8807
 3829TIP3    H235683   6.031   1.813   1.317  0.0377  0.5308  0.0405
 3830TIP3   OH235684   0.842   0.490   2.630 -0.3500 -0.3584  0.1322
 3830TIP3    H135685   0.926   0.481   2.676  0.0504 -1.4185 -0.7493
 3830TIP3    H235686   0.854   0.439   2.549 -1.8136 -0.4310 -0.0607
 3831TIP3   OH235687   1.980   3.229   8.970  0.0770  0.5566 -0.4234
 3831TIP3    H135688   2.053   3.290   8.986 -0.2496  0.8090  0.1301
 3831TIP3    H235689   1.902   3.284   8.969 -0.0632  0.3483 -1.5121
 3832TIP3   OH235690   4.941   5.120   0.956 -0.4346 -0.0471  0.0964
 3832TIP3    H135691   4.854   5.143   0.922  0.7621  2.0747 -1.7689
 3832TIP3    H235692   4.954   5.178   1.031 -0.8791 -0.9036  0.8631
 3833TIP3   OH235693   1.953   5.427   0.367  0.1043  0.2261 -0.3273
 3833TIP3    H135694   1.931   5.385   0.450 -0.9613  0.2589 -0.5768
 3833TIP3    H235695   1.954   5.355   0.304  0.4435  0.2661 -0.3642
 3834TIP3   OH235696   6.102   3.381   9.969 -0.0827 -0.8807 -0.7660
 3834TIP3    H135697   6.089   3.448  10.037  0.1467 -0.7679 -0.8325
 3834TIP3    H235698   6.191   3.396   9.938 -0.4929 -0.3684 -1.7160
 3835TIP3   OH235699   5.835   1.138   9.735 -0.3184  0.6809  0.5301
 3835TIP3    H135700   5.782   1.062   9.757  1.6815 -0.1514  2.9982
 3835TIP3    H235701   5.908   1.103   9.685  1.3838  0.6186  2.8972
 3836TIP3   OH235702   4.385   2.702   6.808 -0.4362  0.4991  0.2162
 3836TIP3    H135703   4.478   2.723   6.805  0.3068 -2.2172  1.3155
 3836TIP3    H235704   4.358   2.727   6.896 -0.2629 -0.3868  0.5300
 3837TIP3   OH235705   4.959   5.091   7.690  0.1593  0.6547  0.2712
 3837TIP3    H135706   5.029   5.054   7.638 -0.3481  1.7088 -1.2347
 3837TIP3    H235707   4.973   5.186   7.686 -2.5488  1.0894 -1.9878
 3838TIP3   OH235708   0.863   5.171   1.997  0.1743  0.4416  0.3966
 3838TIP3    H135709   0.868   5.258   1.959  0.2589  0.0997 -0.4056
 3838TIP3    H235710   0.904   5.114   1.931  2.7714  0.1532  2.1187
 3839TIP3   OH235711   0.057   1.424   1.488 -0.0362  0.4739  0.2116
 3839TIP3    H135712  -0.038   1.421   1.482  0.0665 -0.7175 -3.8523
 3839TIP3    H235713   0.081   1.339   1.527 -0.6562 -0.7491 -1.8891
 3840TIP3   OH235714   5.570   5.988   7.331 -0.1069  0.0309 -0.4627
 3840TIP3    H135715   5.576   5.994   7.235  0.9034  0.1432 -0.4007
 3840TIP3    H235716   5.509   6.058   7.355 -0.4809 -0.0934 -1.0324
 3841TIP3   OH235717   5.622   1.290   1.697 -0.3700 -0.3811 -0.0839
 3841TIP3    H135718   5.651   1.330   1.779  2.3603 -0.8141 -0.7644
 3841TIP3    H235719   5.574   1.212   1.724  0.0788 -0.2601  1.1189
 3842TIP3   OH235720   2.900   2.906   1.893 -0.5394  0.0863  0.2785
 3842TIP3    H135721   2.808   2.901   1.918 -0.6568 -0.8433 -0.3004
 3842TIP3    H235722   2.900   2.954   1.810 -0.7578 -1.8696 -0.8990
 3843TIP3   OH235723   1.327   0.413   8.641 -0.5982  0.1855  0.2403
 3843TIP3    H135724   1.394   0.380   8.581 -1.8115  0.5091 -1.3607
 3843TIP3    H235725   1.244   0.396   8.597 -1.4207  2.9598  0.5032
 3844TIP3   OH235726   4.608   5.117   0.380 -0.0202  0.1428 -0.6436
 3844TIP3    H135727   4.664   5.163   0.317 -0.3072  0.8496 -0.3882
 3844TIP3    H235728   4.663   5.046   0.413  1.2211  1.6244  0.6114
 3845TIP3   OH235729   3.430   5.154   9.779  0.3524  0.4207  0.1808
 3845TIP3    H135730   3.472   5.073   9.750 -1.6891  0.7646 -4.5802
 3845TIP3    H235731   3.490   5.223   9.751  0.2789  0.6920  0.6809
 3846TIP3   OH235732   5.540   5.422   7.193  0.1679 -0.1159  0.5945
 3846TIP3    H135733   5.548   5.379   7.107  0.3646 -1.3496  1.2054
 3846TIP3    H235734   5.448   5.449   7.197  0.5937  1.7089 -0.7809
 3847TIP3   OH235735   5.521   0.215   0.187  0.5015 -0.6303  0.0633
 3847TIP3    H135736   5.485   0.247   0.269 -1.2283  0.2421 -0.9798
 3847TIP3    H235737   5.473   0.134   0.170  1.8162 -1.5546  0.5374
 3848TIP3   OH235738   1.649   1.467   8.106 -0.2498  0.0402 -0.1275
 3848TIP3    H135739   1.596   1.460   8.026  1.2105 -0.9662 -1.0669
 3848TIP3    H235740   1.677   1.559   8.108 -1.0395  0.2884 -0.2750
 3849TIP3   OH235741   5.892   3.245   2.804  0.1627 -0.1107 -0.6236
 3849TIP3    H135742   5.930   3.301   2.872 -0.8080 -0.4176  0.1953
 3849TIP3    H235743   5.872   3.305   2.732 -0.2147  0.4923 -0.0320
 3850TIP3   OH235744   0.056   4.656   6.850 -0.3301 -0.1102  0.1413
 3850TIP3    H135745   0.089   4.714   6.782  2.3179 -0.8806  0.6490
 3850TIP3    H235746   0.078   4.701   6.932  3.8691 -2.5931  0.6430
 3851TIP3   OH235747   7.276   4.658   0.253  0.4564 -0.0367 -0.2238
 3851TIP3    H135748   7.302   4.577   0.298 -0.9214  0.1432  0.9540
 3851TIP3    H235749   7.241   4.714   0.323 -0.4263  0.8161 -1.3158
 3852TIP3   OH235750   1.054   4.680   7.281 -0.1545 -0.8739  0.5134
 3852TIP3    H135751   0.988   4.611   7.272  0.4925 -1.6731  1.5894
 3852TIP3    H235752   1.108   4.672   7.202 -1.0594 -0.4937 -0.1659
 3853TIP3   OH235753   7.163   5.683   2.769 -0.3124 -0.0466 -0.6311
 3853TIP3    H135754   7.088   5.680   2.829  0.3202  1.3260  0.2914
 3853TIP3    H235755   7.191   5.593   2.761 -0.3397 -0.2594  1.2687
 3854TIP3   OH235756   4.014   1.191   8.041  0.4520 -0.0772  0.2134
 3854TIP3    H135757   3.970   1.274   8.056  0.6808 -0.2275  1.8464
 3854TIP3    H235758   4.105   1.207   8.064  0.7121 -0.5148 -0.4701
 3855TIP3   OH235759   3.617   1.143   0.751  1.0021  0.3436 -0.0583
 3855TIP3    H135760   3.602   1.227   0.796  0.4819 -0.3827  1.1766
 3855TIP3    H235761   3.655   1.168   0.667 -1.4201  1.9848 -0.7926
 3856TIP3   OH235762   6.019   0.503   1.855 -0.0125 -0.9189  0.2227
 3856TIP3    H135763   5.945   0.563   1.856  0.0373 -0.7756 -1.4676
 3856TIP3    H235764   6.032   0.482   1.762  1.7877 -1.2727  0.5087
 3857TIP3   OH235765   1.468   2.452   8.234  0.0634 -0.5612  0.0793
 3857TIP3    H135766   1.523   2.468   8.311 -0.1064  0.4443 -0.0046
 3857TIP3    H235767   1.425   2.368   8.253  0.7122 -0.7679  0.6708
 3858TIP3   OH235768   6.488   5.873   2.959  0.4523  0.2994  0.3558
 3858TIP3    H135769   6.546   5.906   2.890  1.7062  0.3778  1.4127
 3858TIP3    H235770   6.405   5.856   2.914  0.7529  1.8206 -0.8623
 3859TIP3   OH235771   2.619   3.415   7.757  0.4000 -0.4286  0.2738
 3859TIP3    H135772   2.585   3.484   7.700  1.2884 -0.1221  0.1020
 3859TIP3    H235773   2.700   3.386   7.715  1.0607 -0.2177  1.3578
 3860TIP3   OH235774   6.734   1.462   0.362  0.1914 -0.4455 -0.4497
 3860TIP3    H135775   6.823   1.478   0.392  0.7855 -0.4227 -2.1468
 3860TIP3    H235776   6.713   1.375   0.396  0.0036  0.4249  1.8206
 3861TIP3   OH235777   3.036   0.168   2.721 -0.2250  0.3109  0.0104
 3861TIP3    H135778   3.017   0.113   2.798  0.1954  3.0246  2.2247
 3861TIP3    H235779   3.129   0.189   2.729 -0.3504  1.2441 -0.7984
 3862TIP3   OH235780   1.879   3.237   9.359  0.3110  0.4612 -0.1081
 3862TIP3    H135781   1.850   3.154   9.321 -0.5972 -0.2031  1.9287
 3862TIP3    H235782   1.804   3.295   9.349 -0.4489 -0.1292  1.8023
 3863TIP3   OH235783   3.075   5.311   9.236 -0.2143 -0.2410  0.6291
 3863TIP3    H135784   3.053   5.350   9.152 -1.5664 -3.0976 -0.4624
 3863TIP3    H235785   2.994   5.270   9.266  0.9457 -1.7676  1.8652
 3864TIP3   OH235786   1.329   2.798   6.905  0.2762  0.1964 -0.4487
 3864TIP3    H135787   1.365   2.778   6.819  0.2697 -1.1145 -0.1599
 3864TIP3    H235788   1.375   2.740   6.965  0.7135  1.5055  0.5424
 3865TIP3   OH235789   0.753   1.714   0.003  0.3965 -0.3358  0.1554
 3865TIP3    H135790   0.680   1.694   0.061  0.6216 -0.3085  0.4499
 3865TIP3    H235791   0.756   1.810  -0.001 -0.2676 -0.3364 -0.7313
 3866TIP3   OH235792   5.531   1.612   1.799 -0.3123  0.0107  0.2522
 3866TIP3    H135793   5.529   1.539   1.861 -1.8810 -0.7752 -0.6581
 3866TIP3    H235794   5.476   1.679   1.839 -0.6648 -0.1822  0.0995
 3867TIP3   OH235795   6.201   1.754   8.604 -0.2331 -0.5137  0.3414
 3867TIP3    H135796   6.283   1.750   8.652  1.5558 -0.2236 -2.4957
 3867TIP3    H235797   6.155   1.830   8.642  2.4634  1.6322 -0.3382
 3868TIP3   OH235798   6.398   2.498   8.367 -0.1429  0.4508  0.6497
 3868TIP3    H135799   6.373   2.410   8.338  0.9131  0.9597 -2.0331
 3868TIP3    H235800   6.406   2.490   8.462 -0.9002 -2.1333  0.5702
 3869TIP3   OH235801   3.684   7.239   2.857 -0.1409  0.2244 -0.0894
 3869TIP3    H135802   3.689   7.148   2.830 -0.0485  0.7004 -1.8066
 3869TIP3    H235803   3.596   7.248   2.894 -0.2483 -0.5042 -0.1614
 3870TIP3   OH235804   5.660   4.360   1.761  0.1768  0.5788 -0.2762
 3870TIP3    H135805   5.594   4.306   1.803 -1.7623  2.3267 -0.8968
 3870TIP3    H235806   5.649   4.446   1.801  1.4343  1.1446 -1.0835
 3871TIP3   OH235807   0.551   5.180   8.749  0.7556 -0.2550 -0.7869
 3871TIP3    H135808   0.628   5.204   8.698  1.0722  0.0273 -0.1794
 3871TIP3    H235809   0.575   5.098   8.791  1.9208  1.3346  1.8659
 3872TIP3   OH235810   6.473   5.858   8.941  1.3499  0.1665  0.3497
 3872TIP3    H135811   6.411   5.931   8.938  0.6825 -0.3905  0.3925
 3872TIP3    H235812   6.441   5.802   9.011  1.4316 -0.5493 -0.1711
 3873TIP3   OH235813   3.651   0.231   7.756  0.3567 -0.1275  1.0129
 3873TIP3    H135814   3.575   0.183   7.722  1.0900 -0.6772  0.0940
 3873TIP3    H235815   3.705   0.164   7.798  0.3267  0.2646  1.6851
 3874TIP3   OH235816   3.644   5.596   7.096  0.2716 -0.2913 -0.1128
 3874TIP3    H135817   3.669   5.676   7.144 -0.3154  0.1699 -0.5601
 3874TIP3    H235818   3.621   5.533   7.164 -1.5020  0.6643  0.2330
 3875TIP3   OH235819   0.078   4.317   7.072 -0.0469  0.0814  0.1251
 3875TIP3    H135820   0.032   4.244   7.031 -0.1411 -0.7881  1.6994
 3875TIP3    H235821   0.168   4.309   7.040 -0.6435  1.0678 -2.0023
 3876TIP3   OH235822   1.067   2.996   0.228  0.0071 -0.3629  0.0928
 3876TIP3    H135823   1.124   3.024   0.157  0.5772  0.9178  1.0243
 3876TIP3    H235824   0.978   3.000   0.191  0.4180 -1.4823 -1.0803
 3877TIP3   OH235825   6.233   6.007   1.071 -0.1766  0.3662 -0.0818
 3877TIP3    H135826   6.254   6.086   1.022 -1.2098  1.5898  1.3577
 3877TIP3    H235827   6.195   6.039   1.153 -0.0031 -1.6172  0.8293
 3878TIP3   OH235828   5.013   5.653   9.465  0.7916 -0.5367 -0.4672
 3878TIP3    H135829   4.967   5.591   9.407 -3.7346 -0.1412  2.2317
 3878TIP3    H235830   5.054   5.598   9.531  0.8031 -0.7919 -0.6837
 3879TIP3   OH235831   2.444   3.602   1.661 -0.2150 -0.3871  0.2459
 3879TIP3    H135832   2.381   3.589   1.732  0.5597  0.4191  1.0938
 3879TIP3    H235833   2.527   3.618   1.704 -0.1547  2.5101 -0.7646
 3880TIP3   OH235834   1.303   4.499   0.900 -0.6892  0.1114 -0.1258
 3880TIP3    H135835   1.374   4.512   0.963 -1.0279 -0.0646  0.2903
 3880TIP3    H235836   1.279   4.407   0.910  1.1948 -0.7738 -2.5097
 3881TIP3   OH235837   0.627   5.870   7.951  0.8282  0.3691 -0.4745
 3881TIP3    H135838   0.582   5.944   7.992 -1.5244 -1.3867  0.3271
 3881TIP3    H235839   0.615   5.883   7.857 -1.0496  0.1576 -0.2828
 3882TIP3   OH235840   4.990   2.834   1.877  0.6873  0.5761  0.6429
 3882TIP3    H135841   5.047   2.778   1.930  1.1553 -1.5249 -1.8862
 3882TIP3    H235842   5.050   2.889   1.827  0.6269 -1.1539 -1.5058
 3883TIP3   OH235843   6.509   4.023   0.794 -0.7154  0.2055 -0.5509
 3883TIP3    H135844   6.442   3.956   0.801 -1.2706  0.8610  0.7795
 3883TIP3    H235845   6.585   3.987   0.840 -0.6737  0.0979 -0.7019
 3884TIP3   OH235846   2.630   5.485   7.312  0.0099 -0.1168  0.1528
 3884TIP3    H135847   2.554   5.444   7.273 -0.0924  0.2320 -0.0184
 3884TIP3    H235848   2.653   5.557   7.253  0.1940  0.0634  0.4352
 3885TIP3   OH235849   4.478   0.665   0.189  0.2716  0.4112  0.3594
 3885TIP3    H135850   4.459   0.583   0.235 -0.3015  0.0211 -0.5261
 3885TIP3    H235851   4.400   0.719   0.203 -0.1987  0.0393 -0.6395
 3886TIP3   OH235852   7.107   4.319   9.245  0.0444  0.7911  0.3171
 3886TIP3    H135853   7.025   4.355   9.279 -0.0191  0.5460  0.4299
 3886TIP3    H235854   7.128   4.247   9.305 -1.2921 -1.1806 -1.4037
 3887TIP3   OH235855   6.763   3.138   9.339  1.0162 -0.1013  0.3042
 3887TIP3    H135856   6.694   3.204   9.327  0.8408 -0.4007 -0.3903
 3887TIP3    H235857   6.841   3.176   9.299  0.3360 -1.2628 -2.3381
 3888TIP3   OH235858   1.157   4.350   0.583 -0.5313  0.3059  0.1534
 3888TIP3    H135859   1.141   4.307   0.667  1.9080 -1.2003 -0.0334
 3888TIP3    H235860   1.198   4.433   0.606  0.9404 -0.4858  0.5053
 3889TIP3   OH235861   7.061   6.508   7.698  0.1115 -0.0941  0.2177
 3889TIP3    H135862   7.008   6.430   7.683  0.2601 -0.5184  1.7285
 3889TIP3    H235863   7.146   6.474   7.725  0.4793  0.5966 -0.0447
 3890TIP3   OH235864   1.850   1.327   1.939  0.6032  0.7243 -0.4307
 3890TIP3    H135865   1.789   1.254   1.949  0.4936  0.5066 -2.2717
 3890TIP3    H235866   1.845   1.375   2.022 -0.3829 -0.5490  0.2778
 3891TIP3   OH235867   6.843   3.873   8.774  0.0438 -0.2925  0.0382
 3891TIP3    H135868   6.776   3.893   8.840  0.0835 -0.0207 -0.0031
 3891TIP3    H235869   6.829   3.938   8.706 -0.6570 -1.1933 -0.7164
 3892TIP3   OH235870   1.076   6.833   2.724  0.0503 -0.1325  0.1858
 3892TIP3    H135871   0.986   6.862   2.740 -0.2331 -0.5993 -0.4599
 3892TIP3    H235872   1.070   6.737   2.727  0.1163 -0.2428 -1.7290
 3893TIP3   OH235873   3.447   6.294   3.039  0.1746  0.3924 -0.0251
 3893TIP3    H135874   3.485   6.225   3.093 -0.5876 -0.8328 -1.0192
 3893TIP3    H235875   3.354   6.273   3.033 -0.0773  1.5239 -0.3128
 3894TIP3   OH235876   6.164   6.433   8.884  0.0841 -0.6639 -0.1992
 3894TIP3    H135877   6.110   6.413   8.960 -0.6380  1.5682 -0.0621
 3894TIP3    H235878   6.117   6.395   8.810 -2.1600  1.7476 -0.1765
 3895TIP3   OH235879   6.953   4.367   7.399 -0.3536 -0.3690  0.6157
 3895TIP3    H135880   6.883   4.381   7.335 -0.4005 -1.1633  0.4858
 3895TIP3    H235881   7.021   4.321   7.350  0.3123  0.4869  0.7166
 3896TIP3   OH235882   3.574   5.312   0.764 -0.1057  0.2140 -0.0189
 3896TIP3    H135883   3.587   5.234   0.818 -0.4388  0.9475  1.1680
 3896TIP3    H235884   3.594   5.385   0.822  0.8791  1.0118 -1.3123
 3897TIP3   OH235885   3.251   6.800   7.461 -0.0890 -0.1982  0.2214
 3897TIP3    H135886   3.174   6.767   7.415  0.0696 -0.4932  0.1626
 3897TIP3    H235887   3.324   6.749   7.425  0.1803  0.3213  0.0301
 3898TIP3   OH235888   5.255   6.476   0.213  0.3194  0.6177  0.4049
 3898TIP3    H135889   5.224   6.451   0.300 -0.4538 -0.5032 -0.1677
 3898TIP3    H235890   5.334   6.423   0.199  0.4030  0.7437  0.3952
 3899TIP3   OH235891   0.963   0.224   0.639  0.0793  0.0706  0.0946
 3899TIP3    H135892   0.947   0.222   0.544 -1.6436  1.3951  0.3134
 3899TIP3    H235893   0.953   0.133   0.666 -1.3001 -0.0708 -0.7560
 3900TIP3   OH235894   6.779   4.317   7.173  0.3430  0.6873  0.1013
 3900TIP3    H135895   6.812   4.228   7.167 -0.3904  0.5263 -3.3221
 3900TIP3    H235896   6.813   4.361   7.095 -1.0651  2.7764  0.5864
 3901TIP3   OH235897   5.664   6.405   9.716  0.1061  0.2144  0.4631
 3901TIP3    H135898   5.737   6.358   9.675  0.0766 -0.0128  0.6631
 3901TIP3    H235899   5.702   6.443   9.795 -0.2121 -0.7415  1.0991
 3902TIP3   OH235900   7.175   0.409   8.134  0.6398  0.1463  0.0313
 3902TIP3    H135901   7.154   0.398   8.227 -0.6276  1.5980 -0.0444
 3902TIP3    H235902   7.232   0.335   8.114 -0.8917 -1.5137  1.4121
 3903TIP3   OH235903   2.256   2.790   0.111 -0.2634 -0.2080  0.0835
 3903TIP3    H135904   2.180   2.756   0.158 -1.0944  0.6866 -0.5911
 3903TIP3    H235905   2.225   2.807   0.022  0.9655 -0.6750 -0.4641
 3904TIP3   OH235906   3.922   0.699   7.837 -0.4150  0.2407 -0.3287
 3904TIP3    H135907   3.848   0.731   7.888 -1.2938 -1.3361 -0.5625
 3904TIP3    H235908   3.902   0.607   7.819  2.2242 -0.6768  0.7861
 3905TIP3   OH235909   3.252   3.811   1.970 -0.2413 -0.0245 -0.1629
 3905TIP3    H135910   3.292   3.889   1.933  0.2205  0.1374  0.6543
 3905TIP3    H235911   3.182   3.844   2.026 -0.4323 -0.2303 -0.2749
 3906TIP3   OH235912   5.163   2.753   7.375  0.3034  0.1716 -0.2797
 3906TIP3    H135913   5.181   2.665   7.410  1.3342  0.5311  0.1250
 3906TIP3    H235914   5.233   2.768   7.312  0.1327  0.7106 -0.3427
 3907TIP3   OH235915   4.213   6.242   0.098  0.3080 -0.7972 -0.3338
 3907TIP3    H135916   4.230   6.236   0.004 -0.2428 -0.7093 -0.4407
 3907TIP3    H235917   4.254   6.164   0.135 -0.0181 -1.1593 -0.7277
 3908TIP3   OH235918   2.520   5.194   0.900  0.2489  0.1025 -0.1389
 3908TIP3    H135919   2.520   5.274   0.953  1.4842 -0.5388  0.8793
 3908TIP3    H235920   2.610   5.162   0.904  0.0581 -0.6991 -1.5467
 3909TIP3   OH235921   0.393   3.096   0.141 -0.0309 -0.0387  0.5565
 3909TIP3    H135922   0.325   3.163   0.141  0.5710  0.5884 -0.3820
 3909TIP3    H235923   0.363   3.032   0.207 -1.8907 -0.1537 -0.3346
 3910TIP3   OH235924   0.811   6.789   8.731  0.4455  0.0794 -0.2415
 3910TIP3    H135925   0.722   6.816   8.753  0.0763 -1.3274  0.0747
 3910TIP3    H235926   0.811   6.783   8.636  0.9422  2.4293 -0.4632
 3911TIP3   OH235927   7.093   2.909   9.942 -0.6797  0.4264 -0.1431
 3911TIP3    H135928   7.040   2.869  10.012  1.4780  0.8620  1.8811
 3911TIP3    H235929   7.081   3.003   9.955 -0.2885  0.5069 -0.3710
 3912TIP3   OH235930   2.269   3.607   9.771  0.1954 -1.0607  0.3818
 3912TIP3    H135931   2.231   3.694   9.762  0.9120 -0.8479 -0.7770
 3912TIP3    H235932   2.326   3.614   9.848  2.3724  0.3378 -1.2359
 3913TIP3   OH235933   3.740   3.044   8.926 -0.0915 -0.2379  0.5680
 3913TIP3    H135934   3.646   3.052   8.942 -0.0549  1.5717  0.1274
 3913TIP3    H235935   3.760   3.118   8.868  1.8617  0.2822  1.8468
 3914TIP3   OH235936   4.299   4.947   0.745 -0.2797 -0.2535  0.3000
 3914TIP3    H135937   4.314   4.973   0.836 -0.3027  1.0433 -0.0452
 3914TIP3    H235938   4.281   4.853   0.750 -0.9571 -0.0889  1.7137
 3915TIP3   OH235939   1.672   5.296   6.560 -0.3756  0.3064 -0.2028
 3915TIP3    H135940   1.716   5.347   6.492 -1.3402  0.4993 -0.7025
 3915TIP3    H235941   1.580   5.294   6.533 -0.8873  0.8155  1.3472
 3916TIP3   OH235942   4.137   1.741   8.257  0.5908 -0.3351  0.2133
 3916TIP3    H135943   4.149   1.732   8.351  1.8382  0.2183  0.1254
 3916TIP3    H235944   4.147   1.834   8.240 -1.1118 -0.2081 -0.2958
 3917TIP3   OH235945   1.095   0.988   9.935 -0.0961 -0.3082 -0.4271
 3917TIP3    H135946   1.047   1.068   9.955 -0.7709 -0.6312 -0.7323
 3917TIP3    H235947   1.120   0.953  10.021  0.3697  0.3260 -0.3023
 3918TIP3   OH235948   5.998   5.876   0.052  0.1780 -0.3833  0.1607
 3918TIP3    H135949   6.022   5.784   0.040  1.3366 -0.0819  0.0049
 3918TIP3    H235950   6.059   5.924  -0.004 -2.7188  0.3321 -2.5825
 3919TIP3   OH235951   5.036   4.228   2.170  0.4183  0.6355  0.1246
 3919TIP3    H135952   4.952   4.209   2.213 -0.2408 -0.9041 -1.7186
 3919TIP3    H235953   5.012   4.277   2.091  1.1310 -0.5828 -0.8901
 3920TIP3   OH235954   1.481   0.118   7.990  0.4434  0.1330  0.0427
 3920TIP3    H135955   1.389   0.129   8.012  0.3512 -1.5807  0.6113
 3920TIP3    H235956   1.514   0.208   7.979 -1.4945  0.7540 -1.1146
 3921TIP3   OH235957   4.937   3.163   9.755  0.1673 -0.3812 -0.3784
 3921TIP3    H135958   5.027   3.141   9.729  0.2452  1.6067 -2.0349
 3921TIP3    H235959   4.946   3.248   9.800 -0.9065  0.0408 -0.9384
 3922TIP3   OH235960   4.545   0.472   7.925 -0.8425  0.8454  0.4464
 3922TIP3    H135961   4.471   0.414   7.907  0.3830 -0.0595 -2.1300
 3922TIP3    H235962   4.557   0.522   7.845  2.9128 -0.9539 -0.3117
 3923TIP3   OH235963   6.140   4.990   0.781  0.0785  0.2743 -0.2695
 3923TIP3    H135964   6.143   5.085   0.792  1.9124  0.3697 -1.2119
 3923TIP3    H235965   6.075   4.976   0.712 -0.5365  0.7984  0.1904
 3924TIP3   OH235966   6.785   4.020   0.539  0.1730 -0.8124 -0.0400
 3924TIP3    H135967   6.705   4.070   0.555 -0.0013 -0.9810 -0.3741
 3924TIP3    H235968   6.769   3.936   0.582  0.7452 -0.3402  1.1245
 3925TIP3   OH235969   1.950   6.791   7.098  0.5399  0.5459  0.1417
 3925TIP3    H135970   1.934   6.775   7.191  0.9064 -2.1187 -0.1634
 3925TIP3    H235971   2.044   6.776   7.087  0.5385  1.0540 -0.6479
 3926TIP3   OH235972   3.009   6.793   8.029 -0.4781  0.2664 -0.5133
 3926TIP3    H135973   3.012   6.874   8.079 -2.2158  0.6876 -1.0123
 3926TIP3    H235974   2.968   6.818   7.946 -1.7515 -1.2627 -0.3820
 3927TIP3   OH235975   5.537   5.338   8.931 -0.1728 -0.0463 -0.0961
 3927TIP3    H135976   5.570   5.383   9.009 -0.9884  0.2071  0.1112
 3927TIP3    H235977   5.597   5.365   8.862  1.2200 -1.1533  0.6392
 3928TIP3   OH235978   0.638   4.411   0.991  0.2138 -0.2505 -0.5874
 3928TIP3    H135979   0.612   4.324   1.023 -1.2109  0.3811  0.0805
 3928TIP3    H235980   0.699   4.393   0.920  0.1281 -1.7988 -0.3057
 3929TIP3   OH235981   4.627   6.160   8.389 -0.1559  0.2447  0.4464
 3929TIP3    H135982   4.560   6.228   8.387  0.2896  0.7251  1.2643
 3929TIP3    H235983   4.625   6.120   8.302 -2.4731 -0.7188  0.8837
 3930TIP3   OH235984   5.193   5.987   1.068 -0.3001  0.3372 -0.4832
 3930TIP3    H135985   5.236   6.072   1.066  0.8488 -0.2178 -0.2117
 3930TIP3    H235986   5.099   6.008   1.072 -0.0507  1.5752 -0.6291
 3931TIP3   OH235987   7.001   5.342   0.037 -0.5728  0.2686  1.1876
 3931TIP3    H135988   6.957   5.367   0.118 -1.4910 -1.5698  1.3173
 3931TIP3    H235989   6.976   5.409  -0.027 -0.9116  1.0159  2.0871
 3932TIP3   OH235990   0.819   1.484   8.961  0.5082  0.5837  0.3259
 3932TIP3    H135991   0.841   1.573   8.933 -0.6137  0.5921 -0.6298
 3932TIP3    H235992   0.726   1.475   8.940  0.0063 -0.0234  2.5794
 3933TIP3   OH235993   1.358   1.548   2.814  0.8800 -0.0220 -0.1859
 3933TIP3    H135994   1.273   1.589   2.804  0.3700 -0.7936  0.8948
 3933TIP3    H235995   1.349   1.463   2.770  1.7686  0.7239 -1.9436
 3934TIP3   OH235996   0.561   6.267   0.062 -0.3586 -0.0388  0.5345
 3934TIP3    H135997   0.548   6.182   0.020 -0.6867  0.8711 -1.2685
 3934TIP3    H235998   0.486   6.276   0.121 -2.0821  0.3151 -1.5823
 3935TIP3   OH235999   4.456   6.602   9.263  0.2705  0.4905  0.4600
 3935TIP3    H136000   4.456   6.661   9.188  0.0949  0.3251  0.3275
 3935TIP3    H236001   4.462   6.514   9.224 -0.5567  0.3626  0.6007
 3936TIP3   OH236002   3.929   1.884   1.684  0.1093 -0.2704  0.3629
 3936TIP3    H136003   3.987   1.936   1.740  0.4708  0.2452 -0.4727
 3936TIP3    H236004   3.876   1.949   1.638  1.5468 -0.5220 -1.7779
 3937TIP3   OH236005   7.119   5.352   2.267 -0.4626 -0.0051  0.4661
 3937TIP3    H136006   7.188   5.411   2.297 -0.2631  0.4910 -0.8627
 3937TIP3    H236007   7.164   5.269   2.251 -0.0537  0.4319 -0.7893
 3938TIP3   OH236008   3.273   6.042   1.039 -0.5614  0.0017 -0.5125
 3938TIP3    H136009   3.231   6.082   0.963  0.8098  0.5329 -1.0251
 3938TIP3    H236010   3.337   6.106   1.068 -1.1956 -0.1162  1.2424
 3939TIP3   OH236011   4.479   0.920   9.561  0.0018 -0.3718 -0.1662
 3939TIP3    H136012   4.443   0.961   9.640  1.2799  0.2304  0.1294
 3939TIP3    H236013   4.562   0.883   9.590  0.2528 -0.5648 -1.1207
 3940TIP3   OH236014   1.337   0.482   2.757 -0.5812  0.1577 -0.7706
 3940TIP3    H136015   1.254   0.495   2.803  0.1940  0.2800  0.6654
 3940TIP3    H236016   1.362   0.392   2.779 -0.8185 -0.2313 -2.0383
 3941TIP3   OH236017   5.770   4.857   1.396  0.3087  0.3043 -0.2340
 3941TIP3    H136018   5.755   4.814   1.312  2.4931  0.3990 -0.7294
 3941TIP3    H236019   5.825   4.933   1.375  1.6743 -0.1875  1.3416
 3942TIP3   OH236020   0.203   5.888   7.225 -1.3060 -0.0767  0.1095
 3942TIP3    H136021   0.153   5.902   7.144  1.6831 -1.4188 -2.2101
 3942TIP3    H236022   0.224   5.794   7.223 -0.5220  0.0239  2.0624
 3943TIP3   OH236023   1.182   0.871   8.183 -0.1361  0.3877  0.3078
 3943TIP3    H136024   1.171   0.957   8.143  0.5723  0.8422  1.0621
 3943TIP3    H236025   1.136   0.811   8.124  0.3639  1.1159 -0.8495
 3944TIP3   OH236026   3.083   1.372   1.740 -0.0763  0.0938 -0.1435
 3944TIP3    H136027   3.012   1.311   1.761 -2.4555  2.6268 -0.1268
 3944TIP3    H236028   3.135   1.377   1.820 -0.4888 -1.0470  0.2156
 3945TIP3   OH236029   1.584   1.632   0.734 -0.0399 -0.1216  0.1202
 3945TIP3    H136030   1.576   1.623   0.829  1.5080 -0.1107  0.2685
 3945TIP3    H236031   1.498   1.665   0.706 -0.2380  0.7173  1.6078
 3946TIP3   OH236032   4.410   6.591   7.910  0.1722 -0.3115  0.8714
 3946TIP3    H136033   4.418   6.685   7.924  1.2205 -0.5554  2.0932
 3946TIP3    H236034   4.323   6.569   7.942 -0.6019  0.4131 -0.6251
 3947TIP3   OH236035   1.614   2.076   2.215 -0.3115  0.2171 -0.1189
 3947TIP3    H136036   1.566   2.040   2.140 -1.8699 -0.0376  0.9570
 3947TIP3    H236037   1.558   2.057   2.290  1.2067  0.4840  1.1209
 3948TIP3   OH236038   2.182   5.033   2.374 -0.3680 -0.7122 -0.1048
 3948TIP3    H136039   2.205   5.115   2.329  0.5572 -1.1528 -0.4554
 3948TIP3    H236040   2.162   4.972   2.303  0.9494 -1.3683  0.0752
 3949TIP3   OH236041   5.390   6.262   8.795 -0.0987  0.2186 -0.1733
 3949TIP3    H136042   5.327   6.289   8.728 -1.8043 -1.6382  0.5504
 3949TIP3    H236043   5.465   6.228   8.747  0.3556  2.3564 -1.0644
 3950TIP3   OH236044   4.869   3.937   7.181 -0.7460  0.0928  0.1962
 3950TIP3    H136045   4.889   3.962   7.272  0.7001 -0.2298 -0.0084
 3950TIP3    H236046   4.857   4.020   7.135  1.2815  0.4001  0.1133
 3951TIP3   OH236047   4.568   0.186   8.704  0.0111  0.4209 -0.3394
 3951TIP3    H136048   4.491   0.166   8.651 -1.7164  0.8198  1.8789
 3951TIP3    H236049   4.618   0.105   8.706 -2.0620 -0.9357  0.8139
 3952TIP3   OH236050   0.019   5.915   0.084 -0.3722 -1.0010  0.2630
 3952TIP3    H136051   0.033   5.894   0.177 -0.4986 -2.6244 -0.0496
 3952TIP3    H236052   0.045   5.835   0.038 -1.4865 -0.6572 -1.0136
 3953TIP3   OH236053   4.608   2.959   2.039  0.0746 -0.1280  0.2471
 3953TIP3    H136054   4.676   3.025   2.056  0.0638 -0.4648  1.7472
 3953TIP3    H236055   4.529   2.994   2.081 -0.2087 -0.5754  0.0895
 3954TIP3   OH236056   4.057   4.090   0.500  0.2160  0.2296  0.1427
 3954TIP3    H136057   4.049   4.110   0.407 -0.6409  0.5375  0.2801
 3954TIP3    H236058   4.032   4.170   0.545  0.1943 -0.0513  0.6456
 3955TIP3   OH236059   5.063   1.196   2.306  0.1032 -0.4338 -0.3285
 3955TIP3    H136060   5.023   1.109   2.305 -1.9630  0.4256 -2.4418
 3955TIP3    H236061   5.073   1.217   2.399 -0.7147 -2.3502  0.2271
 3956TIP3   OH236062   6.854   7.090   7.808  0.0138 -0.0125  0.2003
 3956TIP3    H136063   6.918   7.161   7.801  0.8588 -0.8984 -1.8391
 3956TIP3    H236064   6.770   7.131   7.789  0.4498  0.5300 -0.6297
 3957TIP3   OH236065   6.788   1.663   2.498 -0.1905  0.1788  0.2444
 3957TIP3    H136066   6.878   1.685   2.524  0.7613 -1.0463 -1.7659
 3957TIP3    H236067   6.759   1.737   2.444 -0.0828  0.2089  0.2282
 3958TIP3   OH236068   6.397   6.198   8.719  0.1524  0.1683 -0.1737
 3958TIP3    H136069   6.407   6.115   8.674 -0.7444 -1.0674  1.7711
 3958TIP3    H236070   6.307   6.198   8.751  0.3396  1.5701  0.4641
 3959TIP3   OH236071   6.771   1.094   2.824  0.5233  0.2236  0.4204
 3959TIP3    H136072   6.857   1.053   2.815  1.0854  1.3414  0.4942
 3959TIP3    H236073   6.789   1.188   2.825 -0.8515  0.5746 -1.4039
 3960TIP3   OH236074   6.125   3.810   7.201  0.3114 -0.2045 -0.2441
 3960TIP3    H136075   6.130   3.905   7.216  1.6649 -0.2684 -0.1127
 3960TIP3    H236076   6.096   3.801   7.110 -2.8691  0.2576  0.6151
 3961TIP3   OH236077   1.265   7.023   0.190 -0.2493  0.2736 -0.1507
 3961TIP3    H136078   1.297   7.065   0.110 -0.6563  1.4010  0.2728
 3961TIP3    H236079   1.190   6.971   0.160  0.3051 -0.2442 -0.6849
 3962TIP3   OH236080   1.997   1.218   9.689  0.1029  0.0438 -0.1490
 3962TIP3    H136081   2.083   1.254   9.668 -0.2641  1.6197  0.8087
 3962TIP3    H236082   2.006   1.124   9.679  2.5186 -0.0253  1.7932
 3963TIP3   OH236083   6.652   5.520   8.878 -0.4423 -0.0565 -0.3388
 3963TIP3    H136084   6.610   5.456   8.935  1.9741 -1.7229 -0.2336
 3963TIP3    H236085   6.684   5.588   8.937  0.0167 -0.5693  0.0126
 3964TIP3   OH236086   3.267   4.129   8.994  0.0009 -0.0873 -0.3251
 3964TIP3    H136087   3.331   4.064   8.966 -0.6492 -1.4639  1.2232
 3964TIP3    H236088   3.203   4.131   8.922 -0.2944 -1.6556 -0.1603
 3965TIP3   OH236089   4.703   0.004   7.788  0.4181 -0.3050 -0.2406
 3965TIP3    H136090   4.734   0.036   7.873  2.2563 -0.2135 -0.9031
 3965TIP3    H236091   4.719  -0.091   7.791 -1.0001 -0.5577  0.0870
 3966TIP3   OH236092   2.118   5.062   9.869  0.1467 -0.0382 -0.4681
 3966TIP3    H136093   2.029   5.095   9.859 -0.6490 -0.6809  3.1108
 3966TIP3    H236094   2.169   5.137   9.898  0.3390 -0.0801 -0.6975
 3967TIP3   OH236095   3.093   4.068   7.708  0.4702 -0.1070 -0.2420
 3967TIP3    H136096   3.046   4.012   7.770 -0.6051 -0.7182 -1.5697
 3967TIP3    H236097   3.168   4.100   7.758 -1.0991  0.5838  1.8276
 3968TIP3   OH236098   0.219   6.544   7.603 -0.2250 -0.4203 -0.0419
 3968TIP3    H136099   0.124   6.543   7.597 -0.1785 -1.8249 -1.3303
 3968TIP3    H236100   0.249   6.564   7.514  0.6631 -0.8510  0.1401
 3969TIP3   OH236101   5.686   0.489   8.265  0.2536  0.1161  0.2672
 3969TIP3    H136102   5.695   0.475   8.359  1.4011 -0.5674  0.0677
 3969TIP3    H236103   5.725   0.576   8.250  1.0893 -0.2448  0.2803
 3970TIP3   OH236104   4.786   3.407   1.072 -0.3245  0.0662  0.2407
 3970TIP3    H136105   4.750   3.488   1.038 -0.4870  1.0539  2.5525
 3970TIP3    H236106   4.879   3.425   1.084  0.2143 -1.0587 -1.7470
 3971TIP3   OH236107   4.680   0.382   9.153 -0.1646  0.2469  0.2062
 3971TIP3    H136108   4.633   0.361   9.072 -0.9546  2.3144  0.0754
 3971TIP3    H236109   4.770   0.353   9.136 -0.1640  1.1727 -1.6614
 3972TIP3   OH236110   5.992   0.540   2.751 -0.2141 -0.5023 -0.2568
 3972TIP3    H136111   5.924   0.474   2.764 -0.0293 -0.2544  2.5185
 3972TIP3    H236112   5.951   0.622   2.776  0.7096 -0.1766  0.2469
 3973TIP3   OH236113   7.089   1.047   2.336 -0.6199  0.5858  0.2477
 3973TIP3    H136114   7.106   1.001   2.418  0.1748  1.0099  0.3316
 3973TIP3    H236115   6.994   1.054   2.332 -0.6794  0.3577  1.0220
 3974TIP3   OH236116   3.321   1.301   1.544 -0.1611  0.3881 -0.7817
 3974TIP3    H136117   3.413   1.314   1.568 -0.5512 -1.3484  2.0813
 3974TIP3    H236118   3.276   1.376   1.584 -0.3450 -0.5649  0.8986
 3975TIP3   OH236119   3.540   1.823   7.946  0.4962 -0.4793  0.5329
 3975TIP3    H136120   3.502   1.814   7.859 -0.2259  0.2163  0.7651
 3975TIP3    H236121   3.546   1.734   7.979  0.1670 -0.6916  0.0292
 3976TIP3   OH236122   3.439   4.585   7.172  0.0587  0.3831  0.1646
 3976TIP3    H136123   3.386   4.609   7.096  0.4040 -1.8546 -0.8734
 3976TIP3    H236124   3.440   4.489   7.171  3.2342  0.2974  0.7445
 3977TIP3   OH236125   4.731   2.980   1.544 -0.4707  0.7765  0.4025
 3977TIP3    H136126   4.814   3.026   1.528  0.3074 -0.8802 -0.6076
 3977TIP3    H236127   4.750   2.920   1.616 -0.4872 -0.2548 -0.4226
 3978TIP3   OH236128   6.644   3.237   0.189 -0.4928  0.0115  0.2403
 3978TIP3    H136129   6.668   3.327   0.211  0.4208 -0.4202  1.1213
 3978TIP3    H236130   6.599   3.205   0.267 -1.2023 -0.1714 -0.2353
 3979TIP3   OH236131   3.849   2.889   8.331 -0.0723 -0.7295 -0.0773
 3979TIP3    H136132   3.757   2.866   8.348 -0.4822  1.3865  0.8539
 3979TIP3    H236133   3.847   2.937   8.248 -0.3049  1.7993  1.3028
 3980TIP3   OH236134   0.040   3.342   9.475  0.4052 -0.1795 -0.0329
 3980TIP3    H136135  -0.005   3.287   9.411  0.7640  0.5346 -0.9266
 3980TIP3    H236136  -0.029   3.391   9.518  0.1805 -0.4715 -0.0615
 3981TIP3   OH236137   4.896   0.134   8.775  0.0032 -0.0390  0.2601
 3981TIP3    H136138   4.864   0.098   8.693  1.1129 -1.6489  0.4870
 3981TIP3    H236139   4.839   0.098   8.842 -2.2573  2.9130  0.1607
 3982TIP3   OH236140   2.148   6.195   1.295 -0.1130  0.1048 -0.5281
 3982TIP3    H136141   2.237   6.160   1.303 -0.2833 -0.3050 -0.3769
 3982TIP3    H236142   2.102   6.132   1.240 -0.7370 -0.5439  0.6747
 3983TIP3   OH236143   4.956   5.644   0.655  0.1416  0.1610 -0.0506
 3983TIP3    H136144   5.046   5.672   0.636  0.1858 -0.6418 -1.1405
 3983TIP3    H236145   4.926   5.703   0.724  1.6600  0.1602  0.6513
 3984TIP3   OH236146   4.067   6.536   7.042  0.1231  0.0555  0.0829
 3984TIP3    H136147   4.028   6.450   7.057 -1.7888  0.5377 -1.5759
 3984TIP3    H236148   4.150   6.518   6.999  0.9496 -0.9765  1.9974
 3985TIP3   OH236149   0.850   0.721   8.236 -0.2113 -1.0660 -0.5016
 3985TIP3    H136150   0.794   0.795   8.213  0.3957 -1.1299 -2.3281
 3985TIP3    H236151   0.925   0.761   8.281 -1.4903 -0.9549  1.6785
 3986TIP3   OH236152   4.902   2.189   9.676  0.1612 -0.0187  0.2854
 3986TIP3    H136153   4.960   2.158   9.605  3.5717 -1.0457  3.1922
 3986TIP3    H236154   4.899   2.284   9.665  0.0065 -0.2041 -1.5814
 3987TIP3   OH236155   3.251   7.110   1.735 -0.9476  0.4747 -0.0364
 3987TIP3    H136156   3.186   7.088   1.802  0.8666  0.2110  1.7278
 3987TIP3    H236157   3.244   7.040   1.670 -1.7733 -0.0514  0.6137
 3988TIP3   OH236158   4.300   5.410   8.647 -0.0975  0.0672  0.1960
 3988TIP3    H136159   4.322   5.320   8.625  0.0694 -0.8727  3.6100
 3988TIP3    H236160   4.380   5.460   8.630  0.1213 -0.5834 -0.7549
 3989TIP3   OH236161   3.018   6.516   7.616  0.3233 -0.4836 -0.6976
 3989TIP3    H136162   3.027   6.467   7.698  1.6900 -0.8518 -1.0531
 3989TIP3    H236163   2.926   6.542   7.614  0.7447  1.8018  2.2710
 3990TIP3   OH236164   1.351   0.285   7.670  0.4569  0.0613 -0.2235
 3990TIP3    H136165   1.410   0.244   7.607  0.1036 -0.9033  0.0567
 3990TIP3    H236166   1.398   0.362   7.701  1.0559 -0.0240 -0.9035
 3991TIP3   OH236167   1.664   5.979   7.978 -0.0241  0.0091  0.5749
 3991TIP3    H136168   1.688   5.897   8.021  3.0473 -0.5566 -1.8046
 3991TIP3    H236169   1.741   6.036   7.991 -0.8354  1.3915 -0.3938
 3992TIP3   OH236170   6.758   7.198   0.580 -0.5417  0.1216 -0.2969
 3992TIP3    H136171   6.682   7.256   0.583 -1.8524 -1.4319 -1.6687
 3992TIP3    H236172   6.751   7.146   0.660 -0.3024  0.6863  0.1014
 3993TIP3   OH236173   1.256   1.169   1.048 -0.8186 -0.5843  0.1573
 3993TIP3    H136174   1.178   1.146   0.997 -0.4960 -0.5595 -0.3520
 3993TIP3    H236175   1.239   1.258   1.079  0.5153  0.9146 -2.9894
 3994TIP3   OH236176   0.174   5.086   7.409  0.1801  0.6311  0.2774
 3994TIP3    H136177   0.248   5.050   7.459  0.7420  0.0563 -0.9416
 3994TIP3    H236178   0.211   5.108   7.324 -1.3671 -1.0850 -0.9106
 3995TIP3   OH236179   0.449   5.463   2.692  0.1171 -0.5674 -0.1737
 3995TIP3    H136180   0.367   5.415   2.704 -0.4391  0.3140 -0.3724
 3995TIP3    H236181   0.473   5.492   2.779  0.5807 -1.4006 -0.0183
 3996TIP3   OH236182   1.543   1.208   8.833 -0.1668  0.4601  0.1208
 3996TIP3    H136183   1.508   1.128   8.872  1.8040  1.1117  3.6329
 3996TIP3    H236184   1.496   1.279   8.877  2.8160  1.2563  2.3150
 3997TIP3   OH236185   6.516   1.091   9.332  0.1539 -0.2940 -0.3451
 3997TIP3    H136186   6.490   1.002   9.358 -0.7378 -0.0219 -0.2960
 3997TIP3    H236187   6.459   1.112   9.259  1.4713 -0.3785 -1.4420
 3998TIP3   OH236188   6.996   0.438   2.633  0.1156 -0.1714  0.7615
 3998TIP3    H136189   6.900   0.442   2.630  0.1424  0.5505  0.5844
 3998TIP3    H236190   7.024   0.524   2.603  0.8399 -0.6077  0.1697
 3999TIP3   OH236191   2.153   4.683   0.240 -0.0655  0.0512 -0.2029
 3999TIP3    H136192   2.142   4.716   0.329  2.0857 -0.1827  0.2214
 3999TIP3    H236193   2.202   4.601   0.251  0.0298 -0.1018 -1.5764
 4000TIP3   OH236194   4.059   5.571   1.128 -0.1050 -0.6220  0.1771
 4000TIP3    H136195   4.075   5.578   1.034 -0.1765  2.3092  0.2888
 4000TIP3    H236196   3.968   5.546   1.135 -0.7117  1.1755 -0.6119
 4001TIP3   OH236197   6.099   1.137   9.446  0.6212 -0.3335  0.5210
 4001TIP3    H136198   6.073   1.154   9.356  2.5690 -1.1949 -0.2475
 4001TIP3    H236199   6.038   1.069   9.476  0.7702 -0.9585 -0.5747
 4002TIP3   OH236200   2.490   5.195   6.883 -0.1983  0.4397  0.3096
 4002TIP3    H136201   2.440   5.173   6.804  0.4006  1.7593 -0.4810
 4002TIP3    H236202   2.573   5.228   6.849 -0.0075  1.2276  1.5002
 4003TIP3   OH236203   1.636   3.372   9.311 -0.4242 -0.1272 -0.4881
 4003TIP3    H136204   1.590   3.342   9.389 -2.1944 -1.8506 -2.0865
 4003TIP3    H236205   1.597   3.457   9.291  2.9780  2.5483  2.7210
 4004TIP3   OH236206   4.695   1.956   1.305 -0.1153  0.0785 -0.8590
 4004TIP3    H136207   4.636   1.918   1.369 -0.0871  0.3932 -0.6468
 4004TIP3    H236208   4.687   1.899   1.228 -0.9779  0.3398 -0.9679
 4005TIP3   OH236209   3.647   2.806   7.876  0.0787 -0.5487 -0.0856
 4005TIP3    H136210   3.654   2.793   7.782 -0.1723 -0.9320 -0.0529
 4005TIP3    H236211   3.613   2.723   7.910 -0.4393 -0.1996  0.2656
 4006TIP3   OH236212   6.317   6.464   2.126 -0.4877  0.9491 -0.1982
 4006TIP3    H136213   6.314   6.508   2.211 -1.3049  2.1467 -0.8152
 4006TIP3    H236214   6.234   6.419   2.118  0.2197 -0.4886  0.2895
 4007TIP3   OH236215   0.967   5.915   0.475  0.0993  0.4934 -0.0913
 4007TIP3    H136216   0.906   5.924   0.548  0.6828  0.0882  0.4536
 4007TIP3    H236217   1.042   5.868   0.512  1.0082  1.5019 -0.5847
 4008TIP3   OH236218   4.908   0.848   7.835  0.1456 -0.6365 -0.0509
 4008TIP3    H136219   4.992   0.886   7.810  0.3459 -1.1642 -0.1864
 4008TIP3    H236220   4.873   0.811   7.754  0.5010 -1.7922  0.3101
 4009TIP3   OH236221   2.298   2.332   8.094 -0.2803  0.3563 -0.5023
 4009TIP3    H136222   2.203   2.317   8.088 -0.3200  0.3446  0.1123
 4009TIP3    H236223   2.306   2.428   8.100 -0.4329  0.2738  2.0616
 4010TIP3   OH236224   5.005   2.003   1.178 -0.4081  0.5601  0.3381
 4010TIP3    H136225   4.913   2.028   1.170 -0.1952  0.9345 -1.6068
 4010TIP3    H236226   5.030   2.028   1.267 -2.5112 -0.7608  1.3574
 4011TIP3   OH236227   1.200   4.344   2.083  0.4017  0.0520 -0.2865
 4011TIP3    H136228   1.278   4.298   2.114 -0.8197 -0.0529  2.9279
 4011TIP3    H236229   1.235   4.422   2.039  2.3300 -0.8027 -0.3871
 4012TIP3   OH236230   6.566   4.856   2.019 -0.0156 -0.0712 -0.2141
 4012TIP3    H136231   6.628   4.893   1.956  1.3050 -2.0206 -0.1408
 4012TIP3    H236232   6.584   4.903   2.100  0.4405  0.2822 -0.5157
 4013TIP3   OH236233   5.218   3.206   8.219 -0.5519 -0.4649 -0.1939
 4013TIP3    H136234   5.274   3.211   8.296 -0.5756  1.7292 -0.2655
 4013TIP3    H236235   5.130   3.194   8.254 -0.2609 -2.5581 -0.0407
 4014TIP3   OH236236   2.324   4.555   0.988  0.0234 -0.3245 -0.2966
 4014TIP3    H136237   2.341   4.646   1.012  1.5208 -0.3219 -1.2657
 4014TIP3    H236238   2.321   4.555   0.892  2.6680 -1.6669 -0.4751
 4015TIP3   OH236239   0.301   4.395   9.507  0.1607  0.3229 -0.0343
 4015TIP3    H136240   0.233   4.358   9.451 -0.0963  0.7126  0.0145
 4015TIP3    H236241   0.254   4.450   9.570  0.5602  1.1562 -0.4332
 4016TIP3   OH236242   1.068   6.636   8.822 -0.0099 -0.0788  0.1655
 4016TIP3    H136243   1.110   6.714   8.858  1.3602 -0.1486 -1.1507
 4016TIP3    H236244   1.027   6.666   8.741 -2.3731 -0.0759  1.2918
 4017TIP3   OH236245   0.623   0.482   8.015  0.2200  0.4167 -0.1541
 4017TIP3    H136246   0.645   0.427   7.940  0.6983 -0.2812  0.4783
 4017TIP3    H236247   0.648   0.571   7.988  0.9986  0.0778 -0.5798
 4018TIP3   OH236248   5.818   4.291   9.537  0.4514  0.5741 -0.3301
 4018TIP3    H136249   5.779   4.274   9.623  1.5339  1.2643  0.3205
 4018TIP3    H236250   5.883   4.221   9.526  0.0706  0.2814 -0.7527
 4019TIP3   OH236251   5.524   6.394   7.315 -0.1257 -0.1980  0.1986
 4019TIP3    H136252   5.523   6.398   7.219  1.7297 -0.8391  0.1183
 4019TIP3    H236253   5.461   6.325   7.336 -1.7238  1.0012 -0.4334
 4020TIP3   OH236254   4.781   0.662   7.615 -0.3673  0.2556  0.0387
 4020TIP3    H136255   4.784   0.582   7.562  0.6646 -0.1496  0.6899
 4020TIP3    H236256   4.723   0.641   7.687  1.0361 -0.4419  1.0144
 4021TIP3   OH236257   3.709   3.062   7.966  0.2911 -0.1444 -0.3552
 4021TIP3    H136258   3.668   2.978   7.946 -0.3659 -0.1443  0.8812
 4021TIP3    H236259   3.792   3.039   8.008 -0.9458 -0.2833  2.2064
 4022TIP3   OH236260   6.216   4.733   0.703  0.0476  0.3457 -0.1149
 4022TIP3    H136261   6.272   4.717   0.627  2.3510  1.5083  1.2344
 4022TIP3    H236262   6.217   4.829   0.714 -2.5358  0.4606 -0.2096
 4023TIP3   OH236263   6.571   3.191   8.507  0.2194  0.4189  0.0347
 4023TIP3    H136264   6.637   3.204   8.438  1.4521 -0.2194  1.0479
 4023TIP3    H236265   6.618   3.145   8.576 -0.6357  2.2225  1.8965
 4024TIP3   OH236266   2.805   7.030   9.223 -0.3433 -0.5651  0.6625
 4024TIP3    H136267   2.798   6.956   9.284  0.7840 -0.9424  0.3418
 4024TIP3    H236268   2.829   6.991   9.139  2.7608  0.3033  1.0192
 4025TIP3   OH236269   1.348   5.949   2.794  0.0905 -0.5545  0.0478
 4025TIP3    H136270   1.298   6.008   2.737 -1.9736 -1.1485  1.1153
 4025TIP3    H236271   1.323   5.861   2.766  0.4087 -0.8654  0.7147
 4026TIP3   OH236272   1.525   7.037   8.773  0.2493  0.0408  0.0268
 4026TIP3    H136273   1.450   6.991   8.733  0.2035  0.3298 -0.2257
 4026TIP3    H236274   1.502   7.045   8.865  0.1281 -0.1872  0.0177
 4027TIP3   OH236275   5.989   0.450   2.281 -0.0182 -0.2002  0.4265
 4027TIP3    H136276   6.045   0.422   2.210  0.1664  0.7223  0.1971
 4027TIP3    H236277   5.973   0.543   2.264 -2.6802 -0.6907 -0.2636
 4028TIP3   OH236278   6.481   2.553   9.384  0.1077  0.1239  0.3996
 4028TIP3    H136279   6.441   2.640   9.386 -0.1715  0.0090 -0.1937
 4028TIP3    H236280   6.470   2.520   9.473  2.2476  1.6162  1.3123
 4029TIP3   OH236281   1.151   6.444   1.419 -0.1659 -0.3327 -0.2634
 4029TIP3    H136282   1.211   6.430   1.347 -0.7527  1.2446 -1.1168
 4029TIP3    H236283   1.097   6.519   1.392  0.2139  0.9494  2.1871
 4030TIP3   OH236284   0.337   2.046   7.136  0.0490  0.1495  0.2823
 4030TIP3    H136285   0.253   2.022   7.176  0.0298  1.0163  0.8086
 4030TIP3    H236286   0.402   1.993   7.183  0.1340  1.8018  2.2109
 4031TIP3   OH236287   1.541   3.901   8.445  0.4751 -0.0177 -0.3978
 4031TIP3    H136288   1.526   3.838   8.375 -1.7029  0.5602 -0.5301
 4031TIP3    H236289   1.586   3.851   8.513  0.9979 -1.0517 -1.4611
 4032TIP3   OH236290   2.202   6.790   9.477 -0.4820  0.2385  0.1782
 4032TIP3    H136291   2.122   6.832   9.509  0.7786  1.9469  1.2845
 4032TIP3    H236292   2.189   6.783   9.383 -3.5390 -3.2292  0.6604
 4033TIP3   OH236293   6.544   3.896   7.608 -0.0046 -0.5012 -0.1005
 4033TIP3    H136294   6.586   3.843   7.676  0.9011  1.0753  0.6310
 4033TIP3    H236295   6.605   3.892   7.534  0.3982  0.0187  0.1910
 4034TIP3   OH236296   0.882   2.355   7.615 -0.0552  0.6471  0.0318
 4034TIP3    H136297   0.838   2.439   7.617 -0.6993  0.4896 -2.9176
 4034TIP3    H236298   0.813   2.291   7.631 -0.2847  0.5611 -1.2009
 4035TIP3   OH236299   6.072   5.877   1.795  0.4843  0.3345 -0.1085
 4035TIP3    H136300   5.981   5.851   1.777  0.6269 -0.9485  0.8550
 4035TIP3    H236301   6.064   5.957   1.846 -0.1551 -0.2135  0.6736
 4036TIP3   OH236302   7.269   6.008   8.210  0.2388  0.0238 -0.0498
 4036TIP3    H136303   7.274   6.054   8.294 -1.1223  1.7955 -0.8746
 4036TIP3    H236304   7.297   5.919   8.230  2.4301  1.0141  1.7555
 4037TIP3   OH236305   0.212   5.454   8.025  1.1692  0.2126  0.6767
 4037TIP3    H136306   0.290   5.485   8.070  1.3828  0.1717  0.3446
 4037TIP3    H236307   0.176   5.532   7.983  0.1465  0.5411  2.0940
 4038TIP3   OH236308   5.977   6.321   8.493  0.0975 -0.5408 -0.0711
 4038TIP3    H136309   5.902   6.301   8.437  0.2480  0.2251 -0.5549
 4038TIP3    H236310   5.944   6.384   8.557  0.5272  0.5244 -0.8529
 4039TIP3   OH236311   1.739   5.063   8.102  0.0097  0.0037 -0.0788
 4039TIP3    H136312   1.826   5.069   8.141  0.4292  1.3178 -1.1164
 4039TIP3    H236313   1.745   5.119   8.024 -1.9366  0.5633  0.1390
 4040TIP3   OH236314   6.248   4.066   7.829 -0.2356 -0.3732 -0.0492
 4040TIP3    H136315   6.297   4.045   7.908  0.6332  2.7062  0.3621
 4040TIP3    H236316   6.186   4.134   7.857 -2.4526 -1.7964 -1.2825
 4041TIP3   OH236317   2.769   5.559   8.556  0.7400 -0.5696  0.7785
 4041TIP3    H136318   2.715   5.525   8.627 -0.3553  0.8472  0.6604
 4041TIP3    H236319   2.730   5.643   8.534  1.2191 -0.8578 -1.3428
 4042TIP3   OH236320   1.695   0.395   0.880 -0.0569 -0.6860 -0.4871
 4042TIP3    H136321   1.624   0.449   0.914  0.2813  0.4595 -1.5263
 4042TIP3    H236322   1.657   0.352   0.803 -0.0053 -1.0912 -0.2877
 4043TIP3   OH236323   4.562   5.915   9.212 -0.1013 -0.1440  0.0964
 4043TIP3    H136324   4.545   5.849   9.145  0.7706  0.5242 -0.8230
 4043TIP3    H236325   4.642   5.885   9.256 -1.1164 -1.0001  1.4131
 4044TIP3   OH236326   1.893   3.989   7.359 -0.4278  0.6419  0.3866
 4044TIP3    H136327   1.942   4.020   7.435 -1.0993  0.0783  1.0534
 4044TIP3    H236328   1.938   3.909   7.332  0.4788  1.4143 -0.5080
 4045TIP3   OH236329   3.297   3.373   2.127  0.0286  0.3514 -0.0264
 4045TIP3    H136330   3.218   3.321   2.139  0.5865  0.0203  2.9706
 4045TIP3    H236331   3.369   3.312   2.142  0.7599  1.3316  0.6121
 4046TIP3   OH236332   0.082   5.573   9.756  0.1831  0.8212  0.4096
 4046TIP3    H136333   0.123   5.494   9.790 -0.7713  1.3116  2.8624
 4046TIP3    H236334   0.079   5.560   9.661  2.0868 -1.0574  0.5548
 4047TIP3   OH236335   0.553   7.022   9.287  0.0975 -0.3580  0.5114
 4047TIP3    H136336   0.504   6.951   9.327  0.0144 -0.5177  0.1309
 4047TIP3    H236337   0.562   6.996   9.195 -0.2561  0.3006  0.2892
 4048TIP3   OH236338   0.556   7.229   7.820 -0.1467  0.3540 -0.3859
 4048TIP3    H136339   0.491   7.206   7.887  0.9113  0.9583  0.9150
 4048TIP3    H236340   0.638   7.235   7.869  0.6575  0.8578 -1.7553
 4049TIP3   OH236341   4.403   5.058   3.167  0.1678  0.3819 -0.0754
 4049TIP3    H136342   4.446   5.049   3.252 -0.2944  0.8046  0.2176
 4049TIP3    H236343   4.343   5.132   3.179 -0.7549 -0.2915 -0.4098
 4050TIP3   OH236344   0.946   3.211   0.427 -0.4819  0.3883 -0.4589
 4050TIP3    H136345   0.875   3.157   0.463  0.8686  0.8835  3.4703
 4050TIP3    H236346   1.025   3.158   0.442  0.4858  1.9686  0.2890
 4051TIP3   OH236347   7.195   3.788   2.761 -0.0735  0.3044 -0.1938
 4051TIP3    H136348   7.137   3.825   2.827 -1.3760  0.0752 -1.1709
 4051TIP3    H236349   7.153   3.706   2.735  1.6901 -0.8699  0.4500
 4052TIP3   OH236350   4.413   6.854   1.414 -0.3608 -0.5313 -0.8986
 4052TIP3    H136351   4.346   6.898   1.466 -0.8979 -1.0637 -1.1291
 4052TIP3    H236352   4.464   6.925   1.376 -2.0894 -0.0443 -2.4238
 4053TIP3   OH236353   4.536   1.506   8.736  0.0087 -0.2585  0.3127
 4053TIP3    H136354   4.541   1.436   8.670  0.0776  0.7218 -0.7544
 4053TIP3    H236355   4.474   1.473   8.801 -1.8896 -0.3340 -1.4188
 4054TIP3   OH236356   0.348   6.138   9.704 -0.0250  0.2519  0.0641
 4054TIP3    H136357   0.304   6.112   9.785 -0.0807 -0.3795 -0.1635
 4054TIP3    H236358   0.279   6.180   9.652  0.4345  2.4636  1.1139
 4055TIP3   OH236359   3.686   4.906   1.626  0.0539 -0.7281  1.1868
 4055TIP3    H136360   3.748   4.937   1.560 -1.0355 -2.2074 -0.6439
 4055TIP3    H236361   3.735   4.840   1.676  0.4416 -0.7236  0.8234
 4056TIP3   OH236362   0.509   4.926   2.805  0.3160 -0.4615 -0.7226
 4056TIP3    H136363   0.471   4.929   2.893  1.0188  0.3337 -0.4302
 4056TIP3    H236364   0.529   4.833   2.791 -1.3554 -0.8398 -0.7365
 4057TIP3   OH236365   3.291   5.241   0.024 -0.5469  0.0059  0.6225
 4057TIP3    H136366   3.361   5.251   0.089 -0.4616 -0.6030  0.6283
 4057TIP3    H236367   3.332   5.192  -0.047 -0.1236  2.1884 -0.7027
 4058TIP3   OH236368   0.223   1.374   2.341 -0.1373  0.0685  0.1004
 4058TIP3    H136369   0.259   1.316   2.409  0.3924  0.2649 -0.0044
 4058TIP3    H236370   0.300   1.419   2.306 -0.6120  1.4911  0.7905
 4059TIP3   OH236371   5.242   0.333   7.927  0.2100 -0.2217  0.5479
 4059TIP3    H136372   5.147   0.328   7.916  0.3580  0.1301 -1.0832
 4059TIP3    H236373   5.277   0.300   7.844  1.5278 -0.6830  1.2646
 4060TIP3   OH236374   1.023   1.024   9.680  0.1474  0.1023  0.1588
 4060TIP3    H136375   1.048   1.016   9.772 -0.5109  0.6032  0.3895
 4060TIP3    H236376   0.972   0.945   9.662 -1.0921  0.7632  0.6889
 4061TIP3   OH236377   1.058   3.372   2.617  0.2163 -0.1658  0.2198
 4061TIP3    H136378   1.010   3.443   2.659 -0.1621  1.5027 -2.7327
 4061TIP3    H236379   1.144   3.409   2.597  0.0536 -0.5194 -1.2717
 4062TIP3   OH236380   0.889   6.873   1.397 -0.3091 -0.0523  0.1567
 4062TIP3    H136381   0.980   6.850   1.416  0.2039 -1.4989 -3.3385
 4062TIP3    H236382   0.888   6.968   1.393  0.6939  0.0534  1.4806
 4063TIP3   OH236383   3.170   4.318   7.396 -0.0512  0.5973 -0.4313
 4063TIP3    H136384   3.119   4.244   7.362 -1.1226  0.7618  0.7467
 4063TIP3    H236385   3.255   4.311   7.352 -0.1779 -1.2601 -0.4646
 4064TIP3   OH236386   6.179   4.294   1.533 -0.0764 -0.7922 -0.3599
 4064TIP3    H136387   6.273   4.278   1.545 -0.0334 -0.0204  0.4012
 4064TIP3    H236388   6.163   4.271   1.442  1.3490  1.3191 -1.2230
 4065TIP3   OH236389   6.001   2.707   7.579  0.3750 -0.1468 -0.4631
 4065TIP3    H136390   6.005   2.769   7.507 -0.1419  0.8434  0.3338
 4065TIP3    H236391   6.052   2.748   7.649  3.0303 -2.1976 -1.0240
 4066TIP3   OH236392   5.993   0.929   9.625  0.3705  0.0799  0.3251
 4066TIP3    H136393   5.949   0.847   9.603 -1.6930  0.8567  1.2039
 4066TIP3    H236394   6.066   0.904   9.680 -0.5256 -1.1493  0.9993
 4067TIP3   OH236395   3.797   1.112   9.419 -0.1403 -0.5619  0.8102
 4067TIP3    H136396   3.850   1.099   9.340 -2.1787 -3.6519 -0.2253
 4067TIP3    H236397   3.709   1.127   9.386 -0.9730 -1.5258  2.4792
 4068TIP3   OH236398   5.616   4.836   0.228 -0.0499  0.8406  0.1074
 4068TIP3    H136399   5.539   4.863   0.177  0.5068  0.6824 -0.8367
 4068TIP3    H236400   5.676   4.799   0.163  0.4635  0.1460  0.9554
 4069TIP3   OH236401   5.823   4.996   2.653 -0.0064 -0.5994  0.0134
 4069TIP3    H136402   5.733   4.999   2.684 -0.0341  1.2334 -0.1447
 4069TIP3    H236403   5.871   5.056   2.710  1.3954 -2.3693  0.8150
 4070TIP3   OH236404   4.763   7.197   6.740 -0.1696 -0.3850  0.0046
 4070TIP3    H136405   4.714   7.153   6.809 -2.1940 -2.3774 -2.4935
 4070TIP3    H236406   4.764   7.289   6.766 -2.5434 -0.7485  1.7328
 4071TIP3   OH236407   4.218   6.432   1.704 -0.0973 -0.6702  0.4411
 4071TIP3    H136408   4.285   6.462   1.642 -0.6362  0.4949  0.3992
 4071TIP3    H236409   4.144   6.407   1.649  0.3953 -2.2890  0.4659
 4072TIP3   OH236410   3.898   1.476   0.262 -0.5213  0.3960  0.2046
 4072TIP3    H136411   3.812   1.461   0.300 -0.8894 -1.8096 -1.3377
 4072TIP3    H236412   3.880   1.525   0.181 -0.0939  1.6424  0.8259
 4073TIP3   OH236413   2.348   5.374   1.496 -0.3571  0.1188 -0.5533
 4073TIP3    H136414   2.334   5.426   1.417  0.0519 -0.5987 -1.1195
 4073TIP3    H236415   2.280   5.402   1.556 -0.3407  1.0651 -0.9640
 4074TIP3   OH236416   3.614   1.842   1.527 -0.0416 -0.0095  0.4212
 4074TIP3    H136417   3.676   1.861   1.457 -0.3511 -1.9808 -0.4544
 4074TIP3    H236418   3.610   1.746   1.529 -0.3787 -0.0013  2.8495
 4075TIP3   OH236419   6.900   4.887   0.694  0.0543  0.7449  0.0379
 4075TIP3    H136420   6.857   4.802   0.682 -0.2724  0.6800  1.4319
 4075TIP3    H236421   6.929   4.912   0.607 -0.2662 -0.5777 -0.4776
 4076TIP3   OH236422   4.570   1.198   7.617  0.1629  0.4618  0.8472
 4076TIP3    H136423   4.480   1.187   7.645 -0.2985 -0.3060 -0.8017
 4076TIP3    H236424   4.616   1.121   7.650  0.0836  0.5475  1.1581
 4077TIP3   OH236425   5.341   1.737   0.462  0.8123 -0.1477  0.2152
 4077TIP3    H136426   5.325   1.678   0.537  0.6965  1.1995  1.2830
 4077TIP3    H236427   5.437   1.737   0.453  1.1173  2.0333  2.3989
 4078TIP3   OH236428   0.629   1.212   7.302 -0.4868 -0.3392 -0.2691
 4078TIP3    H136429   0.652   1.278   7.237 -1.8566 -0.0430 -0.4710
 4078TIP3    H236430   0.627   1.259   7.385  0.5211 -0.5647 -0.0998
 4079TIP3   OH236431   7.164   5.362   8.867 -0.8450  0.1566 -0.2790
 4079TIP3    H136432   7.251   5.393   8.891 -0.9391  0.3940 -0.2383
 4079TIP3    H236433   7.177   5.308   8.790 -0.1739 -2.6821  1.6704
 4080TIP3   OH236434   3.768   5.521   8.703 -0.2887 -0.1543  0.5475
 4080TIP3    H136435   3.681   5.510   8.663 -0.1672  0.8020 -0.0184
 4080TIP3    H236436   3.823   5.456   8.659 -0.4176  0.1427 -0.0630
 4081TIP3   OH236437   0.978   0.291   2.349  0.2043 -1.1210  0.1246
 4081TIP3    H136438   0.898   0.313   2.302  1.1897  0.1044 -1.0783
 4081TIP3    H236439   1.006   0.208   2.311 -0.3606 -1.4294  0.3767
 4082TIP3   OH236440   0.214   5.834   8.559  0.3304 -0.3456 -0.5203
 4082TIP3    H136441   0.254   5.863   8.477  1.2921 -0.8970 -0.2706
 4082TIP3    H236442   0.196   5.741   8.546 -1.7535  0.0695 -0.9406
 4083TIP3   OH236443   4.964   3.301   9.113  0.2579  0.5407 -0.6198
 4083TIP3    H136444   4.958   3.370   9.178  1.1388  0.2404 -0.2043
 4083TIP3    H236445   5.037   3.327   9.057  0.9046 -0.2727 -0.1776
 4084TIP3   OH236446   6.003   3.922   1.455  0.3507 -0.2348 -0.3680
 4084TIP3    H136447   6.095   3.909   1.478  0.6109  1.8694  0.0039
 4084TIP3    H236448   6.005   3.957   1.366 -0.0704 -0.1079 -0.3318
 4085TIP3   OH236449   3.332   4.162   1.150 -0.0750 -0.0420  0.1205
 4085TIP3    H136450   3.313   4.077   1.189 -0.8993 -0.1974 -0.6043
 4085TIP3    H236451   3.334   4.146   1.056 -0.6808  0.8206 -0.0541
 4086TIP3   OH236452   6.806   3.290   2.533 -0.5755  0.0416  0.6144
 4086TIP3    H136453   6.772   3.367   2.487 -0.9316 -0.3689  0.1864
 4086TIP3    H236454   6.835   3.324   2.618  1.8763  1.1973 -0.5759
 4087TIP3   OH236455   3.289   0.464   0.196  0.0678 -0.4570 -0.2438
 4087TIP3    H136456   3.335   0.494   0.274 -0.8929 -0.2109  0.2436
 4087TIP3    H236457   3.204   0.433   0.228 -0.1016 -0.9335 -1.1139
 4088TIP3   OH236458   2.271   4.018   9.413  0.1737 -0.0791 -0.1991
 4088TIP3    H136459   2.250   4.107   9.383  0.5439  0.1164  0.1112
 4088TIP3    H236460   2.207   3.962   9.369 -0.5546  0.4243  0.1869
 4089TIP3   OH236461   0.290   1.872   7.362 -0.0247  0.2063  0.1411
 4089TIP3    H136462   0.203   1.910   7.373 -0.3967  0.1668 -2.1729
 4089TIP3    H236463   0.274   1.787   7.320  1.0785 -0.3115  0.7279
 4090TIP3   OH236464   4.615   3.520   9.285 -0.5233 -0.4750 -0.1786
 4090TIP3    H136465   4.638   3.437   9.243  1.4857  1.3604 -3.0506
 4090TIP3    H236466   4.656   3.516   9.371  1.1442 -1.7238 -0.9911
 4091TIP3   OH236467   5.343   6.619   9.068 -0.6133  0.3236 -1.0136
 4091TIP3    H136468   5.292   6.626   8.987 -1.0999 -0.3105 -0.7712
 4091TIP3    H236469   5.277   6.619   9.137 -0.2579 -0.0913 -0.6717
 4092TIP3   OH236470   4.775   0.741   2.855  0.8454 -0.0959 -0.1904
 4092TIP3    H136471   4.784   0.653   2.817  1.8011  0.0235 -0.2646
 4092TIP3    H236472   4.715   0.787   2.796  0.4037 -0.6701 -0.1953
 4093TIP3   OH236473   7.037   2.383   9.359  0.2100 -0.3189 -0.5860
 4093TIP3    H136474   7.084   2.399   9.277 -0.0329 -0.9982 -0.8589
 4093TIP3    H236475   6.946   2.406   9.340  0.3858  0.8807 -0.0909
 4094TIP3   OH236476   1.376   6.557   9.838 -0.3855  0.0910 -0.0398
 4094TIP3    H136477   1.338   6.469   9.831 -0.9289  0.3207 -0.0869
 4094TIP3    H236478   1.358   6.597   9.753  2.0442 -0.5719 -0.9405
 4095TIP3   OH236479   0.605   3.260   7.602  0.4114 -0.2310  0.2938
 4095TIP3    H136480   0.673   3.309   7.555  0.2045 -0.0442  0.1894
 4095TIP3    H236481   0.653   3.213   7.670  0.6197  0.0765  0.3632
 4096TIP3   OH236482   4.780   4.414   1.471 -0.4936  0.6617 -0.1998
 4096TIP3    H136483   4.841   4.369   1.530 -0.7590 -0.0873 -0.4975
 4096TIP3    H236484   4.833   4.485   1.433 -0.1010  0.6622  0.3278
 4097TIP3   OH236485   3.716   3.972   1.376 -0.6004 -0.1958  0.1721
 4097TIP3    H136486   3.622   3.971   1.395 -0.4952  0.2601  0.7210
 4097TIP3    H236487   3.722   4.011   1.289 -0.9188 -0.2138  0.1405
 4098TIP3   OH236488   2.364   7.267   1.960  0.5098  0.8159 -0.5661
 4098TIP3    H136489   2.416   7.259   1.880  0.8788  1.2168 -0.3736
 4098TIP3    H236490   2.350   7.177   1.989  0.9721  0.6981 -0.7020
 4099TIP3   OH236491   2.344   4.341   8.036  0.0796  0.0135  0.5074
 4099TIP3    H136492   2.295   4.390   7.969 -0.7275  0.4255  1.3799
 4099TIP3    H236493   2.285   4.336   8.111  0.1201 -2.3178  0.4676
 4100TIP3   OH236494   1.764   2.973   0.592  0.0743  0.7171  0.0916
 4100TIP3    H136495   1.768   3.040   0.660 -0.9732  2.0973 -1.1551
 4100TIP3    H236496   1.799   2.894   0.634 -1.5215  1.2340  2.5547
 4101TIP3   OH236497   0.638   4.973   8.920 -0.3616 -0.1778 -0.3861
 4101TIP3    H136498   0.584   4.899   8.895  0.2602 -0.6379 -0.3953
 4101TIP3    H236499   0.636   4.974   9.015 -0.1065 -0.4098 -0.3767
 4102TIP3   OH236500   4.871   1.173   2.918 -0.2650  0.1311  0.2017
 4102TIP3    H136501   4.784   1.193   2.884 -0.8072  0.8335  1.9314
 4102TIP3    H236502   4.857   1.102   2.981  0.4599  0.0275  0.2551
 4103TIP3   OH236503   0.612   4.926   0.690  0.1896  0.5047 -0.5111
 4103TIP3    H136504   0.603   4.843   0.738 -0.2865  0.9133  0.1139
 4103TIP3    H236505   0.525   4.965   0.695  0.1448  0.5795 -1.6702
 4104TIP3   OH236506   2.606   5.616   2.247 -0.1569 -0.0452  0.2209
 4104TIP3    H136507   2.605   5.583   2.157 -1.1429  1.7380 -0.4595
 4104TIP3    H236508   2.621   5.710   2.238 -1.8734  0.4295  1.8286
 4105TIP3   OH236509   3.238   4.846   9.936  0.0878  0.3518 -0.0348
 4105TIP3    H136510   3.148   4.863   9.963  0.4231  1.0462  0.6463
 4105TIP3    H236511   3.232   4.830   9.842 -0.7001  0.7361 -0.0512
 4106TIP3   OH236512   5.550   4.580   1.962 -0.0271 -0.2814  0.0893
 4106TIP3    H136513   5.549   4.624   2.047  0.0365 -1.4332  0.7027
 4106TIP3    H236514   5.499   4.638   1.905 -0.4360  0.2917  1.0104
 4107TIP3   OH236515   5.681   3.597   0.400 -0.5448 -0.1203 -0.7885
 4107TIP3    H136516   5.587   3.615   0.396 -0.9525 -1.7797  0.2520
 4107TIP3    H236517   5.690   3.507   0.370  0.9160  0.4375 -2.2015
 4108TIP3   OH236518   4.334   2.143   9.937  0.2950 -0.9904  0.2624
 4108TIP3    H136519   4.274   2.213   9.961 -0.2683 -1.7886  1.2630
 4108TIP3    H236520   4.364   2.166   9.849 -1.7482 -0.7482 -0.4175
 4109TIP3   OH236521   0.473   0.986   9.162 -0.4769  0.2345 -0.5834
 4109TIP3    H136522   0.541   1.047   9.134 -1.7761  1.5467 -0.9867
 4109TIP3    H236523   0.508   0.945   9.242  1.2664 -0.0339 -1.4431
 4110TIP3   OH236524   1.063   6.991   7.505  0.5801 -1.0005 -0.5740
 4110TIP3    H136525   1.114   6.953   7.576  1.1194  0.5394 -0.0912
 4110TIP3    H236526   0.972   6.989   7.536  0.4822 -2.5080 -0.8717
 4111TIP3   OH236527   6.797   3.586   2.144 -0.5252  0.6960  0.6223
 4111TIP3    H136528   6.754   3.665   2.109 -0.5755  0.8026  0.9234
 4111TIP3    H236529   6.889   3.597   2.120 -0.5569  0.7748  0.5343
 4112TIP3   OH236530   0.411   3.392   6.579 -0.0988  0.6877  0.0378
 4112TIP3    H136531   0.351   3.445   6.525  0.3876  1.2424  0.0396
 4112TIP3    H236532   0.430   3.447   6.654 -0.6247 -0.0138  0.6977
 4113TIP3   OH236533   0.817   3.362   8.595 -0.6743 -0.8977  0.3691
 4113TIP3    H136534   0.875   3.286   8.582 -1.2315 -1.0877 -1.2556
 4113TIP3    H236535   0.770   3.342   8.676  0.0058 -1.7430  0.5841
 4114TIP3   OH236536   6.256   1.104   7.516  0.0737 -0.2861  0.3285
 4114TIP3    H136537   6.250   1.022   7.567 -0.3597 -0.3745  0.1445
 4114TIP3    H236538   6.344   1.135   7.532  0.2406 -0.7846  0.4181
 4115TIP3   OH236539   6.880   2.969   9.749 -0.6362  0.0930 -0.5365
 4115TIP3    H136540   6.949   2.909   9.722 -0.9392  0.8773 -3.3618
 4115TIP3    H236541   6.799   2.918   9.742 -0.7639  0.4367 -1.6376
 4116TIP3   OH236542   1.605   5.613   0.947 -0.3073  0.1211 -0.2262
 4116TIP3    H136543   1.532   5.634   0.888 -1.3540  1.1260  1.3731
 4116TIP3    H236544   1.683   5.625   0.893 -1.2523  0.3083 -1.6066
 4117TIP3   OH236545   2.366   0.834   7.291 -0.5691  0.6594  0.0554
 4117TIP3    H136546   2.400   0.922   7.281 -1.7113  1.2266  0.9121
 4117TIP3    H236547   2.307   0.839   7.367 -0.0796 -1.0040  0.6059
 4118TIP3   OH236548   5.309   2.746   9.505 -0.4503  0.0011  0.1054
 4118TIP3    H136549   5.230   2.798   9.514 -0.5027 -0.1460  0.5507
 4118TIP3    H236550   5.309   2.717   9.414 -1.0761 -0.2617  0.1839
 4119TIP3   OH236551   4.113   3.047   8.439  0.0101  0.0887  0.5555
 4119TIP3    H136552   4.088   3.135   8.467 -3.6286 -0.6168  0.0295
 4119TIP3    H236553   4.030   3.005   8.416  1.6782 -3.2720  0.1186
 4120TIP3   OH236554   5.776   6.208   1.987  0.7107 -0.7418  0.3982
 4120TIP3    H136555   5.776   6.186   2.081  2.2431  0.0590  0.6131
 4120TIP3    H236556   5.761   6.303   1.985  0.5828 -0.7743 -0.1806
 4121TIP3   OH236557   6.039   2.774   0.924  0.2468 -0.6116  0.1778
 4121TIP3    H136558   6.039   2.734   1.011 -0.0856  0.6276  0.7600
 4121TIP3    H236559   6.123   2.818   0.918  0.3402 -0.8362 -0.2088
 4122TIP3   OH236560   5.507   6.716   1.035  0.8059  0.2965 -0.0649
 4122TIP3    H136561   5.467   6.712   0.948  2.4502 -0.3255 -0.8365
 4122TIP3    H236562   5.455   6.780   1.083 -0.7958 -0.1371 -1.1498
 4123TIP3   OH236563   6.438   1.049   0.477 -0.2179 -0.0645 -0.1199
 4123TIP3    H136564   6.361   1.050   0.535 -0.3481  0.9280 -0.2912
 4123TIP3    H236565   6.410   0.998   0.402 -0.4795 -0.2899  0.1252
 4124TIP3   OH236566   1.629   4.837   9.916 -0.4460  0.0463 -0.0792
 4124TIP3    H136567   1.538   4.860   9.936 -0.8019 -1.7878  0.6107
 4124TIP3    H236568   1.637   4.745   9.942  1.2955 -0.1734 -1.1960
 4125TIP3   OH236569   1.849   2.058   8.079  0.3234  0.5105 -0.0449
 4125TIP3    H136570   1.774   2.076   8.136  0.9541 -1.2579  1.4091
 4125TIP3    H236571   1.810   2.017   8.002 -0.3912  1.5485 -0.2585
 4126TIP3   OH236572   4.422   3.320   8.558  0.4445 -0.9739  0.4173
 4126TIP3    H136573   4.365   3.359   8.624 -0.1693 -0.1297 -0.5674
 4126TIP3    H236574   4.511   3.341   8.587  0.1586  0.2042  0.5058
 4127TIP3   OH236575   1.855   1.984   2.005  0.5014  0.3476 -0.5611
 4127TIP3    H136576   1.802   1.938   2.070  0.8039 -0.5949 -0.9659
 4127TIP3    H236577   1.797   1.995   1.930  0.5176  0.3848 -0.5682
 4128TIP3   OH236578   4.806   6.274   2.124 -0.0711  0.2639  0.0737
 4128TIP3    H136579   4.866   6.248   2.194  0.7547  1.0204 -0.3318
 4128TIP3    H236580   4.738   6.324   2.168 -1.4861 -2.1575  0.8121
 4129TIP3   OH236581   2.099   4.720   2.696 -0.7566 -0.2707 -0.0624
 4129TIP3    H136582   2.169   4.773   2.658 -0.3005 -0.3772  0.6053
 4129TIP3    H236583   2.071   4.770   2.773  0.4245 -1.4808  1.2097
 4130TIP3   OH236584   4.577   4.151   1.982 -0.2693 -0.3529 -0.2648
 4130TIP3    H136585   4.647   4.086   1.976  1.3250  1.2605  0.0443
 4130TIP3    H236586   4.535   4.133   2.066  0.2951 -0.8570 -0.0815
 4131TIP3   OH236587   3.220   1.438   8.395  0.1937 -0.3135  0.2078
 4131TIP3    H136588   3.160   1.389   8.450  0.1920  0.5434  0.9837
 4131TIP3    H236589   3.257   1.505   8.452  1.0599 -0.1267 -0.5353
 4132TIP3   OH236590   1.837   2.658   0.774 -0.7185  0.0154 -0.2008
 4132TIP3    H136591   1.783   2.626   0.702 -0.7915  1.4811 -0.8272
 4132TIP3    H236592   1.832   2.589   0.840 -1.4247 -0.9258 -1.2120
 4133TIP3   OH236593   0.012   2.125   6.842  0.3290  0.6480 -0.0341
 4133TIP3    H136594   0.096   2.106   6.802 -1.2578  0.8235 -3.8851
 4133TIP3    H236595   0.008   2.221   6.845  0.0644  0.6507 -0.4009
 4134TIP3   OH236596   3.578   5.873   7.719  0.2175  0.0182 -0.3843
 4134TIP3    H136597   3.541   5.785   7.709 -0.4114  0.4279 -2.1109
 4134TIP3    H236598   3.601   5.899   7.629  0.4744  1.5875  0.1052
 4135TIP3   OH236599   3.131   2.826   0.919 -0.2749 -0.3171 -0.3708
 4135TIP3    H136600   3.207   2.768   0.921  0.3750  0.5252  0.3515
 4135TIP3    H236601   3.079   2.795   0.845  1.4400 -0.0883 -1.7429
 4136TIP3   OH236602   2.729   6.066   1.967  0.2529 -0.1106  0.2464
 4136TIP3    H136603   2.693   6.132   2.025 -0.3445 -0.7851  0.6445
 4136TIP3    H236604   2.677   6.074   1.887  0.8080  0.5386 -0.0642
 4137TIP3   OH236605   4.823   3.483   0.144 -0.2620 -0.0414  0.1733
 4137TIP3    H136606   4.829   3.578   0.154  0.3224 -0.1869  1.4498
 4137TIP3    H236607   4.797   3.451   0.230 -0.6642 -1.0306 -0.2970
 4138TIP3   OH236608   6.843   2.080   9.035 -0.9354 -1.5353  0.2839
 4138TIP3    H136609   6.781   2.149   9.014 -1.1697 -1.3530  1.4810
 4138TIP3    H236610   6.890   2.063   8.953 -0.7241  0.1743  0.0190
 4139TIP3   OH236611   6.186   6.113   1.342  0.1356  0.0865  0.0516
 4139TIP3    H136612   6.264   6.158   1.375  1.3150 -1.5120 -0.4011
 4139TIP3    H236613   6.183   6.031   1.392 -1.1229  0.0180 -0.1083
 4140TIP3   OH236614   4.973   7.262   7.628 -0.9289  0.3749  0.1854
 4140TIP3    H136615   4.908   7.245   7.560 -0.7809  0.1681  0.0949
 4140TIP3    H236616   5.006   7.350   7.608 -0.9595  0.3556  0.0478
 4141TIP3   OH236617   4.893   5.380   0.770  0.2026  0.3054 -0.1139
 4141TIP3    H136618   4.918   5.293   0.741  0.6596  0.2279  0.4852
 4141TIP3    H236619   4.975   5.427   0.779  0.1933  0.0288  1.9275
 4142TIP3   OH236620   1.688   1.281   1.686 -0.0036 -0.4200  0.3506
 4142TIP3    H136621   1.705   1.199   1.641  0.3628 -0.6200  0.8381
 4142TIP3    H236622   1.762   1.291   1.746  1.0036  1.2267 -1.0531
 4143TIP3   OH236623   4.690   3.598   0.699  0.3416 -0.1342  0.5085
 4143TIP3    H136624   4.758   3.662   0.717 -1.0753  1.5370  0.1926
 4143TIP3    H236625   4.615   3.628   0.750 -0.8695 -0.5712 -0.9597
 4144TIP3   OH236626   1.768   7.127   7.996  0.0947  0.5870 -0.1017
 4144TIP3    H136627   1.822   7.076   7.936 -0.0382  0.3721 -0.0388
 4144TIP3    H236628   1.688   7.145   7.948 -0.2810 -0.1407  0.2362
 4145TIP3   OH236629   0.036   2.451   0.555 -0.2955 -0.0909 -0.0324
 4145TIP3    H136630  -0.056   2.427   0.547 -0.7607  1.1399  1.2284
 4145TIP3    H236631   0.077   2.374   0.594 -1.0246 -0.2355  0.4723
 4146TIP3   OH236632   4.822   5.819   9.328 -0.0748 -0.3158  0.0731
 4146TIP3    H136633   4.886   5.890   9.320  0.4414 -0.6758  0.8882
 4146TIP3    H236634   4.866   5.753   9.381 -0.9998 -0.7332  0.3410
 4147TIP3   OH236635   2.603   0.667   7.720  0.5264  0.4870 -0.4120
 4147TIP3    H136636   2.628   0.721   7.645  1.1452  0.6651 -0.0853
 4147TIP3    H236637   2.587   0.580   7.683  1.6304  0.3645 -0.6477
 4148TIP3   OH236638   2.659   2.308   9.701 -0.2240  0.0197 -0.1034
 4148TIP3    H136639   2.647   2.218   9.669  1.4570 -0.1059 -0.4954
 4148TIP3    H236640   2.686   2.297   9.792 -1.0805  0.1923  0.1776
 4149TIP3   OH236641   5.881   4.124   7.578 -0.0563  0.2047  0.0786
 4149TIP3    H136642   5.801   4.088   7.541 -0.0284  0.7645 -0.5622
 4149TIP3    H236643   5.884   4.214   7.544  1.2939 -0.0928 -0.6566
 4150TIP3   OH236644   4.922   0.524   7.362  0.7956 -0.2016 -0.2830
 4150TIP3    H136645   4.872   0.531   7.280  0.6862  1.0627 -0.1300
 4150TIP3    H236646   4.999   0.578   7.347  1.0042 -0.3355  0.2879
 4151TIP3   OH236647   3.514   6.210   1.973 -0.0620 -0.5498 -0.5250
 4151TIP3    H136648   3.434   6.244   2.013 -0.2002 -1.2386 -0.2070
 4151TIP3    H236649   3.491   6.200   1.880 -0.1013 -0.0405 -0.5761
 4152TIP3   OH236650   0.605   4.146   8.221 -0.7482  0.0520  0.1736
 4152TIP3    H136651   0.621   4.226   8.271 -0.0002  0.1711 -0.2461
 4152TIP3    H236652   0.602   4.077   8.287  0.6976  0.1406  0.3729
 4153TIP3   OH236653   1.122   4.919   1.905 -0.2663 -0.3504 -0.6091
 4153TIP3    H136654   1.056   4.911   1.836  0.0115 -0.1348 -0.9064
 4153TIP3    H236655   1.141   4.829   1.931 -1.2725 -0.3791  0.0620
 4154TIP3   OH236656   2.121   0.347   7.683  0.3015 -0.0496 -0.1963
 4154TIP3    H136657   2.176   0.277   7.648 -0.5785 -0.5288 -0.6613
 4154TIP3    H236658   2.123   0.334   7.777  0.9227 -0.1005 -0.2111
 4155TIP3   OH236659   6.124   1.206   0.255  0.0574 -0.0769 -0.0737
 4155TIP3    H136660   6.201   1.260   0.268 -0.7691  1.1712 -0.1789
 4155TIP3    H236661   6.106   1.210   0.161  0.5251 -1.3370 -0.2453
 4156TIP3   OH236662   5.878   2.586   8.707 -0.0676  0.5041 -0.0021
 4156TIP3    H136663   5.925   2.532   8.772 -0.4151  0.2190  0.0170
 4156TIP3    H236664   5.947   2.636   8.664  0.3575 -0.4949 -0.5284
 4157TIP3   OH236665   2.088   6.583   0.693 -0.9547 -0.5414  0.0710
 4157TIP3    H136666   2.123   6.520   0.631  1.1548  0.1058  0.5373
 4157TIP3    H236667   1.994   6.566   0.694 -0.3465 -4.9300  1.5338
 4158TIP3   OH236668   0.420   1.571   9.305  0.7150  0.0915  0.2022
 4158TIP3    H136669   0.390   1.622   9.380 -0.5485 -0.9171  0.4108
 4158TIP3    H236670   0.432   1.636   9.235 -0.4266  0.7354  0.5918
 4159TIP3   OH236671   1.204   2.463   0.998  0.5492  0.0865  0.3607
 4159TIP3    H136672   1.237   2.432   0.914 -2.0879  1.6157 -1.3864
 4159TIP3    H236673   1.152   2.390   1.032  1.0407 -0.2856  0.3245
 4160TIP3   OH236674   5.489   4.050   9.896  0.2927 -0.3992 -0.2150
 4160TIP3    H136675   5.500   4.129   9.949 -0.7701  0.4667 -1.2224
 4160TIP3    H236676   5.401   4.019   9.918  0.6482 -1.2454  0.0643
 4161TIP3   OH236677   2.337   5.131   6.664  0.1288 -0.5392  0.2826
 4161TIP3    H136678   2.408   5.118   6.601 -1.2611 -0.9185 -1.2831
 4161TIP3    H236679   2.294   5.212   6.636 -1.3020 -1.3930 -0.0765
 4162TIP3   OH236680   3.952   5.077   2.493  0.5541  0.3558 -0.2792
 4162TIP3    H136681   3.942   4.997   2.544 -1.9448 -1.2330 -2.9996
 4162TIP3    H236682   3.887   5.137   2.530  2.0592  1.0421  1.4055
 4163TIP3   OH236683   4.722   0.676   2.525  0.3862  0.0800 -0.9323
 4163TIP3    H136684   4.705   0.615   2.597  1.4032 -2.4497 -2.6808
 4163TIP3    H236685   4.766   0.750   2.565  0.2480 -0.8993  1.1356
 4164TIP3   OH236686   3.356   1.055   0.748  0.1161 -0.0321 -0.4086
 4164TIP3    H136687   3.380   0.974   0.701 -0.5695 -1.2185  1.1979
 4164TIP3    H236688   3.440   1.093   0.774  0.4400 -0.7109 -0.4199
 4165TIP3   OH236689   6.393   6.499   9.118  0.2389 -0.2066  0.1631
 4165TIP3    H136690   6.329   6.429   9.111 -0.1394  0.3098 -2.0142
 4165TIP3    H236691   6.341   6.580   9.123  0.7109  0.0858  0.5275
 4166TIP3   OH236692   6.560   1.290   1.633  0.1959 -0.2908 -0.4263
 4166TIP3    H136693   6.531   1.380   1.650 -0.8654 -1.0486  2.3411
 4166TIP3    H236694   6.479   1.241   1.621  0.6566 -1.2134  0.1207
 4167TIP3   OH236695   0.198   4.877   2.730  0.3994 -0.0358  0.7930
 4167TIP3    H136696   0.255   4.800   2.727 -0.4598 -0.6560  0.0292
 4167TIP3    H236697   0.259   4.951   2.725  1.2707 -0.6305  2.0334
 4168TIP3   OH236698   0.940   3.817   3.086 -0.1433  0.4603  0.1672
 4168TIP3    H136699   1.032   3.794   3.093  0.0772  1.0858 -0.5451
 4168TIP3    H236700   0.934   3.908   3.115 -0.6196  0.2801  0.6659
 4169TIP3   OH236701   3.159   1.516   1.393  0.1295  0.0978  0.7450
 4169TIP3    H136702   3.091   1.457   1.424 -0.0823  0.0091  0.1410
 4169TIP3    H236703   3.214   1.462   1.336 -0.4077  0.5910 -0.2822
 4170TIP3   OH236704   0.981   5.891   9.857 -0.5272  0.0102  0.2959
 4170TIP3    H136705   0.983   5.904   9.952 -1.1949 -0.4838  0.3899
 4170TIP3    H236706   1.068   5.857   9.836 -0.9862 -1.8191  1.0592
 4171TIP3   OH236707   1.966   2.467   2.581  0.2526  0.4458  0.2749
 4171TIP3    H136708   2.044   2.521   2.565 -0.3823  1.9033  1.7794
 4171TIP3    H236709   1.900   2.529   2.609 -0.4902 -1.1366  2.2226
 4172TIP3   OH236710   4.253   1.503   7.967 -0.3073 -0.0106 -0.2492
 4172TIP3    H136711   4.314   1.564   8.006  1.0845 -0.9267 -0.9065
 4172TIP3    H236712   4.175   1.555   7.947 -0.3084  0.8840  1.8639
 4173TIP3   OH236713   2.537   6.134   1.398  0.1571  0.2791 -0.2568
 4173TIP3    H136714   2.557   6.225   1.417  3.4370 -0.3738 -0.0899
 4173TIP3    H236715   2.502   6.099   1.480 -0.2726  1.1290 -0.0669
 4174TIP3   OH236716   6.880   5.007   8.288  0.8787  0.2721  0.1976
 4174TIP3    H136717   6.945   4.977   8.351  0.9610  1.8240  0.8954
 4174TIP3    H236718   6.881   4.940   8.219  1.8612 -0.6849  1.0993
 4175TIP3   OH236719   1.857   2.691   9.289  0.3616  0.2835  0.0571
 4175TIP3    H136720   1.840   2.602   9.259  0.0494  0.5256 -0.4903
 4175TIP3    H236721   1.952   2.702   9.280  0.6772 -0.5962  1.8257
 4176TIP3   OH236722   5.473   6.627   1.810  0.1329  0.0310  0.0583
 4176TIP3    H136723   5.490   6.534   1.820 -1.2950 -0.1991  0.6205
 4176TIP3    H236724   5.378   6.635   1.815  0.2047  1.4932 -0.2308
 4177TIP3   OH236725   4.354   4.803   7.856 -0.0729 -0.3740  0.1222
 4177TIP3    H136726   4.402   4.728   7.892 -0.7809 -0.5574  0.7044
 4177TIP3    H236727   4.388   4.812   7.767  0.6172 -0.8668  0.3259
 4178TIP3   OH236728   2.226   4.485   0.739 -0.2312  0.1782  0.4326
 4178TIP3    H136729   2.131   4.489   0.725 -0.6549 -1.8853  2.1928
 4178TIP3    H236730   2.253   4.404   0.696  0.5969  0.3596  0.6039
 4179TIP3   OH236731   3.163   2.200   1.163  0.0643 -0.5208 -0.1307
 4179TIP3    H136732   3.134   2.191   1.253 -0.4301  2.4005  0.0948
 4179TIP3    H236733   3.246   2.248   1.169 -0.8253  1.2655 -1.2414
 4180TIP3   OH236734   6.484   4.301   0.874  0.6585 -0.2001  0.2199
 4180TIP3    H136735   6.513   4.384   0.912  0.7893 -0.1259 -0.0388
 4180TIP3    H236736   6.534   4.235   0.922 -0.2911 -0.2128  1.2266
 4181TIP3   OH236737   0.244   0.729   7.943 -0.0959  0.1601  0.4056
 4181TIP3    H136738   0.224   0.639   7.916 -2.1535 -0.1382  2.5326
 4181TIP3    H236739   0.294   0.718   8.024  1.4425  0.9954 -0.3858
 4182TIP3   OH236740   1.053   2.993   9.109  0.1067  0.0393  0.5011
 4182TIP3    H136741   1.057   2.912   9.058 -0.3090 -0.1142  0.7086
 4182TIP3    H236742   1.020   3.058   9.048  1.0081  0.1946  0.1648
 4183TIP3   OH236743   1.608   1.994   9.841 -0.8747 -0.1817  0.8493
 4183TIP3    H136744   1.559   2.047   9.904 -0.2508 -1.6072  2.6056
 4183TIP3    H236745   1.699   2.003   9.867 -0.3858  0.6167 -0.9907
 4184TIP3   OH236746   4.851   6.350   2.439 -0.1857 -0.6385  0.4793
 4184TIP3    H136747   4.771   6.390   2.407 -0.0544  0.2883  1.2558
 4184TIP3    H236748   4.892   6.418   2.493  1.1144 -1.0988  0.1181
 4185TIP3   OH236749   4.777   1.223   9.916 -0.2884 -0.2805  0.3039
 4185TIP3    H136750   4.766   1.142   9.966 -0.3317  0.8266  2.1577
 4185TIP3    H236751   4.689   1.260   9.910 -0.1692 -0.0348  0.0399
 4186TIP3   OH236752   3.079   4.452   9.493  0.4387 -0.1618  0.3207
 4186TIP3    H136753   3.038   4.444   9.579  0.8031 -0.2264  0.4918
 4186TIP3    H236754   3.173   4.448   9.511  0.7090  3.2588  0.3132
 4187TIP3   OH236755   1.134   3.605   9.226  0.1416 -0.1342 -0.0222
 4187TIP3    H136756   1.152   3.699   9.221  0.1369 -0.1187  0.2786
 4187TIP3    H236757   1.193   3.572   9.293  0.9318 -0.5395 -0.8894
 4188TIP3   OH236758   1.918   6.372   2.158  0.2618 -0.3435  0.6173
 4188TIP3    H136759   1.928   6.467   2.171  0.4255 -0.1969 -0.4314
 4188TIP3    H236760   1.853   6.345   2.223  0.0952  0.5192  0.8210
 4189TIP3   OH236761   0.547   3.846   0.970  0.1648 -0.2266 -0.0252
 4189TIP3    H136762   0.485   3.896   0.917  0.2050 -0.2461 -0.0914
 4189TIP3    H236763   0.589   3.787   0.908  0.3286 -0.1354 -0.0019
 4190TIP3   OH236764   0.326   4.188   0.393 -0.3897 -0.0336  0.0919
 4190TIP3    H136765   0.269   4.123   0.433  0.1931  0.3768  1.6776
 4190TIP3    H236766   0.312   4.178   0.299 -1.8803 -0.9912  0.3837
 4191TIP3   OH236767   4.871   4.897   1.414 -0.0984 -0.3379 -0.3338
 4191TIP3    H136768   4.796   4.949   1.386  2.4260  2.9833 -1.6070
 4191TIP3    H236769   4.907   4.945   1.488  1.0933 -1.5481 -0.0835
 4192TIP3   OH236770   2.014   3.192   0.100 -0.0861 -0.0331  0.3629
 4192TIP3    H136771   2.093   3.227   0.141  0.8960 -2.0948  0.3315
 4192TIP3    H236772   1.956   3.171   0.173 -0.3595  0.8518  0.4159
 4193TIP3   OH236773   4.911   6.018   1.059  0.6823 -0.2145 -0.1496
 4193TIP3    H136774   4.904   5.968   1.141  1.3098  2.8043  1.9274
 4193TIP3    H236775   4.822   6.048   1.042  0.5975 -0.6310 -0.4657
 4194TIP3   OH236776   2.019   4.970   7.604  0.4306  0.2476  0.0340
 4194TIP3    H136777   2.017   4.953   7.698  0.2035  0.7808  0.1269
 4194TIP3    H236778   1.971   4.897   7.565  1.7957 -0.7768  0.2054
 4195TIP3   OH236779   5.530   5.393   7.982  0.4249 -0.2522  0.4726
 4195TIP3    H136780   5.477   5.400   8.061  1.1092 -0.3066  0.9423
 4195TIP3    H236781   5.606   5.450   7.998  0.0758  0.5366 -0.5595
 4196TIP3   OH236782   2.227   2.451   9.816 -0.6455 -0.5582 -0.3855
 4196TIP3    H136783   2.315   2.455   9.852 -0.2423  0.2864 -1.4096
 4196TIP3    H236784   2.171   2.435   9.892  0.2406  0.4745  0.5184
 4197TIP3   OH236785   6.821   1.850   9.986 -0.2440  0.4646  0.4065
 4197TIP3    H136786   6.903   1.846   9.935  0.6651 -1.3199  1.8916
 4197TIP3    H236787   6.787   1.761   9.983 -0.8932  0.6458  1.7582
 4198TIP3   OH236788   1.031   1.373   0.779  0.1696  0.0548  0.1076
 4198TIP3    H136789   0.987   1.387   0.695  0.5940  1.9475  0.1690
 4198TIP3    H236790   0.967   1.326   0.832 -0.1442 -1.0687 -1.2122
 4199TIP3   OH236791   2.854   4.588   9.387 -0.4537  0.1449 -0.3242
 4199TIP3    H136792   2.805   4.610   9.466 -2.1825 -3.2515 -0.2801
 4199TIP3    H236793   2.946   4.596   9.413 -0.9712  1.2226  1.3374
 4200TIP3   OH236794   7.014   0.369   6.949 -0.0786 -0.4799  0.3273
 4200TIP3    H136795   7.053   0.349   7.034  0.8436 -2.1090 -0.4333
 4200TIP3    H236796   7.083   0.349   6.886 -1.1142 -0.3679 -0.8779
 4201TIP3   OH236797   4.914   4.693   0.678  0.4596 -0.6469  0.1522
 4201TIP3    H136798   4.848   4.659   0.618 -1.7789 -0.3274  2.2364
 4201TIP3    H236799   4.890   4.656   0.763  1.6934  1.1682  1.3800
 4202TIP3   OH236800   2.414   6.965   2.188  0.7030 -0.0649  0.2183
 4202TIP3    H136801   2.376   7.029   2.248 -0.2276  0.0276 -0.4638
 4202TIP3    H236802   2.340   6.928   2.141  1.4174 -0.1483 -0.8815
 4203TIP3   OH236803   4.903   0.274   8.218  0.4230  0.2403 -0.1621
 4203TIP3    H136804   4.995   0.254   8.200  1.0932  2.1362  0.8632
 4203TIP3    H236805   4.885   0.352   8.165 -0.8270 -0.4741 -0.8511
 4204TIP3   OH236806   1.288   4.982   2.315  0.2806  0.2087  0.3296
 4204TIP3    H136807   1.378   4.991   2.282  0.8154 -0.4873  1.5338
 4204TIP3    H236808   1.269   5.065   2.358  0.3066  0.3899 -0.0057
 4205TIP3   OH236809   6.913   4.423   9.404  0.0533 -0.8467 -0.1568
 4205TIP3    H136810   6.944   4.513   9.410 -0.1418 -0.8514  1.1846
 4205TIP3    H236811   6.843   4.426   9.339 -1.6289  0.4935  1.5933
 4206TIP3   OH236812   0.426   4.226   8.680  0.1836  0.3654  0.3138
 4206TIP3    H136813   0.450   4.280   8.755 -1.4603  0.5182  0.7703
 4206TIP3    H236814   0.347   4.179   8.708 -0.8347  0.8653 -1.4980
 4207TIP3   OH236815   5.598   4.224   8.835  0.7956  0.3955 -0.8019
 4207TIP3    H136816   5.548   4.223   8.753  0.9260  1.2949 -0.9038
 4207TIP3    H236817   5.573   4.143   8.879 -0.3423  0.5583 -1.0980
 4208TIP3   OH236818   5.089   3.584   1.510 -0.1870  0.3982 -0.0549
 4208TIP3    H136819   5.034   3.616   1.439  0.6713  1.6228 -0.1973
 4208TIP3    H236820   5.029   3.537   1.567 -1.0431  0.1324 -1.1410
 4209TIP3   OH236821   4.695   3.293   9.180 -0.2914  0.4008 -0.6576
 4209TIP3    H136822   4.662   3.205   9.160 -0.3241  0.2413  0.0876
 4209TIP3    H236823   4.777   3.299   9.130 -1.1522  0.6095 -2.1106
 4210TIP3   OH236824   7.206   5.043   7.569  0.0531 -0.4148  0.4194
 4210TIP3    H136825   7.154   5.060   7.490 -1.3451 -0.0231  1.3892
 4210TIP3    H236826   7.293   5.019   7.536 -1.2352 -3.0840 -1.3421
 4211TIP3   OH236827   3.983   0.782   9.475  0.0022 -0.3472 -0.5265
 4211TIP3    H136828   4.078   0.773   9.471 -0.1739 -3.1186 -0.4004
 4211TIP3    H236829   3.952   0.696   9.506 -2.5400  0.4706 -0.5767
 4212TIP3   OH236830   5.877   1.898   9.934  0.8974  0.1947 -0.2492
 4212TIP3    H136831   5.907   1.983   9.900 -0.7851  1.7741  1.8709
 4212TIP3    H236832   5.827   1.860   9.862  1.3651  1.1941 -1.1375
 4213TIP3   OH236833   4.628   0.448   7.542  0.0183  0.2186 -0.1763
 4213TIP3    H136834   4.543   0.474   7.578 -0.3716  0.2459 -1.0863
 4213TIP3    H236835   4.633   0.354   7.557 -0.3203  0.1626 -0.3904
 4214TIP3   OH236836   7.171   2.734   9.254  0.5985 -0.0313 -0.1012
 4214TIP3    H136837   7.226   2.662   9.223  0.9639  0.0838  0.2793
 4214TIP3    H236838   7.140   2.705   9.340  0.2468  0.0014 -0.2172
 4215TIP3   OH236839   4.074   1.213   8.446  0.0017 -0.0846  0.1761
 4215TIP3    H136840   3.997   1.260   8.414  0.1038 -0.1886 -0.2347
 4215TIP3    H236841   4.060   1.122   8.420  0.5623  0.0068 -0.4854
 4216TIP3   OH236842   1.041   5.719   7.819  0.1293 -0.4170 -0.0033
 4216TIP3    H136843   1.095   5.737   7.897 -0.6561  0.3083  0.3926
 4216TIP3    H236844   1.024   5.625   7.822  0.2039 -0.4160  0.6430
 4217TIP3   OH236845   5.076   5.010   9.559 -0.1123  0.1403 -0.5270
 4217TIP3    H136846   5.140   4.962   9.508 -0.3517 -1.5167  0.6544
 4217TIP3    H236847   5.080   5.100   9.525  3.5667  0.3904  0.1826
 4218TIP3   OH236848   2.471   5.237   1.704  0.6620 -0.1850  0.0633
 4218TIP3    H136849   2.411   5.255   1.632  1.5583  1.7377 -0.2687
 4218TIP3    H236850   2.514   5.155   1.680  0.1269 -0.1586 -1.0318
 4219TIP3   OH236851   2.468   6.511   2.141  0.2281  0.0894  0.1757
 4219TIP3    H136852   2.447   6.518   2.234  0.2086  0.3469  0.1520
 4219TIP3    H236853   2.403   6.566   2.097  0.0117 -0.3179 -0.0182
 4220TIP3   OH236854   1.825   4.617   8.985 -0.5201 -0.1253  0.1335
 4220TIP3    H136855   1.797   4.707   8.970  0.0213 -0.2840 -2.0693
 4220TIP3    H236856   1.920   4.622   8.992 -0.4644 -0.5701 -0.2969
 4221TIP3   OH236857   5.753   2.303   1.578  0.1457 -0.3563  0.5476
 4221TIP3    H136858   5.786   2.347   1.500 -0.9712 -2.3172 -1.1168
 4221TIP3    H236859   5.829   2.258   1.615  0.6246  0.3597  0.4517
 4222TIP3   OH236860   3.882   6.170   7.359 -0.5731  0.0190 -0.3278
 4222TIP3    H136861   3.811   6.106   7.361 -0.6344  0.0985  0.1329
 4222TIP3    H236862   3.915   6.172   7.449  0.5161 -0.5776 -0.6976
 4223TIP3   OH236863   0.475   4.623   2.071 -0.6890 -0.3828  0.3191
 4223TIP3    H136864   0.455   4.711   2.102 -1.5134 -0.4239 -0.0901
 4223TIP3    H236865   0.504   4.635   1.980  0.7691 -0.3743  0.7483
 4224TIP3   OH236866   1.618   2.207   7.275  0.4754  0.1612  0.4014
 4224TIP3    H136867   1.655   2.166   7.196  0.0403 -0.2523  0.4107
 4224TIP3    H236868   1.607   2.299   7.250  0.0013 -0.0375 -0.1508
 4225TIP3   OH236869   5.866   6.373   0.742 -0.4810  0.0000  0.3170
 4225TIP3    H136870   5.892   6.464   0.729  0.9132 -0.6634 -2.0473
 4225TIP3    H236871   5.802   6.356   0.673 -2.1307 -0.3531  1.8645
 4226TIP3   OH236872   7.225   4.021   7.674  0.4241  0.5201  0.1843
 4226TIP3    H136873   7.242   4.078   7.749 -0.5546  0.5895  0.3639
 4226TIP3    H236874   7.200   4.080   7.604 -0.0079  0.3594  0.2003
 4227TIP3   OH236875   6.194   5.640   1.883 -0.1108  0.1668  0.1830
 4227TIP3    H136876   6.176   5.716   1.827  0.6710  1.4385  1.5665
 4227TIP3    H236877   6.161   5.666   1.969 -0.4244 -1.3580  0.5578
 4228TIP3   OH236878   2.802   1.973   9.038 -0.3358 -0.5196 -0.1702
 4228TIP3    H136879   2.767   1.915   8.970  1.6354 -1.0555 -0.7896
 4228TIP3    H236880   2.860   1.917   9.089 -0.7899  0.1965  1.1819
 4229TIP3   OH236881   5.145   4.536   7.980  0.2059 -0.6757  0.1600
 4229TIP3    H136882   5.182   4.506   8.063 -1.6924 -0.2328  1.2200
 4229TIP3    H236883   5.198   4.493   7.913  2.6159 -0.0421  1.5666
 4230TIP3   OH236884   6.962   3.739   1.563  0.2056 -0.1313  0.1888
 4230TIP3    H136885   6.918   3.658   1.587  0.1868 -0.5976 -1.3159
 4230TIP3    H236886   6.891   3.798   1.537  0.3385 -0.4367 -0.9464
 4231TIP3   OH236887   5.183   0.648   2.535 -0.5794 -0.1849  0.0294
 4231TIP3    H136888   5.165   0.569   2.585  2.3908  0.8102  3.0280
 4231TIP3    H236889   5.147   0.720   2.588  0.3202  0.7254 -0.5396
 4232TIP3   OH236890   0.210   0.343   1.412 -0.3872  0.1918 -0.7190
 4232TIP3    H136891   0.131   0.321   1.363 -2.2762 -3.1876  3.2564
 4232TIP3    H236892   0.183   0.413   1.472 -0.2605 -0.5408  0.2226
 4233TIP3   OH236893   4.547   4.642   9.391  0.4521 -0.2126 -0.1341
 4233TIP3    H136894   4.496   4.718   9.420  0.4250 -0.0025 -0.7181
 4233TIP3    H236895   4.495   4.605   9.319  0.1845 -1.1142  0.5172
 4234TIP3   OH236896   5.059   0.221   7.479 -0.8288  0.3606 -0.3191
 4234TIP3    H136897   5.095   0.309   7.470  0.1183  0.0670  0.4709
 4234TIP3    H236898   4.969   0.229   7.447 -0.3844  1.3313 -1.4240
 4235TIP3   OH236899   0.734   3.158   2.245  0.2054  0.4426  0.2158
 4235TIP3    H136900   0.768   3.149   2.334  0.5668 -1.2288 -0.0659
 4235TIP3    H236901   0.793   3.220   2.203  0.0277  1.2513  1.1292
 4236TIP3   OH236902   3.469   6.520   0.751 -0.4817  0.1367 -0.0746
 4236TIP3    H136903   3.458   6.576   0.675  1.4922  0.7302  0.0228
 4236TIP3    H236904   3.467   6.431   0.716 -0.4757  0.3711 -0.6814
 4237TIP3   OH236905   6.839   6.941   8.037  0.3213 -0.4428 -0.7904
 4237TIP3    H136906   6.874   7.011   7.982  0.1235  0.4448  0.1625
 4237TIP3    H236907   6.751   6.925   8.003  0.2049  0.0902 -0.7557
 4238TIP3   OH236908   6.956   6.432   1.315  0.0145  0.5848  0.0881
 4238TIP3    H136909   6.927   6.502   1.375  0.8892  1.7018 -0.7441
 4238TIP3    H236910   7.026   6.388   1.363 -1.2150 -0.4176  1.0335
 4239TIP3   OH236911   1.189   2.097   9.835 -0.0190 -0.2193  0.0086
 4239TIP3    H136912   1.143   2.175   9.803 -0.1754 -0.6155 -0.7424
 4239TIP3    H236913   1.141   2.073   9.914  0.9455  1.3221  1.1166
 4240TIP3   OH236914   2.818   7.039   0.148 -0.1189  0.6888 -0.4354
 4240TIP3    H136915   2.787   6.952   0.174  0.4842  0.6658  0.2194
 4240TIP3    H236916   2.856   7.026   0.061 -0.7138  0.4538 -0.6680
 4241TIP3   OH236917   4.073   2.559   7.848 -0.4258 -0.1831 -0.4541
 4241TIP3    H136918   4.080   2.504   7.770  1.2536 -0.0990 -0.3983
 4241TIP3    H236919   3.984   2.594   7.845 -0.5930 -0.6767 -2.0016
 4242TIP3   OH236920   0.551   0.107   2.406  0.3908  0.1296 -0.3178
 4242TIP3    H136921   0.471   0.158   2.420  1.1040  1.4617 -0.9411
 4242TIP3    H236922   0.620   0.159   2.446  1.0444 -0.7149 -0.3229
 4243TIP3   OH236923   1.243   5.983   1.886 -0.3938  0.1098 -0.1793
 4243TIP3    H136924   1.298   5.918   1.842  2.0730  0.2465  2.3926
 4243TIP3    H236925   1.159   5.939   1.898  0.4222 -1.6993 -0.6365
 4244TIP3   OH236926   3.627   6.463   0.404 -0.4501 -0.4989  0.1487
 4244TIP3    H136927   3.579   6.396   0.356  1.8940 -1.5311 -0.9475
 4244TIP3    H236928   3.686   6.414   0.462  0.2361  0.6405  0.4520
 4245TIP3   OH236929   1.409   6.380   8.418 -0.4601 -0.2619 -0.5283
 4245TIP3    H136930   1.458   6.308   8.457  0.8001  0.0123 -1.5302
 4245TIP3    H236931   1.360   6.418   8.491  2.3695  0.7306  1.0041
 4246TIP3   OH236932   1.251   3.523   0.760  0.1819  0.3210 -0.3126
 4246TIP3    H136933   1.288   3.474   0.686  0.4745 -1.3825  0.9088
 4246TIP3    H236934   1.159   3.497   0.762  0.1732  0.3719 -0.0814
 4247TIP3   OH236935   0.230   3.251   2.420 -0.2359  0.4325 -0.3959
 4247TIP3    H136936   0.246   3.296   2.502  1.3678 -0.3242 -0.2586
 4247TIP3    H236937   0.245   3.317   2.353  0.3173  0.5807 -0.1343
 4248TIP3   OH236938   2.681   4.206   1.825  0.2699 -0.0826 -0.0370
 4248TIP3    H136939   2.635   4.288   1.807 -0.6103 -0.2133  1.4585
 4248TIP3    H236940   2.660   4.186   1.916  2.1978 -0.8760  0.2793
 4249TIP3   OH236941   2.475   1.091   7.838  0.2029 -0.0570  0.1719
 4249TIP3    H136942   2.392   1.136   7.850 -0.5645 -1.2057 -0.6346
 4249TIP3    H236943   2.501   1.110   7.748  0.9588  0.4990  0.4933
 4250TIP3   OH236944   2.341   6.859   1.151  0.3744  0.3562  0.4880
 4250TIP3    H136945   2.269   6.853   1.088 -0.3341 -0.5219  1.3429
 4250TIP3    H236946   2.356   6.953   1.161  0.6410  0.5104 -1.1172
 4251TIP3   OH236947   6.726   3.911   0.926 -1.1946  0.0259 -0.8211
 4251TIP3    H136948   6.792   3.869   0.872 -1.2218 -1.1501  0.0056
 4251TIP3    H236949   6.702   3.844   0.990 -2.0616  0.9526 -0.1433
 4252TIP3   OH236950   6.986   3.936   2.555  0.2391  0.4087 -0.0711
 4252TIP3    H136951   6.900   3.916   2.517 -0.6832  1.1087  1.5256
 4252TIP3    H236952   7.048   3.888   2.501 -1.2664 -1.1514 -0.5081
 4253TIP3   OH236953   4.554   3.439   8.962  0.1904 -0.1268 -0.6384
 4253TIP3    H136954   4.559   3.389   9.043 -0.7870  1.5747  0.5426
 4253TIP3    H236955   4.463   3.432   8.935  0.2868  0.1358 -1.0411
 4254TIP3   OH236956   4.590   1.865   1.032  0.1671  0.2998 -0.0297
 4254TIP3    H136957   4.620   1.838   0.945 -1.8254  0.9488 -0.9713
 4254TIP3    H236958   4.581   1.960   1.026 -0.8269  0.2551  0.6010
 4255TIP3   OH236959   6.762   4.665   1.289  0.1798 -0.0832  0.2029
 4255TIP3    H136960   6.689   4.681   1.230 -0.3946  0.4596  1.0340
 4255TIP3    H236961   6.787   4.752   1.320  2.3364 -0.0648 -1.3874
 4256TIP3   OH236962   1.324   0.887   6.768 -0.0624 -0.0725  0.3831
 4256TIP3    H136963   1.386   0.871   6.840 -0.3621 -1.8071  0.3047
 4256TIP3    H236964   1.296   0.800   6.741 -0.7250  0.5838 -1.1917
 4257TIP3   OH236965   7.075   6.755   2.902 -0.0932  0.3407 -0.7873
 4257TIP3    H136966   7.138   6.784   2.969 -0.1699  2.0152 -1.3893
 4257TIP3    H236967   7.122   6.689   2.852  1.0532  1.2607 -0.9659
 4258TIP3   OH236968   4.692   0.235   8.414 -0.0430  0.4288 -0.3365
 4258TIP3    H136969   4.630   0.183   8.362  1.4704  0.4482 -2.2957
 4258TIP3    H236970   4.759   0.261   8.351  0.9647  2.0023  1.3078
 4259TIP3   OH236971   5.809   5.436   6.687 -0.2580 -0.1394 -0.2226
 4259TIP3    H136972   5.756   5.464   6.762 -1.6048  0.0506 -1.2086
 4259TIP3    H236973   5.760   5.364   6.649 -1.1090  1.5291 -2.5296
 4260TIP3   OH236974   2.810   3.121   9.756  0.3800 -0.3355  0.5218
 4260TIP3    H136975   2.754   3.050   9.724 -0.5505 -0.2305  1.8284
 4260TIP3    H236976   2.848   3.087   9.837  0.9077  0.2075  0.5103
 4261TIP3   OH236977   1.451   3.165   9.191 -0.1789 -0.6877  0.0379
 4261TIP3    H136978   1.369   3.205   9.160  0.0733 -0.5145 -0.4157
 4261TIP3    H236979   1.505   3.239   9.218 -0.1375 -0.7961  0.2531
 4262TIP3   OH236980   3.850   1.126   2.298  0.6317 -0.0409 -0.5865
 4262TIP3    H136981   3.936   1.088   2.277  0.8438 -1.5944  2.5697
 4262TIP3    H236982   3.813   1.067   2.364 -1.9948  1.7172 -0.3593
 4263TIP3   OH236983   0.336   3.024   1.462 -0.1413 -0.4115  0.0228
 4263TIP3    H136984   0.313   3.116   1.473  0.8039 -0.0640 -0.6872
 4263TIP3    H236985   0.269   2.976   1.509 -0.8339  0.6310  0.1291
 4264TIP3   OH236986   3.259   4.952   9.231  0.2304  0.0360  0.0957
 4264TIP3    H136987   3.266   4.866   9.272  1.1983 -0.7580 -1.6357
 4264TIP3    H236988   3.168   4.958   9.203 -0.9077  1.2480  3.5435
 4265TIP3   OH236989   1.299   0.860   8.440 -0.2567 -0.3586  0.6784
 4265TIP3    H136990   1.252   0.887   8.361 -2.1886  0.9491  2.1769
 4265TIP3    H236991   1.330   0.771   8.421 -0.7375 -0.1248 -1.4707
 4266TIP3   OH236992   5.584   6.624   8.048  0.4417  0.1693  0.5039
 4266TIP3    H136993   5.610   6.631   8.140 -1.0301 -1.9081  1.1757
 4266TIP3    H236994   5.575   6.529   8.033 -1.2171  0.5234 -1.2021
 4267TIP3   OH236995   2.718   3.515   9.018  0.3004  0.2503  0.2800
 4267TIP3    H136996   2.626   3.496   8.999  0.1687  0.2762  0.8631
 4267TIP3    H236997   2.743   3.582   8.954  0.7589 -1.7918 -1.7760
 4268TIP3   OH236998   7.072   2.343   0.530  0.4720 -0.3901 -0.4637
 4268TIP3    H136999   6.992   2.362   0.580  0.2830 -1.1714 -0.4638
 4268TIP3    H237000   7.053   2.262   0.484  1.0705 -0.2825 -0.9095
 4269TIP3   OH237001   0.483   1.064   7.612  0.3082  0.5107 -0.2809
 4269TIP3    H137002   0.503   1.063   7.706  0.3992 -2.0492 -0.2537
 4269TIP3    H237003   0.395   1.028   7.605  0.2513  0.7910 -1.1760
 4270TIP3   OH237004   6.460   2.900   1.431 -0.3708 -0.1379  0.2036
 4270TIP3    H137005   6.476   2.879   1.523 -0.1136 -0.6138  0.0461
 4270TIP3    H237006   6.418   2.822   1.395  0.5213 -0.3592 -0.3580
 4271TIP3   OH237007   6.849   6.087   0.749  0.2478 -0.1146  0.3596
 4271TIP3    H137008   6.884   6.176   0.746  0.1483 -0.0292  1.2360
 4271TIP3    H237009   6.857   6.062   0.841 -1.1927 -0.4168  0.4267
 4272TIP3   OH237010   3.853   3.462   9.472 -0.1835  0.9514  0.3986
 4272TIP3    H137011   3.763   3.492   9.455 -0.2782 -0.7175 -2.8775
 4272TIP3    H237012   3.868   3.395   9.406  2.9981  0.0879  1.8426
 4273TIP3   OH237013   0.550   2.431   8.745 -0.7069 -0.0493 -0.4262
 4273TIP3    H137014   0.633   2.477   8.756 -1.0149  0.1317  1.4705
 4273TIP3    H237015   0.509   2.473   8.669  1.2746 -0.7536 -1.9979
 4274TIP3   OH237016   1.820   1.536   9.690  0.3254 -0.3240  0.0736
 4274TIP3    H137017   1.779   1.614   9.727 -0.1013 -0.9654  0.9679
 4274TIP3    H237018   1.914   1.557   9.688  0.0896  0.7506 -1.0381
 4275TIP3   OH237019   1.152   6.829   9.199 -0.0540 -0.0200  0.3647
 4275TIP3    H137020   1.077   6.853   9.254  1.0190 -0.8259  2.2659
 4275TIP3    H237021   1.112   6.804   9.115 -2.3683 -3.6105  2.2692
 4276TIP3   OH237022   5.753   0.926   0.802 -0.1768  0.0381  0.0091
 4276TIP3    H137023   5.767   0.971   0.885 -1.7467 -0.4040  0.5507
 4276TIP3    H237024   5.747   0.996   0.737  2.0860  0.3469  0.0495
 4277TIP3   OH237025   5.413   0.357   9.936  0.2332 -0.6356 -0.1599
 4277TIP3    H137026   5.445   0.310  10.013 -2.2752 -0.3730  1.1309
 4277TIP3    H237027   5.454   0.312   9.862  0.7020 -2.5516  1.1910
 4278TIP3   OH237028   0.263   5.210   7.182 -0.0214 -0.8458 -0.1635
 4278TIP3    H137029   0.339   5.237   7.131 -0.9485  0.9785 -0.6735
 4278TIP3    H237030   0.202   5.174   7.117 -0.6062  0.0996 -0.1583
 4279TIP3   OH237031   6.212   4.899   8.847  0.3973 -0.3160  0.5364
 4279TIP3    H137032   6.223   4.808   8.820  0.0383 -0.9502  2.3817
 4279TIP3    H237033   6.120   4.906   8.872  0.7674  0.1146  1.8611
 4280TIP3   OH237034   5.927   2.658   2.154  0.0433 -0.1169 -0.6058
 4280TIP3    H137035   5.989   2.666   2.081 -0.1229  1.7491 -0.6079
 4280TIP3    H237036   5.983   2.640   2.230  0.4909  0.3550 -0.8113
 4281TIP3   OH237037   0.858   1.909   8.061 -0.3281  0.2527 -0.3783
 4281TIP3    H137038   0.777   1.953   8.032 -0.7977  0.2467  0.8561
 4281TIP3    H237039   0.829   1.825   8.096  0.3287 -0.1399 -0.7579
 4282TIP3   OH237040   5.384   0.265   1.611 -0.5798 -0.4306 -0.5327
 4282TIP3    H137041   5.387   0.171   1.628 -2.0751 -0.4273 -0.1265
 4282TIP3    H237042   5.436   0.305   1.681 -0.0780 -0.9322 -0.6145
 4283TIP3   OH237043   4.373   1.643   0.619  0.0169 -0.3482  0.1057
 4283TIP3    H137044   4.439   1.660   0.552  0.2407 -1.4712  0.0283
 4283TIP3    H237045   4.289   1.657   0.575  0.1667  1.3579  0.2748
 4284TIP3   OH237046   2.106   6.496   1.313 -0.4096  0.2409  0.1988
 4284TIP3    H137047   2.155   6.472   1.392  0.5340  1.6282  0.0753
 4284TIP3    H237048   2.089   6.413   1.270  0.8973 -0.3837  0.8203
 4285TIP3   OH237049   4.910   1.213   7.736 -0.3014 -0.5212  0.2077
 4285TIP3    H137050   4.838   1.234   7.676  0.2214  1.3384  0.1579
 4285TIP3    H237051   4.879   1.245   7.821  0.1114 -0.5071  0.3535
 4286TIP3   OH237052   4.552   2.123   9.701  0.2106 -0.1703 -0.3577
 4286TIP3    H137053   4.582   2.061   9.768 -0.4811  0.7087  0.8156
 4286TIP3    H237054   4.592   2.206   9.727 -1.2672  0.4991 -0.1452
 4287TIP3   OH237055   5.277   2.297   0.700  0.3168  0.0830 -0.1857
 4287TIP3    H137056   5.325   2.247   0.766 -0.0638  0.4025  0.3486
 4287TIP3    H237057   5.273   2.386   0.735 -1.9600 -0.2292  0.5677
 4288TIP3   OH237058   1.645   0.875   7.080  0.2067  0.2828  0.3069
 4288TIP3    H137059   1.617   0.792   7.117  2.0175 -1.0198 -1.0809
 4288TIP3    H237060   1.627   0.867   6.986  1.0470  1.1613  0.0486
 4289TIP3   OH237061   1.546   5.330   0.553  0.8382 -0.0432 -0.4663
 4289TIP3    H137062   1.505   5.245   0.567  0.3648  0.3502  0.6987
 4289TIP3    H237063   1.478   5.394   0.576  1.2467  0.6527 -1.1296
 4290TIP3   OH237064   4.409   5.083   6.424 -0.1151 -0.2675 -0.3716
 4290TIP3    H137065   4.446   5.168   6.402  0.8152 -0.9644 -1.6503
 4290TIP3    H237066   4.315   5.092   6.410 -0.1099  0.7314  0.1774
 4291TIP3   OH237067   3.963   6.309   0.946  0.4403 -0.1144  0.4355
 4291TIP3    H137068   3.928   6.324   1.033  1.8747  1.4039  0.7915
 4291TIP3    H237069   4.027   6.239   0.957  0.3458 -0.1852  0.5275
 4292TIP3   OH237070   6.598   3.627   9.022  0.1547 -0.5985  0.0666
 4292TIP3    H137071   6.572   3.618   9.113  0.0461 -0.7719  0.0168
 4292TIP3    H237072   6.688   3.593   9.019 -0.3478 -1.9404 -0.1773
 4293TIP3   OH237073   0.727   7.239   8.067  0.1579  0.1863 -0.1136
 4293TIP3    H137074   0.714   7.217   8.159  0.2172  1.9651  0.3433
 4293TIP3    H237075   0.689   7.326   8.057  1.1595  0.4930 -1.5170
 4294TIP3   OH237076   5.788   0.728   8.224  0.2317  0.1919  0.0934
 4294TIP3    H137077   5.845   0.694   8.155  0.5351 -0.7466  0.7817
 4294TIP3    H237078   5.847   0.747   8.297 -0.3389 -1.2210  0.9756
 4295TIP3   OH237079   6.120   4.724   1.376  0.4055 -0.4092 -0.7452
 4295TIP3    H137080   6.037   4.678   1.364 -0.7821  1.3323  0.4228
 4295TIP3    H237081   6.161   4.680   1.451 -0.9524  0.6251  0.6849
 4296TIP3   OH237082   3.269   2.162   8.608  0.0519  0.1428 -0.3254
 4296TIP3    H137083   3.291   2.206   8.526 -0.8688 -0.1517 -0.7464
 4296TIP3    H237084   3.243   2.074   8.582  0.4593 -0.1933  0.3617
 4297TIP3   OH237085   5.762   6.847   9.741  0.8153 -0.0896  0.3919
 4297TIP3    H137086   5.758   6.773   9.803 -0.4676 -0.9140 -0.6297
 4297TIP3    H237087   5.670   6.871   9.727  1.0889  0.1300 -1.1331
 4298TIP3   OH237088   4.610   6.397   0.894 -0.3032  0.5071  0.1653
 4298TIP3    H137089   4.520   6.365   0.891 -0.7488  1.7835 -0.6937
 4298TIP3    H237090   4.654   6.354   0.820 -0.3127  0.2531  0.3029
 4299TIP3   OH237091   6.987   3.862   1.840  0.2378  0.0441  0.0034
 4299TIP3    H137092   7.039   3.931   1.800 -1.0917  1.1156  0.0381
 4299TIP3    H237093   6.954   3.810   1.765  0.2555  0.1810 -0.0994
 4300TIP3   OH237094   0.467   4.823   3.326  0.4955  0.4608  0.0706
 4300TIP3    H137095   0.563   4.823   3.330  0.5219  1.9473  0.0602
 4300TIP3    H237096   0.446   4.902   3.277 -0.7181 -0.5154 -1.0442
 4301TIP3   OH237097   1.775   3.964   7.900  0.1708 -0.1361  0.5580
 4301TIP3    H137098   1.793   3.898   7.833  1.7310  0.1607  0.6498
 4301TIP3    H237099   1.701   4.014   7.864  0.3057 -0.6301 -0.4605
 4302TIP3   OH237100   1.856   0.320   0.252  0.2153  0.4367  0.0038
 4302TIP3    H137101   1.825   0.229   0.256  0.1255  0.5161  1.2037
 4302TIP3    H237102   1.946   0.317   0.284  0.2258  0.7692  0.0085
 4303TIP3   OH237103   4.760   4.564   7.555 -0.2485  0.2501  0.8145
 4303TIP3    H137104   4.793   4.641   7.601 -1.9468  0.7342  1.3200
 4303TIP3    H237105   4.667   4.584   7.540 -0.3196 -0.9846 -0.5740
 4304TIP3   OH237106   6.212   6.741   1.572  0.1017  0.7831 -0.1549
 4304TIP3    H137107   6.220   6.832   1.600 -0.0434  0.4578  1.0057
 4304TIP3    H237108   6.213   6.691   1.654  0.5065 -0.2837 -0.7943
 4305TIP3   OH237109   0.102   1.713   7.977 -0.4632  0.6512 -0.4053
 4305TIP3    H137110   0.115   1.725   7.883 -0.9482  1.1505 -0.4097
 4305TIP3    H237111   0.012   1.680   7.986 -0.4438  0.6699 -0.1090
 4306TIP3   OH237112   7.248   6.879   7.315 -0.2644 -0.2106 -0.7737
 4306TIP3    H137113   7.276   6.788   7.318 -1.3775 -0.5437  0.2226
 4306TIP3    H237114   7.303   6.919   7.247  1.4735 -1.1794  0.0165
 4307TIP3   OH237115   3.627   1.562   8.869 -0.6919  0.3123  0.3348
 4307TIP3    H137116   3.652   1.479   8.910  1.8837  0.5729 -0.5754
 4307TIP3    H237117   3.587   1.612   8.940  0.3705 -0.6060  1.6457
 4308TIP3   OH237118   0.862   3.125   8.096  0.2598  0.2420 -0.0190
 4308TIP3    H137119   0.906   3.209   8.091 -1.5762  1.2106 -0.7024
 4308TIP3    H237120   0.796   3.136   8.165 -0.0326 -0.6205 -0.1471
 4309TIP3   OH237121   5.304   1.435   1.731 -0.1699 -0.0705 -0.0369
 4309TIP3    H137122   5.312   1.359   1.674 -0.5783  1.5750 -2.4317
 4309TIP3    H237123   5.381   1.489   1.710 -0.0672  0.3578  1.3575
 4310TIP3   OH237124   1.756   3.192   0.719 -0.0154 -0.6486 -0.3469
 4310TIP3    H137125   1.679   3.230   0.762 -0.9796 -2.3386 -0.5005
 4310TIP3    H237126   1.820   3.263   0.718 -1.8109  1.0504 -0.8750
 4311TIP3   OH237127   4.368   1.863   1.274 -0.2812 -0.6125  0.3503
 4311TIP3    H137128   4.389   1.808   1.349  2.3684 -1.0306 -0.5858
 4311TIP3    H237129   4.345   1.801   1.204  1.0350 -0.4991 -0.2185
 4312TIP3   OH237130   5.618   7.139   2.632 -0.4492  0.3549  0.4472
 4312TIP3    H137131   5.694   7.086   2.609  0.0710  1.0489  0.5248
 4312TIP3    H237132   5.631   7.160   2.725 -1.8765 -1.3587  1.0888
 4313TIP3   OH237133   1.306   0.813   8.738 -0.3395  0.3026 -0.4427
 4313TIP3    H137134   1.255   0.739   8.774  0.0199 -0.6005 -1.7363
 4313TIP3    H237135   1.315   0.793   8.645  0.0149  1.8598 -0.7616
 4314TIP3   OH237136   1.631   0.897   7.895 -0.0651  0.2014 -0.0025
 4314TIP3    H137137   1.592   0.822   7.941  1.2347 -0.5375 -0.0589
 4314TIP3    H237138   1.699   0.929   7.954  1.3119 -0.4670 -1.1621
 4315TIP3   OH237139   4.920   4.629   1.343 -0.4379 -0.3757 -0.5131
 4315TIP3    H137140   5.007   4.632   1.383 -0.6770  0.1144 -0.0176
 4315TIP3    H237141   4.889   4.720   1.347 -0.6356 -0.4015 -1.4372
 4316TIP3   OH237142   3.992   4.192   0.231 -0.7513  0.5787 -0.4296
 4316TIP3    H137143   3.986   4.209   0.137  1.1276  1.4069 -0.4548
 4316TIP3    H237144   3.904   4.165   0.257 -1.3451  0.4919 -2.3873
 4317TIP3   OH237145   5.482   2.972   8.761  0.1552 -0.2711 -0.4682
 4317TIP3    H137146   5.484   3.041   8.827  1.0351 -0.5064 -0.2445
 4317TIP3    H237147   5.541   2.904   8.794 -1.7111 -1.7742 -0.0249
 4318TIP3   OH237148   4.919   6.581   9.748  0.0895 -0.0304 -0.2068
 4318TIP3    H137149   4.940   6.646   9.815 -0.3868 -0.5399  0.4513
 4318TIP3    H237150   4.903   6.632   9.668  0.4037  0.5974  0.1288
 4319TIP3   OH237151   4.385   5.014   7.048  0.1602  0.4746  0.0138
 4319TIP3    H137152   4.444   4.939   7.039 -0.9721 -0.3028 -1.3544
 4319TIP3    H237153   4.308   4.991   6.997 -1.5954  1.2364  2.1158
 4320TIP3   OH237154   5.262   5.770   0.055 -0.8113 -0.8860  0.0469
 4320TIP3    H137155   5.212   5.689   0.054 -1.1144 -0.7924 -2.7902
 4320TIP3    H237156   5.352   5.743   0.073 -0.9578 -1.8518 -0.5834
 4321TIP3   OH237157   1.655   4.453   2.142 -0.3602  0.5137  0.0614
 4321TIP3    H137158   1.570   4.411   2.130  0.3545 -1.0326  0.1468
 4321TIP3    H237159   1.679   4.434   2.233 -0.1193  1.3454  0.1864
 4322TIP3   OH237160   0.753   2.400   9.410 -0.9184 -0.4910 -0.0549
 4322TIP3    H137161   0.844   2.393   9.379 -0.4817 -0.4827  1.1590
 4322TIP3    H237162   0.702   2.353   9.345  0.0053 -0.8119 -0.5712
 4323TIP3   OH237163   3.139   0.914   1.360  0.2614 -0.1502  0.0908
 4323TIP3    H137164   3.117   0.983   1.297  1.1899  0.2738  0.2198
 4323TIP3    H237165   3.084   0.840   1.333  0.9488 -0.1315 -1.5145
 4324TIP3   OH237166   5.580   2.869   9.106 -0.1196 -0.1197  0.0238
 4324TIP3    H137167   5.650   2.903   9.161  0.2624 -0.7742 -0.0482
 4324TIP3    H237168   5.624   2.818   9.039 -0.6855 -0.9335  0.2555
 4325TIP3   OH237169   5.348   4.136   7.252 -0.7127  0.0985 -0.3135
 4325TIP3    H137170   5.426   4.094   7.215 -0.4512 -0.0372  0.3844
 4325TIP3    H237171   5.348   4.111   7.344 -2.3504 -1.0776 -0.5860
 4326TIP3   OH237172   3.106   3.178   2.138 -0.2356 -0.0401  0.2212
 4326TIP3    H137173   3.177   3.129   2.180 -0.6952 -0.0576  1.0060
 4326TIP3    H237174   3.058   3.217   2.211  0.3580  1.9641 -0.3822
 4327TIP3   OH237175   0.592   5.848   6.647 -0.1811  0.2621  0.2439
 4327TIP3    H137176   0.640   5.920   6.608 -0.7734  0.3191 -0.4003
 4327TIP3    H237177   0.660   5.791   6.684  0.3154  0.8519  0.2509
 4328TIP3   OH237178   6.697   3.745   0.670 -0.4374 -0.6135  0.5114
 4328TIP3    H137179   6.653   3.662   0.650  0.1369 -0.7523 -0.2387
 4328TIP3    H237180   6.776   3.719   0.717  1.2134 -0.7794 -2.1173
 4329TIP3   OH237181   2.203   4.691   7.686 -0.2442 -0.3749  0.2721
 4329TIP3    H137182   2.192   4.634   7.610  1.5623 -1.7800  1.0009
 4329TIP3    H237183   2.203   4.779   7.649 -0.2705 -0.9778 -1.2528
 4330TIP3   OH237184   3.146   3.522   9.574  0.0124  0.0673  0.7386
 4330TIP3    H137185   3.161   3.487   9.662 -1.1660  0.2328  1.0251
 4330TIP3    H237186   3.063   3.569   9.581  0.6328  1.3384 -0.1102
 4331TIP3   OH237187   3.229   1.407   0.342 -0.2606  0.5068  0.1847
 4331TIP3    H137188   3.243   1.322   0.385 -1.4842 -0.4422 -1.2043
 4331TIP3    H237189   3.236   1.387   0.249 -2.1990  1.5994 -0.2385
 4332TIP3   OH237190   4.412   0.797   7.509  0.4161  0.4828 -0.2532
 4332TIP3    H137191   4.325   0.759   7.496  0.5342  0.3756 -0.7520
 4332TIP3    H237192   4.471   0.739   7.461  0.5346  1.5564 -1.4476
 4333TIP3   OH237193   3.080   4.393   8.111 -0.2486 -0.6296  0.0301
 4333TIP3    H137194   3.076   4.319   8.172  2.4006 -2.2822 -1.6047
 4333TIP3    H237195   3.060   4.469   8.165 -3.0508 -2.4173  1.8193
 4334TIP3   OH237196   2.586   5.168   6.503  0.0710  0.1545  0.0061
 4334TIP3    H137197   2.566   5.152   6.411 -1.4510 -1.2107  0.5312
 4334TIP3    H237198   2.579   5.263   6.512 -2.5497  0.1161 -0.7352
 4335TIP3   OH237199   2.025   7.161   1.968  0.3641  0.0470  1.1041
 4335TIP3    H137200   2.061   7.198   1.887  0.4077 -1.8799  0.1872
 4335TIP3    H237201   2.044   7.068   1.962 -1.4979 -0.4718  2.3452
 4336TIP3   OH237202   3.465   4.266   0.556 -0.1117  0.1372  0.2110
 4336TIP3    H137203   3.394   4.325   0.529  1.1544  1.3505 -0.5709
 4336TIP3    H237204   3.424   4.180   0.559 -1.0673  0.3509 -2.8193
 4337TIP3   OH237205   6.854   5.634   7.537  0.1425 -0.2218  0.0026
 4337TIP3    H137206   6.921   5.572   7.507 -0.5153 -0.7611 -0.3725
 4337TIP3    H237207   6.785   5.578   7.572 -0.7991  0.2719 -1.0239
 4338TIP3   OH237208   4.438   1.916   8.072 -0.2161  0.1034 -0.4889
 4338TIP3    H137209   4.425   2.009   8.091  1.9978  0.2441  0.6711
 4338TIP3    H237210   4.490   1.915   7.991 -0.7538 -0.1605 -0.8367
 4339TIP3   OH237211   3.538   4.089   9.706  0.1497  0.1266 -1.0015
 4339TIP3    H137212   3.622   4.048   9.728 -0.1118  0.3021  0.4211
 4339TIP3    H237213   3.507   4.040   9.630  0.2518 -1.7887  0.1312
 4340TIP3   OH237214   3.271   3.022   1.932 -0.6505 -0.2785 -0.3621
 4340TIP3    H137215   3.176   3.030   1.943 -0.4233  0.9679  0.9612
 4340TIP3    H237216   3.306   3.022   2.021  0.5495 -1.9659 -0.7648
 4341TIP3   OH237217   6.521   1.274   2.126 -0.0196  0.0308 -0.2066
 4341TIP3    H137218   6.572   1.349   2.095  1.3605 -0.2312  1.2875
 4341TIP3    H237219   6.511   1.290   2.220 -0.5577 -1.1843 -0.0382
 4342TIP3   OH237220   4.627   3.713   1.883  0.3450 -0.2415  0.7759
 4342TIP3    H137221   4.655   3.770   1.812  0.6403 -2.7472 -1.2234
 4342TIP3    H237222   4.546   3.754   1.915 -0.1700  0.6413 -1.4534
 4343TIP3   OH237223   4.947   4.493   1.103 -0.3459  0.0455  0.2069
 4343TIP3    H137224   4.855   4.483   1.080 -0.4310 -0.5182  0.7813
 4343TIP3    H237225   4.947   4.502   1.199 -0.0087  2.3721  0.0547
 4344TIP3   OH237226   2.690   6.319   7.338 -0.3072 -0.2289  0.2273
 4344TIP3    H137227   2.623   6.277   7.285  0.2113  1.8558 -2.3011
 4344TIP3    H237228   2.642   6.383   7.392 -0.4607  1.3496 -1.6697
 4345TIP3   OH237229   3.037   5.017   2.073 -0.3279  0.5614 -0.4553
 4345TIP3    H137230   3.072   4.965   2.145 -0.9258 -0.9522 -1.2268
 4345TIP3    H237231   3.100   5.088   2.062  0.9476 -0.4511  0.0864
 4346TIP3   OH237232   0.076   0.916   2.128  0.0360  0.2302  0.0474
 4346TIP3    H137233   0.092   0.851   2.197 -0.0772  1.0050  0.8169
 4346TIP3    H237234   0.136   0.892   2.058 -0.0586 -0.7542  0.2899
 4347TIP3   OH237235   4.363   0.448   7.596 -0.2103 -0.1627  0.2474
 4347TIP3    H137236   4.283   0.459   7.544 -0.8588 -1.5447  0.8934
 4347TIP3    H237237   4.332   0.436   7.686  0.6111 -1.9062  0.3457
 4348TIP3   OH237238   0.151   1.586   7.535 -0.2156 -0.0979 -0.2394
 4348TIP3    H137239   0.172   1.493   7.526  1.7066  0.2955 -0.3165
 4348TIP3    H237240   0.172   1.623   7.449  1.8145  0.8485  0.6115
 4349TIP3   OH237241   3.317   4.612   7.453  0.0874 -0.0366 -0.1149
 4349TIP3    H137242   3.324   4.610   7.358  0.4109  1.1486 -0.1312
 4349TIP3    H237243   3.252   4.681   7.471 -0.4657 -0.7002  0.5062
 4350TIP3   OH237244   2.115   1.197   0.430 -0.1396 -0.2379 -0.0035
 4350TIP3    H137245   2.055   1.173   0.500  1.0416  1.1005  1.5313
 4350TIP3    H237246   2.202   1.175   0.463  0.4081  0.0197 -1.2139
 4351TIP3   OH237247   1.813   1.287   9.858 -0.1357 -0.1521  0.1439
 4351TIP3    H137248   1.817   1.383   9.850 -0.6631 -0.1953 -0.8441
 4351TIP3    H237249   1.887   1.256   9.805 -0.4889 -0.3080 -0.2657
 4352TIP3   OH237250   0.288   7.111   0.299 -0.3714 -0.3030  0.6239
 4352TIP3    H137251   0.337   7.037   0.335  1.0936 -0.5414 -1.6478
 4352TIP3    H237252   0.198   7.078   0.291  0.4742 -2.4153 -1.5347
 4353TIP3   OH237253   5.659   3.458   9.162 -0.1682 -0.3919  0.2846
 4353TIP3    H137254   5.564   3.462   9.176 -0.0281  2.4028  0.9646
 4353TIP3    H237255   5.669   3.464   9.067 -0.7115  3.4948  0.3027
 4354TIP3   OH237256   5.634   4.489   9.744 -0.0719 -0.2783  0.0014
 4354TIP3    H137257   5.595   4.564   9.790  0.2493 -0.9508  1.4118
 4354TIP3    H237258   5.721   4.520   9.719 -0.2180  0.0724 -0.0845
 4355TIP3   OH237259   0.724   6.501   8.787  0.6118 -0.1660  0.0458
 4355TIP3    H137260   0.800   6.469   8.837  0.0411  0.8259  1.6210
 4355TIP3    H237261   0.726   6.596   8.801  0.0620  0.0583 -1.3380
 4356TIP3   OH237262   5.127   4.992   8.277 -0.1453  0.4928 -0.1100
 4356TIP3    H137263   5.164   4.959   8.196 -0.6004  0.4350 -0.2975
 4356TIP3    H237264   5.182   5.067   8.301 -1.8729  2.6214 -2.2122
 4357TIP3   OH237265   1.397   2.383   1.963  0.1790 -0.0823 -0.4825
 4357TIP3    H137266   1.387   2.307   2.021  0.0032  2.3034  2.8893
 4357TIP3    H237267   1.483   2.370   1.923 -0.1838 -2.4161 -0.6417
 4358TIP3   OH237268   0.886   1.477   0.047 -0.3314  0.0629  0.1692
 4358TIP3    H137269   0.918   1.500   0.134 -0.4409 -0.4024  0.3307
 4358TIP3    H237270   0.851   1.559   0.012 -2.9816 -0.3241  1.6929
 4359TIP3   OH237271   4.418   0.741   0.920  0.0967 -0.1409 -0.5539
 4359TIP3    H137272   4.334   0.711   0.954 -0.8332  2.5544 -0.2194
 4359TIP3    H237273   4.473   0.751   0.998  0.2327 -0.4479 -0.6088
 4360TIP3   OH237274   4.426   6.854   7.882 -0.5594 -0.0494  0.2771
 4360TIP3    H137275   4.331   6.856   7.869 -0.3827 -0.2975 -1.2950
 4360TIP3    H237276   4.462   6.899   7.805  0.5776  0.9983  1.3657
 4361TIP3   OH237277   5.209   3.969   9.953 -0.2681 -0.1463  0.6065
 4361TIP3    H137278   5.154   4.002   9.881 -1.5353 -0.8521  1.2150
 4361TIP3    H237279   5.147   3.948  10.022  0.9370  0.4976  1.9242
 4362TIP3   OH237280   5.745   6.268   0.156 -0.0454 -0.5890 -0.2377
 4362TIP3    H137281   5.815   6.206   0.134  0.5042  0.4275 -1.4813
 4362TIP3    H237282   5.790   6.345   0.191 -0.5571 -0.0529 -0.7346
 4363TIP3   OH237283   6.920   0.161   8.370  0.0220 -0.0950  0.2721
 4363TIP3    H137284   6.987   0.200   8.426  1.3096 -0.1248 -1.1867
 4363TIP3    H237285   6.948   0.070   8.360 -1.5500 -0.7530  1.5553
 4364TIP3   OH237286   6.727   4.168   7.574  0.1105 -0.4124  0.0384
 4364TIP3    H137287   6.776   4.250   7.564 -1.8491  0.6700 -1.3755
 4364TIP3    H237288   6.674   4.182   7.653 -2.2295  0.8888 -1.6420
 4365TIP3   OH237289   5.532   1.035   9.164 -0.1606 -0.1693  0.3448
 4365TIP3    H137290   5.463   1.001   9.220  0.9456  0.5510  2.2581
 4365TIP3    H237291   5.558   1.117   9.206  1.2437  0.0183 -0.8151
 4366TIP3   OH237292   5.050   0.980   7.625  0.2146 -1.0559  0.4192
 4366TIP3    H137293   5.035   0.946   7.537  0.7711  0.3733 -0.2517
 4366TIP3    H237294   5.000   1.062   7.628  1.7549 -0.0917  0.7397
 4367TIP3   OH237295   4.411   5.594   0.834 -0.3239  0.7237 -0.2033
 4367TIP3    H137296   4.385   5.564   0.747 -1.7831  1.5581 -0.0888
 4367TIP3    H237297   4.506   5.582   0.836 -0.5569 -1.7511 -0.9430
 4368TIP3   OH237298   0.160   0.793   2.359  0.4932 -0.8482  0.1322
 4368TIP3    H137299   0.240   0.739   2.358  1.2926  0.2065  2.0695
 4368TIP3    H237300   0.092   0.735   2.393  0.7226 -1.3750 -0.2853
 4369TIP3   OH237301   6.855   3.040   3.110 -0.0769 -0.6499  0.6553
 4369TIP3    H137302   6.820   3.043   3.199  0.4731 -1.2226  0.8959
 4369TIP3    H237303   6.899   2.955   3.104  0.9837 -0.0974  0.2566
 4370TIP3   OH237304   4.303   3.962   0.187  0.5199 -0.0897 -0.4478
 4370TIP3    H137305   4.217   3.920   0.188  0.4649 -0.0166 -1.2668
 4370TIP3    H237306   4.365   3.890   0.203  0.3172 -0.1579  0.0488
 4371TIP3   OH237307   0.368   5.064   2.617  0.3275  0.1145  0.2045
 4371TIP3    H137308   0.407   5.085   2.702 -0.6949 -0.8147  0.9312
 4371TIP3    H237309   0.387   5.140   2.562 -0.5308  1.5330  1.7770
 4372TIP3   OH237310   5.639   3.838   7.136 -0.1895  0.7646  0.7478
 4372TIP3    H137311   5.586   3.809   7.210 -0.8026  1.8052  0.7414
 4372TIP3    H237312   5.629   3.933   7.135  1.3061  0.9427  0.4516
 4373TIP3   OH237313   6.662   2.376   1.633 -0.0324 -0.3574 -0.7309
 4373TIP3    H137314   6.650   2.461   1.590  1.5599 -0.2144 -0.9533
 4373TIP3    H237315   6.636   2.392   1.724 -3.3562 -0.6359 -1.4865
 4374TIP3   OH237316   7.028   7.271   2.064 -0.2126 -0.3913  0.3618
 4374TIP3    H137317   6.956   7.315   2.109  0.2731 -0.1795  0.9419
 4374TIP3    H237318   7.030   7.311   1.977 -1.9882 -1.6971 -0.3477
 4375TIP3   OH237319   7.129   2.795   7.460 -0.7084 -0.2381 -0.3086
 4375TIP3    H137320   7.055   2.853   7.475  0.0695  0.4663  0.9549
 4375TIP3    H237321   7.094   2.707   7.477 -1.8225 -0.1664 -1.9726
 4376TIP3   OH237322   1.580   4.291   9.865 -0.8180  0.8889 -0.6760
 4376TIP3    H137323   1.578   4.220   9.801 -0.2676  1.9289 -1.9063
 4376TIP3    H237324   1.521   4.263   9.934  1.2806 -1.9347  0.1610
 4377TIP3   OH237325   6.379   7.035   7.204 -0.2184 -0.4754 -0.3303
 4377TIP3    H137326   6.357   6.947   7.235 -0.2833  0.1943  1.6133
 4377TIP3    H237327   6.449   7.065   7.261 -2.4790  2.0362  1.3978
 4378TIP3   OH237328   7.201   2.407   1.340 -0.2730  0.5194 -0.1400
 4378TIP3    H137329   7.288   2.396   1.377 -0.4468  0.7429  0.3524
 4378TIP3    H237330   7.159   2.322   1.351  0.5307 -0.1886 -2.1686
 4379TIP3   OH237331   7.074   5.068   9.783  0.1148  0.5354 -0.3321
 4379TIP3    H137332   7.160   5.110   9.778 -0.1379  0.9407 -1.8565
 4379TIP3    H237333   7.012   5.140   9.770 -0.4318  0.1462  0.1027
 4380TIP3   OH237334   1.776   4.122   2.472  0.4368  0.3672 -0.2371
 4380TIP3    H137335   1.859   4.144   2.429  0.0435 -1.4022 -2.0267
 4380TIP3    H237336   1.802   4.073   2.551  1.1070  1.6646  0.3831
 4381TIP3   OH237337   1.408   5.537   1.910 -0.3602 -0.7501 -0.6976
 4381TIP3    H137338   1.470   5.518   1.980 -0.4068 -1.4008 -0.8224
 4381TIP3    H237339   1.435   5.479   1.838 -0.5248 -0.3416 -1.0896
 4382TIP3   OH237340   5.939   1.600   9.643  0.2253 -0.0631 -0.5763
 4382TIP3    H137341   5.974   1.557   9.565 -2.1080 -0.5080 -1.4406
 4382TIP3    H237342   5.927   1.529   9.706  0.4419  0.0149 -0.4465
 4383TIP3   OH237343   3.509   6.126   7.785 -0.0596  0.3346 -0.2534
 4383TIP3    H137344   3.515   6.031   7.774 -1.5997  0.3566 -1.6435
 4383TIP3    H237345   3.528   6.162   7.699 -1.3417  1.1842 -0.2099
 4384TIP3   OH237346   2.878   6.578   8.562  0.2982  0.1489 -0.0914
 4384TIP3    H137347   2.814   6.636   8.520  0.4497  1.2075  1.0947
 4384TIP3    H237348   2.848   6.490   8.540  1.0813  0.6058 -3.4995
 4385TIP3   OH237349   3.670   0.671   8.517  0.1744  0.0799  0.5735
 4385TIP3    H137350   3.613   0.660   8.593 -1.0127 -1.3841 -0.4703
 4385TIP3    H237351   3.748   0.715   8.551 -1.1230  1.1983  2.2574
 4386TIP3   OH237352   6.136   4.664   8.653 -0.1335  0.4569 -0.2078
 4386TIP3    H137353   6.066   4.638   8.713  0.1093  2.8854  1.2838
 4386TIP3    H237354   6.132   4.600   8.582 -3.3304  0.0084  0.2053
 4387TIP3   OH237355   2.584   7.026   9.722 -1.2830 -0.3234 -0.3563
 4387TIP3    H137356   2.560   6.937   9.697 -1.5509 -0.1466 -0.7494
 4387TIP3    H237357   2.579   7.027   9.818  0.3393 -1.1830 -0.2228
 4388TIP3   OH237358   6.288   1.541   6.914 -0.1908  0.3671  0.9480
 4388TIP3    H137359   6.283   1.455   6.872 -1.5238  0.9591 -0.1864
 4388TIP3    H237360   6.360   1.586   6.870 -1.3476  0.8520 -0.5051
 4389TIP3   OH237361   5.402   2.539   0.454  0.4130 -0.1734  0.1534
 4389TIP3    H137362   5.310   2.566   0.460  0.6801  0.4975  1.2893
 4389TIP3    H237363   5.399   2.457   0.404 -0.5511  1.1300 -2.0745
 4390TIP3   OH237364   5.590   1.369   8.109 -0.3209 -0.0464 -0.0190
 4390TIP3    H137365   5.642   1.290   8.126 -1.1315 -0.5574  0.1513
 4390TIP3    H237366   5.639   1.440   8.151  0.5631 -0.4100 -0.4144
 4391TIP3   OH237367   1.292   4.453   0.082  1.0400 -0.3020 -0.4053
 4391TIP3    H137368   1.278   4.462  -0.013  0.6054 -0.4318 -0.3569
 4391TIP3    H237369   1.208   4.480   0.120  1.2501 -0.1536 -0.0538
 4392TIP3   OH237370   1.784   4.413   1.882  0.4445 -0.0530  0.2558
 4392TIP3    H137371   1.747   4.340   1.832  1.4336 -2.1912  2.4280
 4392TIP3    H237372   1.730   4.417   1.962  1.2733  0.6720  0.7943
 4393TIP3   OH237373   1.703   5.389   8.402  0.5925 -0.1929 -0.1778
 4393TIP3    H137374   1.787   5.371   8.359  1.5414  0.6939  1.2305
 4393TIP3    H237375   1.690   5.315   8.461  0.4634 -0.2305 -0.2514
 4394TIP3   OH237376   2.459   7.146   9.527 -0.5214 -0.3672 -0.3204
 4394TIP3    H137377   2.477   7.240   9.528 -0.5858 -0.3588 -0.0532
 4394TIP3    H237378   2.519   7.109   9.591  0.4125 -0.6722 -1.3339
 4395TIP3   OH237379   0.895   4.318   8.325 -0.1702  0.3320  0.1839
 4395TIP3    H137380   0.900   4.226   8.351  2.6491  0.3277 -0.0878
 4395TIP3    H237381   0.866   4.364   8.404 -1.4232 -0.7255  0.3740
 4396TIP3   OH237382   5.262   4.092   0.585 -0.1398  0.7219 -0.4854
 4396TIP3    H137383   5.224   4.086   0.673 -0.8762  0.3245 -0.8234
 4396TIP3    H237384   5.244   4.182   0.558  0.0764  0.8419 -0.2378
 4397TIP3   OH237385   1.667   5.179   0.318 -0.2498 -0.4687 -0.2201
 4397TIP3    H137386   1.655   5.086   0.296 -0.4754 -0.5979  0.4162
 4397TIP3    H237387   1.583   5.220   0.299  0.1525 -0.1900 -1.4552
 4398TIP3   OH237388   5.706   2.055   0.677 -0.0452  0.2683 -0.0121
 4398TIP3    H137389   5.632   1.998   0.699 -1.1839  1.6334 -0.2010
 4398TIP3    H237390   5.727   2.032   0.586 -0.4764  0.1422 -0.0801
 4399TIP3   OH237391   4.948   4.671   1.956  0.6754  0.3274 -0.1447
 4399TIP3    H137392   5.030   4.713   1.981  0.5189  0.1059  0.7882
 4399TIP3    H237393   4.909   4.730   1.892  1.4536  0.5436 -0.4304
 4400TIP3   OH237394   7.085   1.211   7.826 -0.7309 -0.0716 -0.0093
 4400TIP3    H137395   7.012   1.185   7.770 -0.7610  0.7991 -0.3811
 4400TIP3    H237396   7.163   1.180   7.779 -0.7732  0.4147 -0.4126
 4401TIP3   OH237397   5.242   5.996   7.884  0.3628  0.2304  0.0330
 4401TIP3    H137398   5.213   6.076   7.928 -2.0379 -0.6719  0.2376
 4401TIP3    H237399   5.184   5.927   7.918  1.3320 -1.3195 -1.2962
 4402TIP3   OH237400   3.495   6.522   7.518  0.2055 -0.2432  0.0387
 4402TIP3    H137401   3.587   6.550   7.525 -0.0079  0.3694  0.4583
 4402TIP3    H237402   3.460   6.574   7.446  0.3489 -0.9470 -0.5538
 4403TIP3   OH237403   6.617   0.619   3.270  0.3421  0.3396  0.3900
 4403TIP3    H137404   6.601   0.713   3.262 -1.0229  0.1683  0.8544
 4403TIP3    H237405   6.707   0.608   3.240  0.1510  1.6298 -0.8061
 4404TIP3   OH237406   0.914   0.972   1.222  0.0400  0.2185  0.1466
 4404TIP3    H137407   0.977   1.039   1.194  0.2616 -0.1713 -0.3058
 4404TIP3    H237408   0.955   0.889   1.197  0.4445 -0.1873  2.0349
 4405TIP3   OH237409   6.730   5.971   8.876  0.1554  0.3518  0.0369
 4405TIP3    H137410   6.717   6.006   8.788  2.6561  1.1833 -0.1024
 4405TIP3    H237411   6.648   5.928   8.898 -0.3859 -0.3338 -2.9055
 4406TIP3   OH237412   7.262   6.718   0.546 -0.1891 -0.6518 -0.0719
 4406TIP3    H137413   7.188   6.659   0.557 -0.3568 -0.6560 -1.1287
 4406TIP3    H237414   7.281   6.750   0.634 -2.1448  0.1906  0.0944
 4407TIP3   OH237415   3.314   0.385   9.424  0.2067  0.2359  0.1629
 4407TIP3    H137416   3.283   0.465   9.382 -1.5221 -0.3286  0.2830
 4407TIP3    H237417   3.350   0.333   9.351 -3.6100 -1.1355 -0.9934
 4408TIP3   OH237418   3.824   5.966   9.917  0.2626 -0.5243  0.2543
 4408TIP3    H137419   3.846   6.042   9.863 -1.4644 -0.2752 -0.1786
 4408TIP3    H237420   3.838   5.890   9.860 -2.7522 -0.1996 -1.0997
 4409TIP3   OH237421   6.364   4.649   9.367 -0.2067 -0.1289  0.0991
 4409TIP3    H137422   6.295   4.688   9.421 -0.8329  0.1005 -0.8431
 4409TIP3    H237423   6.323   4.636   9.281  0.5478 -1.1586 -0.1307
 4410TIP3   OH237424   3.004   1.586   0.331 -0.3653 -0.1832  0.0274
 4410TIP3    H137425   3.083   1.533   0.336 -0.9556 -0.9595  1.9470
 4410TIP3    H237426   2.983   1.589   0.237  0.4717 -2.1432 -0.2705
 4411TIP3   OH237427   4.337   4.886   9.430 -0.2670 -0.6170  0.6547
 4411TIP3    H137428   4.278   4.956   9.456 -0.0312 -0.8606  1.9446
 4411TIP3    H237429   4.374   4.915   9.347 -2.9704 -0.9530 -0.7747
 4412TIP3   OH237430   4.770   5.567   7.430 -0.5970 -0.0131 -0.4546
 4412TIP3    H137431   4.783   5.660   7.412 -1.3556  0.0860 -0.5265
 4412TIP3    H237432   4.858   5.530   7.429 -0.3535  0.5603 -1.2157
 4413TIP3   OH237433   1.811   3.851   1.849 -0.3230  0.0949 -0.2892
 4413TIP3    H137434   1.823   3.843   1.755  1.4026 -1.8970  0.0229
 4413TIP3    H237435   1.725   3.813   1.866 -0.9422  1.0871 -1.0924
 4414TIP3   OH237436   3.970   6.413   8.674  0.2284  0.3459 -0.4724
 4414TIP3    H137437   3.897   6.357   8.697 -0.1297  0.4081 -1.4156
 4414TIP3    H237438   3.930   6.499   8.657  0.8545  1.1811  1.8058
 4415TIP3   OH237439   0.036   5.182   9.670 -0.3488  0.3194 -0.4047
 4415TIP3    H137440   0.131   5.197   9.665 -0.1634 -0.6659 -0.0234
 4415TIP3    H237441   0.025   5.088   9.654 -1.0027 -0.1259  2.2310
 4416TIP3   OH237442   4.448   2.356   1.814  0.3496  0.3707  0.2164
 4416TIP3    H137443   4.454   2.309   1.897  0.3695  1.0715  0.6218
 4416TIP3    H237444   4.444   2.287   1.748 -1.8619 -0.2821  0.9246
 4417TIP3   OH237445   1.735   1.011   1.872 -0.4517  0.2236  0.3855
 4417TIP3    H137446   1.683   0.992   1.793 -0.5424  0.0649  0.4806
 4417TIP3    H237447   1.822   0.979   1.851 -0.1727  1.2535 -0.0903
 4418TIP3   OH237448   5.120   4.344   0.482  0.9457  0.4980 -0.9256
 4418TIP3    H137449   5.115   4.433   0.518  0.2802  0.3327 -0.6025
 4418TIP3    H237450   5.038   4.333   0.435  0.7547 -0.1779 -0.4389
 4419TIP3   OH237451   6.419   5.086   8.224 -0.2961 -0.1536  0.2798
 4419TIP3    H137452   6.456   5.162   8.179  0.7724  0.1879  1.6604
 4419TIP3    H237453   6.422   5.110   8.317  0.0582 -1.8837  0.7435
 4420TIP3   OH237454   2.265   1.289   9.572 -0.2424 -0.1643 -0.1907
 4420TIP3    H137455   2.217   1.367   9.542  0.8898  1.1687  1.3291
 4420TIP3    H237456   2.335   1.278   9.508  0.0371  0.5321 -0.0149
 4421TIP3   OH237457   0.487   6.649   1.149  0.0910 -0.3542 -0.1382
 4421TIP3    H137458   0.527   6.595   1.218 -1.6591  1.0881  2.1611
 4421TIP3    H237459   0.557   6.708   1.122  1.1261 -1.6677 -0.4204
 4422TIP3   OH237460   4.625   2.029   0.676 -0.2982  0.4068  0.0229
 4422TIP3    H137461   4.591   2.057   0.761 -0.0700  0.2581  0.1642
 4422TIP3    H237462   4.650   1.937   0.689  1.6009  0.9370  0.3708
 4423TIP3   OH237463   2.029   7.082   8.826 -0.2229 -0.2867 -0.1096
 4423TIP3    H137464   2.073   7.167   8.822 -0.3568 -0.1418  1.0659
 4423TIP3    H237465   2.008   7.070   8.919 -2.9711 -0.1639 -0.6074
 4424TIP3   OH237466   0.317   0.025   2.610  0.0519  0.1055  0.1541
 4424TIP3    H137467   0.312   0.121   2.603  0.4654  0.0291 -1.8718
 4424TIP3    H237468   0.405   0.008   2.643 -0.7210  0.4346  2.5833
 4425TIP3   OH237469   3.879   0.108   0.966  0.2958 -0.0314  0.4361
 4425TIP3    H137470   3.858   0.199   0.985 -0.0496 -0.3607  1.7376
 4425TIP3    H237471   3.950   0.087   1.027 -0.2897 -0.9038  0.8349
 4426TIP3   OH237472   0.504   5.545   8.229  1.0006  0.0428  0.1415
 4426TIP3    H137473   0.542   5.617   8.280  1.7659 -0.6288  0.5510
 4426TIP3    H237474   0.567   5.531   8.158  0.4961  0.2420 -0.3458
 4427TIP3   OH237475   1.870   4.360   8.716 -0.4007 -0.0499 -0.6889
 4427TIP3    H137476   1.913   4.351   8.801 -0.6470 -2.0061 -0.7215
 4427TIP3    H237477   1.939   4.389   8.657  0.5821 -1.8112 -0.4585
 4428TIP3   OH237478   3.004   6.790   2.359  0.1780 -0.3229 -0.2044
 4428TIP3    H137479   2.947   6.737   2.414  0.5541  0.1911  0.7014
 4428TIP3    H237480   3.090   6.785   2.400  0.4853  0.0173 -0.7830
 4429TIP3   OH237481   3.745   7.276   8.883 -0.1609 -0.9039 -0.5699
 4429TIP3    H137482   3.816   7.334   8.911 -1.1175  0.9528 -1.8158
 4429TIP3    H237483   3.789   7.194   8.861  1.8830  0.6272 -2.7239
 4430TIP3   OH237484   2.502   6.892   2.849 -0.0450  0.1013 -0.1935
 4430TIP3    H137485   2.463   6.973   2.816 -0.2403  0.1356  0.1231
 4430TIP3    H237486   2.456   6.823   2.802  0.2408  0.1769 -0.5923
 4431TIP3   OH237487   3.220   0.060   7.473  0.2745 -0.5204  0.4263
 4431TIP3    H137488   3.129   0.032   7.484 -0.2122  0.0128 -1.7418
 4431TIP3    H237489   3.266  -0.019   7.444  0.6930 -0.9599  2.1883
 4432TIP3   OH237490   3.203   1.466   7.508  0.1921  0.1793 -0.3111
 4432TIP3    H137491   3.185   1.376   7.483  0.9650 -0.4777  1.3367
 4432TIP3    H237492   3.245   1.504   7.431 -2.6900  0.0685 -2.1187
 4433TIP3   OH237493   5.507   5.649   2.004  0.0875  0.0530  0.0534
 4433TIP3    H137494   5.480   5.557   2.003 -1.8237  0.5263  1.4239
 4433TIP3    H237495   5.508   5.674   1.912 -4.4106 -0.0830 -0.2601
 4434TIP3   OH237496   2.149   1.760   9.968  0.5371  0.1810 -0.2121
 4434TIP3    H137497   2.120   1.846   9.998  0.7281  0.0882  0.2456
 4434TIP3    H237498   2.099   1.697  10.021  1.0953  0.0188  0.1313
 4435TIP3   OH237499   5.134   3.312   0.750  0.1644  0.4462 -0.2533
 4435TIP3    H137500   5.040   3.301   0.763 -0.0391 -0.2713 -2.0173
 4435TIP3    H237501   5.156   3.247   0.683  1.7513  1.2294 -0.5296
 4436TIP3   OH237502   2.680   1.424   1.788  0.1885 -0.2780  0.4930
 4436TIP3    H137503   2.620   1.496   1.770  0.5527 -0.1797 -0.4001
 4436TIP3    H237504   2.632   1.366   1.848 -0.1728  0.6064  1.0791
 4437TIP3   OH237505   6.712   5.973   0.326  0.1263  0.4112  0.6842
 4437TIP3    H137506   6.741   5.893   0.282  0.5924  0.7363  0.4106
 4437TIP3    H237507   6.782   6.036   0.312 -1.3246  1.7048 -1.3096
 4438TIP3   OH237508   2.422   1.756   8.451  0.1545 -0.3334  0.1564
 4438TIP3    H137509   2.410   1.843   8.414 -1.1477 -1.1711 -1.5271
 4438TIP3    H237510   2.517   1.749   8.464  0.3265  1.1601 -0.1278
 4439TIP3   OH237511   6.306   4.128   9.067  0.0413 -0.0264  0.4915
 4439TIP3    H137512   6.328   4.071   8.993 -0.9936  0.1660  0.0177
 4439TIP3    H237513   6.364   4.099   9.137  0.9958 -0.2496 -0.3763
 4440TIP3   OH237514   6.852   3.046   7.993  0.0092 -0.3577 -0.7244
 4440TIP3    H137515   6.868   3.009   7.906  1.6244 -0.4386 -0.4246
 4440TIP3    H237516   6.839   2.970   8.050  1.9492 -0.4762 -0.3689
 4441TIP3   OH237517   5.950   4.392   1.900 -0.2711  0.0354  0.0077
 4441TIP3    H137518   5.922   4.480   1.874 -0.9411 -0.0247  0.5067
 4441TIP3    H237519   6.035   4.381   1.857 -0.8617  0.3414 -1.2732
 4442TIP3   OH237520   1.949   5.618   2.567 -0.4998  0.1245  0.5431
 4442TIP3    H137521   1.871   5.658   2.604 -0.7341  0.0819  0.0989
 4442TIP3    H237522   1.917   5.544   2.517 -0.1873  0.1726  0.2664
 4443TIP3   OH237523   0.827   1.646   9.337  0.1745 -0.3605 -0.1414
 4443TIP3    H137524   0.878   1.719   9.303 -1.3741 -0.1820 -2.2406
 4443TIP3    H237525   0.748   1.685   9.373 -0.1893 -0.9220 -0.3124
 4444TIP3   OH237526   4.022   5.526   9.847 -0.6735  0.1376  0.7725
 4444TIP3    H137527   4.069   5.603   9.816 -1.7207 -0.0286 -1.4708
 4444TIP3    H237528   4.086   5.478   9.900  0.6573  1.4665  0.4372
 4445TIP3   OH237529   0.382   1.018   9.753  0.1329  0.2266  0.0919
 4445TIP3    H137530   0.375   1.113   9.768  0.7559  0.6100 -1.8382
 4445TIP3    H237531   0.309   0.997   9.695 -0.3245 -0.6120  0.9345
 4446TIP3   OH237532   1.727   0.887   7.398 -0.4105 -0.6117 -0.0418
 4446TIP3    H137533   1.679   0.824   7.343  1.4834 -0.9304 -1.4000
 4446TIP3    H237534   1.729   0.845   7.485 -0.3991 -1.7704 -0.5800
 4447TIP3   OH237535   1.455   4.314   1.559  0.2821 -0.2813  0.2410
 4447TIP3    H137536   1.514   4.283   1.490  0.2985 -0.6938  0.4428
 4447TIP3    H237537   1.501   4.294   1.641 -0.8810 -2.2081  0.4846
 4448TIP3   OH237538   3.234   3.626   8.317  0.8089 -0.4156  0.8859
 4448TIP3    H137539   3.177   3.586   8.383  0.0982 -2.6424 -0.9412
 4448TIP3    H237540   3.227   3.569   8.241  2.6319  1.3008 -0.7067
 4449TIP3   OH237541   5.664   0.171   9.277  0.3385 -0.5867 -0.3532
 4449TIP3    H137542   5.640   0.264   9.280  0.5220 -0.4655 -1.9111
 4449TIP3    H237543   5.732   0.162   9.345  0.9537  0.6152 -0.7765
 4450TIP3   OH237544   7.193   5.714   7.482  0.2670  0.0307 -0.3781
 4450TIP3    H137545   7.177   5.718   7.388  1.5039  0.6797 -0.5826
 4450TIP3    H237546   7.215   5.803   7.507  0.5966 -0.2551  0.4050
 4451TIP3   OH237547   1.394   6.054   7.737  0.0521  0.4048  0.8029
 4451TIP3    H137548   1.481   6.083   7.708  0.0487 -0.6603 -0.3775
 4451TIP3    H237549   1.412   5.985   7.801  0.1442 -0.8590 -0.5144
 4452TIP3   OH237550   5.073   1.419   2.169  0.5763  0.2861  0.3373
 4452TIP3    H137551   5.100   1.402   2.079 -0.1924  0.1263  0.1270
 4452TIP3    H237552   5.068   1.333   2.209  0.4613  0.3180  0.3920
 4453TIP3   OH237553   7.049   1.200   8.653  0.1556  0.2725 -0.4853
 4453TIP3    H137554   7.034   1.117   8.697  0.4623  0.3018 -0.3252
 4453TIP3    H237555   7.107   1.178   8.580  1.7766  0.6383  0.6494
 4454TIP3   OH237556   7.140   2.132   7.075 -0.2311 -0.3798  0.2383
 4454TIP3    H137557   7.150   2.096   6.987 -0.3130  0.8793 -0.3008
 4454TIP3    H237558   7.049   2.159   7.080  0.4525  2.4524 -0.4829
 4455TIP3   OH237559   2.300   3.608   8.477 -0.0204 -0.1754  0.0317
 4455TIP3    H137560   2.232   3.562   8.526 -1.7864  0.9097 -1.2957
 4455TIP3    H237561   2.279   3.593   8.385  1.1027  0.8003 -0.4110
 4456TIP3   OH237562   5.824   6.458   7.352 -0.2625  0.1806  0.1408
 4456TIP3    H137563   5.744   6.414   7.325 -0.5530 -0.5210  2.0237
 4456TIP3    H237564   5.800   6.551   7.352 -0.4054  0.1756 -1.3588
 4457TIP3   OH237565   5.075   4.994   1.931 -0.0075  0.4720  0.5098
 4457TIP3    H137566   5.100   4.986   1.838  1.0886 -0.6585  0.8633
 4457TIP3    H237567   4.982   5.016   1.929  0.5856  3.3155 -0.8694
 4458TIP3   OH237568   0.178   4.408   2.447  0.4356  0.2569  0.4601
 4458TIP3    H137569   0.249   4.345   2.434 -1.6222 -2.0990 -0.1402
 4458TIP3    H237570   0.161   4.406   2.541 -0.2092 -0.8321  0.3361
 4459TIP3   OH237571   7.154   2.934   1.073  0.3204 -1.1297 -0.2562
 4459TIP3    H137572   7.192   2.975   1.151  0.0432  2.8341 -1.9587
 4459TIP3    H237573   7.220   2.871   1.045  1.6128 -0.7335  1.6764
 4460TIP3   OH237574   6.962   6.182   9.249  0.2057  0.1199 -0.3987
 4460TIP3    H137575   6.975   6.190   9.155  2.8789 -1.0617 -0.2284
 4460TIP3    H237576   6.955   6.088   9.265 -1.6320  0.3589  0.4959
 4461TIP3   OH237577   3.774   0.100   2.637  0.4625 -0.4375 -0.0915
 4461TIP3    H137578   3.688   0.137   2.617  1.2001  0.6437 -1.3925
 4461TIP3    H237579   3.765   0.066   2.726 -0.4433  2.4224  1.0335
 4462TIP3   OH237580   5.848   2.665   1.770  0.2189  0.5868 -0.0837
 4462TIP3    H137581   5.795   2.586   1.779  1.0301  0.0206 -0.1861
 4462TIP3    H237582   5.858   2.676   1.675  1.7552 -0.3256 -0.0482
 4463TIP3   OH237583   5.190   1.313   8.245 -0.0747 -0.6031 -0.1727
 4463TIP3    H137584   5.219   1.241   8.301  0.5971 -0.6958 -0.6364
 4463TIP3    H237585   5.230   1.391   8.283 -1.6476 -0.2870  0.9664
 4464TIP3   OH237586   0.851   5.369   7.145 -0.4006 -0.2918 -0.1583
 4464TIP3    H137587   0.878   5.419   7.068  3.6367  0.8769  1.7301
 4464TIP3    H237588   0.800   5.431   7.198 -2.0060 -0.6875 -1.1588
 4465TIP3   OH237589   5.652   1.593   2.422  0.1393  0.7943  0.3923
 4465TIP3    H137590   5.629   1.654   2.352  0.1064 -0.1843 -0.4656
 4465TIP3    H237591   5.718   1.640   2.474 -0.8466  2.0813  0.5509
 4466TIP3   OH237592   0.368   2.290   7.989  0.0346 -0.3623 -0.4438
 4466TIP3    H137593   0.274   2.271   7.989  0.2916 -2.3454  2.3764
 4466TIP3    H237594   0.404   2.230   7.924 -0.6384  0.8132 -1.9705
 4467TIP3   OH237595   2.788   5.638   1.741  0.2289 -0.7919 -0.0074
 4467TIP3    H137596   2.696   5.639   1.714  0.3389 -1.9357 -0.5387
 4467TIP3    H237597   2.814   5.546   1.730  1.1931 -0.6510  0.9750
 4468TIP3   OH237598   5.322   5.785   9.773 -0.0636 -0.5505  0.0336
 4468TIP3    H137599   5.288   5.786   9.862 -0.9297 -0.0224 -0.2961
 4468TIP3    H237600   5.406   5.830   9.779 -0.0430 -0.6609  0.6107
 4469TIP3   OH237601   5.971   6.898   8.186 -0.4282 -0.2078  0.4263
 4469TIP3    H137602   5.898   6.926   8.242  0.8053  1.7948  1.1268
 4469TIP3    H237603   6.037   6.967   8.196  0.5252 -0.6322 -2.2203
 4470TIP3   OH237604   4.361   5.816   7.355  0.3864  0.1335 -0.5430
 4470TIP3    H137605   4.367   5.794   7.262  0.5441 -0.3366 -0.4243
 4470TIP3    H237606   4.284   5.770   7.387  0.6541 -0.1652 -0.3165
 4471TIP3   OH237607   6.474   1.348   7.120  0.2069 -0.3736  0.4483
 4471TIP3    H137608   6.566   1.345   7.095 -0.0403 -0.8669 -0.4531
 4471TIP3    H237609   6.427   1.370   7.039 -0.2213  3.7230  1.5822
 4472TIP3   OH237610   6.793   1.313   8.192  0.1562  0.4974 -0.2440
 4472TIP3    H137611   6.762   1.289   8.104  1.9987 -1.5344 -0.4307
 4472TIP3    H237612   6.759   1.244   8.249  2.1165 -0.4019 -0.0689
 4473TIP3   OH237613   2.035   5.922   6.898 -0.0207  0.3991  0.3560
 4473TIP3    H137614   2.118   5.910   6.852  0.4681  2.0430  0.7179
 4473TIP3    H237615   1.968   5.910   6.831  0.6303  1.4139 -0.5116
 4474TIP3   OH237616   1.541   7.165   7.848 -0.7665  0.6053  0.5356
 4474TIP3    H137617   1.517   7.177   7.756  0.4574 -1.7264 -0.1753
 4474TIP3    H237618   1.523   7.249   7.889 -1.0006  1.8261 -1.9041
 4475TIP3   OH237619   1.806   5.276   7.267  0.1353  0.3179  0.5743
 4475TIP3    H137620   1.724   5.308   7.305 -1.1921 -2.2135  0.0501
 4475TIP3    H237621   1.870   5.283   7.339  0.0256  3.9784  0.4718
 4476TIP3   OH237622   4.031   1.465   1.556  0.2000  0.0115 -0.9011
 4476TIP3    H137623   4.005   1.373   1.553 -1.6900  0.5301 -1.5750
 4476TIP3    H237624   3.959   1.509   1.601  1.0546  1.1834 -0.6340
 4477TIP3   OH237625   6.447   1.778   2.204  0.0083 -0.3131  1.1706
 4477TIP3    H137626   6.457   1.873   2.213  0.4532 -0.1820 -0.4348
 4477TIP3    H237627   6.368   1.767   2.151 -0.0862 -0.8539  1.4129
 4478TIP3   OH237628   2.736   2.804   9.700 -0.0290 -0.4490 -0.0345
 4478TIP3    H137629   2.777   2.718   9.711  0.7857 -0.2682 -1.4042
 4478TIP3    H237630   2.679   2.814   9.776  1.9260 -1.0299  1.5906
 4479TIP3   OH237631   1.515   4.638   8.418 -0.6112 -0.3062  0.2370
 4479TIP3    H137632   1.565   4.591   8.351 -0.2792 -0.0806  0.3209
 4479TIP3    H237633   1.540   4.730   8.405  0.5670 -0.4043  1.5885
 4480TIP3   OH237634   6.894   0.707   7.817 -0.0522  0.1979  0.8057
 4480TIP3    H137635   6.930   0.621   7.838 -0.0334 -0.0584 -0.2153
 4480TIP3    H237636   6.944   0.768   7.872 -0.1063 -0.4420  1.5786
 4481TIP3   OH237637   0.658   2.621   8.013  0.4029  0.3381  0.4164
 4481TIP3    H137638   0.706   2.699   7.986  0.7426 -0.1015 -0.2653
 4481TIP3    H237639   0.722   2.550   8.009 -0.2838 -0.2542 -0.5050
 4482TIP3   OH237640   2.233   5.183   1.293  0.3036 -0.4472  0.5402
 4482TIP3    H137641   2.169   5.164   1.361 -0.8112 -0.0735 -0.3872
 4482TIP3    H237642   2.317   5.156   1.332 -0.6829 -3.6125  0.7656
 4483TIP3   OH237643   6.118   5.909   9.411 -0.0263  0.8773 -0.7066
 4483TIP3    H137644   6.125   5.842   9.343 -0.0027 -0.2957  0.4062
 4483TIP3    H237645   6.197   5.961   9.402 -0.8727  1.9577 -2.7609
 4484TIP3   OH237646   3.016   5.545   8.009 -0.2834 -0.3439  0.3954
 4484TIP3    H137647   2.969   5.474   8.054  0.5364 -2.0217 -1.2592
 4484TIP3    H237648   3.108   5.527   8.027 -0.0816  0.6529  0.4020
 4485TIP3   OH237649   2.848   4.298   0.727  0.1192  0.0757 -0.2563
 4485TIP3    H137650   2.821   4.355   0.800 -2.5075 -2.6363  1.1175
 4485TIP3    H237651   2.881   4.219   0.770 -1.4006 -1.5568 -1.9224
 4486TIP3   OH237652   2.431   6.383   1.163 -0.0943 -0.3915 -0.2768
 4486TIP3    H137653   2.507   6.428   1.125  0.3625 -0.9274 -0.0022
 4486TIP3    H237654   2.356   6.429   1.126  0.3532 -0.2053 -0.9826
 4487TIP3   OH237655   0.171   0.500   1.869  0.2827  1.0457 -0.1311
 4487TIP3    H137656   0.249   0.506   1.924 -0.5055 -0.7181  1.2763
 4487TIP3    H237657   0.102   0.544   1.919 -0.6785 -1.4324  0.8495
 4488TIP3   OH237658   7.215   5.097   2.197  0.4432 -0.1103 -0.1617
 4488TIP3    H137659   7.194   5.109   2.105  0.6058 -0.1538 -0.2046
 4488TIP3    H237660   7.293   5.042   2.197 -0.3164 -1.2163  0.0390
 4489TIP3   OH237661   4.757   4.203   8.526  0.0030  0.2521 -0.1138
 4489TIP3    H137662   4.667   4.177   8.547 -0.3998  1.0818 -0.7552
 4489TIP3    H237663   4.806   4.183   8.606 -1.5342  3.6674  1.9124
 4490TIP3   OH237664   2.204   2.127   9.030 -1.0902 -0.9002 -0.9112
 4490TIP3    H137665   2.175   2.135   9.120  2.4985  0.3808  0.3085
 4490TIP3    H237666   2.161   2.200   8.985 -2.1373 -0.9630 -0.0668
 4491TIP3   OH237667   4.806   0.487   2.731 -0.0376 -0.8393 -0.2225
 4491TIP3    H137668   4.851   0.433   2.666  0.9574 -1.0901  0.6324
 4491TIP3    H237669   4.743   0.428   2.771  0.7107 -1.2670  0.3699
 4492TIP3   OH237670   4.423   2.215   8.122 -0.4837  0.5555  0.4694
 4492TIP3    H137671   4.332   2.240   8.138 -0.7737 -0.1693  0.0553
 4492TIP3    H237672   4.426   2.196   8.028 -0.0937 -0.1459  0.6167
 4493TIP3   OH237673   1.918   3.344   9.898  0.2005 -0.1826 -0.4249
 4493TIP3    H137674   1.919   3.282   9.971 -1.3819 -0.0010 -0.1952
 4493TIP3    H237675   2.008   3.348   9.867  0.6386 -1.2973  0.6524
 4494TIP3   OH237676   4.517   6.948   7.645  0.3511 -0.4975 -0.0563
 4494TIP3    H137677   4.550   6.887   7.579 -1.1824 -0.6951 -0.6649
 4494TIP3    H237678   4.468   7.013   7.595 -0.7655 -0.6053  0.8635
 4495TIP3   OH237679   1.998   3.398   1.582 -0.4528 -0.2901 -0.2141
 4495TIP3    H137680   1.983   3.454   1.506  2.5087  0.4413 -0.3942
 4495TIP3    H237681   2.030   3.316   1.545  0.2431 -0.2111  0.2013
 4496TIP3   OH237682   4.500   0.206   8.952 -0.7495  0.0802 -0.8070
 4496TIP3    H137683   4.536   0.120   8.973 -0.9146 -0.1677 -1.5130
 4496TIP3    H237684   4.512   0.214   8.858 -0.0047  1.1785 -0.6348
 4497TIP3   OH237685   1.847   2.484   8.523 -0.5563 -0.1065  0.1180
 4497TIP3    H137686   1.868   2.530   8.604 -3.2122  0.2519  0.6693
 4497TIP3    H237687   1.844   2.392   8.547  0.7703 -0.2254 -0.0936
 4498TIP3   OH237688   0.624   1.978   9.984  0.6540 -0.4126  0.2565
 4498TIP3    H137689   0.536   1.944   9.974  0.8354 -1.3302  1.5641
 4498TIP3    H237690   0.635   2.039   9.911 -1.0886 -0.1898  0.1526
 4499TIP3   OH237691   3.416   6.647   0.484  0.4696 -0.5224  0.6070
 4499TIP3    H137692   3.380   6.562   0.460 -0.9116  0.2195 -0.0803
 4499TIP3    H237693   3.486   6.663   0.420 -1.2148  0.1221 -1.1462
 4500TIP3   OH237694   6.485   1.108   7.889 -0.3512 -0.2758 -0.2683
 4500TIP3    H137695   6.567   1.061   7.906 -0.7807 -0.6497  0.9154
 4500TIP3    H237696   6.424   1.074   7.955 -1.9040 -1.0532 -2.0068
 4501TIP3   OH237697   2.369   4.276   9.040 -0.1370 -0.1830 -0.4674
 4501TIP3    H137698   2.409   4.363   9.043  1.2278 -0.7247 -1.7914
 4501TIP3    H237699   2.344   4.258   9.131  2.8724  0.1104  0.5060
 4502TIP3   OH237700   2.145   2.857   8.076  0.0380 -0.5623  0.5970
 4502TIP3    H137701   2.137   2.899   8.161 -1.0793  1.0443 -0.2541
 4502TIP3    H237702   2.143   2.929   8.013  0.2978 -1.7461 -0.8129
 4503TIP3   OH237703   3.337   3.846   8.151  0.3476  0.2747 -0.0922
 4503TIP3    H137704   3.347   3.774   8.213  0.7234 -0.6698 -1.2155
 4503TIP3    H237705   3.426   3.860   8.118  0.5033  2.0340  0.9160
 4504TIP3   OH237706   5.488   6.530   2.988  0.0357 -0.3743 -0.2749
 4504TIP3    H137707   5.432   6.551   2.914  1.3442  1.8497 -0.7372
 4504TIP3    H237708   5.571   6.575   2.969  0.2954  0.6497  2.6786
 4505TIP3   OH237709   1.088   3.980   2.443 -0.0188  0.2090  0.4746
 4505TIP3    H137710   1.027   3.978   2.368  0.9442  0.8391 -0.3487
 4505TIP3    H237711   1.168   4.018   2.408 -0.3146  2.9354  2.3915
 4506TIP3   OH237712   2.064   1.519   0.458  0.0740 -0.2917  0.4317
 4506TIP3    H137713   2.077   1.424   0.468 -1.0201 -0.5068 -0.0237
 4506TIP3    H237714   1.973   1.527   0.430 -0.4657  1.0172  2.3993
 4507TIP3   OH237715   1.409   4.299   9.604 -0.1914  0.0298 -0.2540
 4507TIP3    H137716   1.477   4.361   9.628 -0.6960  0.2138  0.7714
 4507TIP3    H237717   1.344   4.351   9.557 -0.5253  0.2540  0.4415
 4508TIP3   OH237718   4.397   0.195   9.867 -0.3799  0.2949 -0.5079
 4508TIP3    H137719   4.341   0.132   9.822 -0.9572 -0.3327  1.0080
 4508TIP3    H237720   4.352   0.279   9.855 -0.5976  0.1149 -0.9739
 4509TIP3   OH237721   0.264   1.368   0.991 -0.9425 -0.1228 -0.5047
 4509TIP3    H137722   0.223   1.310   1.055  0.1856  0.4844  0.8305
 4509TIP3    H237723   0.319   1.426   1.043  1.0151 -0.4103 -2.1027
 4510TIP3   OH237724   6.668   4.788   7.672 -0.1528  0.2456 -0.7479
 4510TIP3    H137725   6.592   4.845   7.683  0.6578  1.1024  0.8918
 4510TIP3    H237726   6.741   4.848   7.659  0.6378 -0.4090  0.4777
 4511TIP3   OH237727   3.403   4.192   9.319 -0.9676  0.3900 -0.4963
 4511TIP3    H137728   3.317   4.162   9.346 -0.1515 -1.3879  0.2938
 4511TIP3    H237729   3.443   4.116   9.277  0.1403  1.2407 -1.0451
 4512TIP3   OH237730   6.495   5.152   8.540 -0.1339 -0.3859 -0.0761
 4512TIP3    H137731   6.414   5.125   8.583  0.1004  0.9835  1.2804
 4512TIP3    H237732   6.502   5.246   8.557  1.4451 -0.3560 -0.6862
 4513TIP3   OH237733   2.882   5.802   2.905 -0.3171 -0.3402  0.0103
 4513TIP3    H137734   2.867   5.792   2.811 -0.5028 -0.1180  0.0167
 4513TIP3    H237735   2.869   5.895   2.922 -1.9456 -0.6321  0.5534
 4514TIP3   OH237736   1.941   3.164   8.555 -0.4954 -0.0715 -0.3551
 4514TIP3    H137737   1.917   3.221   8.628 -0.2918 -1.3691  0.7728
 4514TIP3    H237738   2.036   3.178   8.544 -0.9518  2.2448 -2.3293
 4515TIP3   OH237739   4.438   0.839   9.877 -0.3352  0.5645 -0.3075
 4515TIP3    H137740   4.509   0.853   9.815  0.6760  1.2616  0.9611
 4515TIP3    H237741   4.470   0.768   9.934 -1.1149  0.1415 -0.3873
 4516TIP3   OH237742   4.864   2.822   0.416 -0.5509  0.0322  0.2288
 4516TIP3    H137743   4.796   2.857   0.474  0.1043 -1.5016  2.0026
 4516TIP3    H237744   4.864   2.728   0.433  0.4353 -0.3131 -1.4838
 4517TIP3   OH237745   0.085   0.766   1.304 -0.1970  0.3871 -0.5495
 4517TIP3    H137746   0.071   0.788   1.396  0.1915  1.2869 -0.7012
 4517TIP3    H237747   0.180   0.759   1.294 -0.0373  2.8141 -1.4132
 4518TIP3   OH237748   5.516   6.309   2.132  0.4083  0.2559  0.2149
 4518TIP3    H137749   5.432   6.354   2.132 -0.4316 -1.2558 -0.4766
 4518TIP3    H237750   5.560   6.342   2.211 -1.7994 -0.6637  1.9670
 4519TIP3   OH237751   0.591   6.268   0.783 -0.2130  0.0065  0.4540
 4519TIP3    H137752   0.599   6.354   0.825 -1.2401  1.1125 -1.4880
 4519TIP3    H237753   0.545   6.285   0.701  0.3901 -2.2816 -0.4435
 4520TIP3   OH237754   5.694   0.484   2.059  0.2651 -0.1241  0.4561
 4520TIP3    H137755   5.651   0.520   1.981  0.9003 -0.2887  0.0147
 4520TIP3    H237756   5.739   0.405   2.027 -0.0155 -0.5638  1.1332
 4521TIP3   OH237757   4.767   5.549   7.804 -0.4202  0.0876 -0.6933
 4521TIP3    H137758   4.722   5.542   7.888 -0.9289 -0.1860 -0.9812
 4521TIP3    H237759   4.696   5.565   7.740 -0.1848 -1.0083 -1.2471
 4522TIP3   OH237760   4.196   4.228   8.700  0.0548 -0.0733 -0.1495
 4522TIP3    H137761   4.223   4.307   8.748  0.3381 -0.5691  0.5202
 4522TIP3    H237762   4.251   4.228   8.622 -0.7760  1.0287 -0.7639
 4523TIP3   OH237763   0.380   6.249   2.633 -0.1086 -0.2109  0.0732
 4523TIP3    H137764   0.388   6.344   2.639  1.4871 -0.3291  0.1838
 4523TIP3    H237765   0.413   6.228   2.545 -1.1569 -0.6197 -0.2452
 4524TIP3   OH237766   5.110   2.401   8.819  0.1013  0.6766  0.0516
 4524TIP3    H137767   5.082   2.491   8.803 -0.4944  0.5578  0.3820
 4524TIP3    H237768   5.080   2.381   8.907  2.5354  1.0029  1.0304
 4525TIP3   OH237769   5.452   5.465   1.781 -0.8633  0.2952  0.2431
 4525TIP3    H137770   5.545   5.487   1.769 -1.0829  1.9388  1.2366
 4525TIP3    H237771   5.406   5.546   1.757 -2.0076 -0.3151  0.3432
 4526TIP3   OH237772   4.691   6.553   7.468  0.0480  0.8576 -0.0661
 4526TIP3    H137773   4.695   6.463   7.437 -0.1773  1.0691 -0.7182
 4526TIP3    H237774   4.770   6.563   7.522  1.0017  0.7845 -1.4000
 4527TIP3   OH237775   6.678   1.048   8.918 -0.4156  0.2657  0.5431
 4527TIP3    H137776   6.687   0.964   8.874  0.9340  1.4204 -1.4970
 4527TIP3    H237777   6.712   1.033   9.006  0.1595 -1.2110  0.0859
 4528TIP3   OH237778   1.358   4.933   9.966 -0.0037 -0.4718  0.6924
 4528TIP3    H137779   1.267   4.904   9.958  0.7253 -2.7101 -0.0461
 4528TIP3    H237780   1.371   4.991   9.891 -1.1876  1.0955  1.6181
 4529TIP3   OH237781   3.519   7.010   9.972  0.1634 -0.0905  0.2702
 4529TIP3    H137782   3.474   6.960   9.905  0.2530 -0.9140  0.8032
 4529TIP3    H237783   3.583   6.949  10.009 -1.6219 -0.5660  2.8780
 4530TIP3   OH237784   1.739   0.792   7.661  0.6529  0.5959  0.0590
 4530TIP3    H137785   1.697   0.825   7.740  0.4819  0.1005  0.1829
 4530TIP3    H237786   1.803   0.728   7.693 -0.9871 -1.3268 -0.2779
 4531TIP3   OH237787   0.131   4.837   2.438 -0.4393  0.0688  0.5990
 4531TIP3    H137788   0.112   4.914   2.384  1.0205  0.1371  0.1463
 4531TIP3    H237789   0.124   4.869   2.528 -1.4772  0.3070  0.4531
 4532TIP3   OH237790   5.855   5.159   8.588  0.2666  0.3063 -0.0868
 4532TIP3    H137791   5.772   5.119   8.614 -1.7794  3.0035 -1.9018
 4532TIP3    H237792   5.905   5.087   8.548 -0.3948 -1.7487  2.4589
 4533TIP3   OH237793   6.591   4.107   3.225  0.0570  0.5954 -0.2391
 4533TIP3    H137794   6.531   4.086   3.153 -0.1691 -1.1829  0.4136
 4533TIP3    H237795   6.647   4.176   3.190  1.3635 -1.6158 -2.9844
 4534TIP3   OH237796   2.621   0.237   7.981 -0.3103 -0.3684 -0.2269
 4534TIP3    H137797   2.687   0.181   8.022  0.2467  0.6308  0.2767
 4534TIP3    H237798   2.565   0.265   8.054 -0.8903 -0.6676 -0.5508
 4535TIP3   OH237799   5.812   6.191   9.554  0.3005 -0.0437  0.0897
 4535TIP3    H137800   5.887   6.241   9.522  0.0524  0.6230  0.5271
 4535TIP3    H237801   5.832   6.100   9.531  1.6923 -0.0108  1.0434
 4536TIP3   OH237802   0.508   3.684   9.054 -0.0652  0.0574  0.3749
 4536TIP3    H137803   0.477   3.688   9.145 -1.3808 -0.2033 -0.0422
 4536TIP3    H237804   0.550   3.769   9.040  0.8882 -0.2077  1.4607
 4537TIP3   OH237805   2.630   4.328   7.029 -0.0598 -0.3839  0.3000
 4537TIP3    H137806   2.663   4.415   7.007 -0.2852 -1.2490 -4.3549
 4537TIP3    H237807   2.535   4.340   7.037  0.1141  0.1130  2.2641
 4538TIP3   OH237808   0.538   0.171   8.770 -0.4351 -0.2087 -0.1578
 4538TIP3    H137809   0.574   0.259   8.784  0.2805 -0.6343  0.7645
 4538TIP3    H237810   0.610   0.122   8.730  0.6351 -1.4956  3.0827
 4539TIP3   OH237811   5.522   0.561   1.851 -0.2404  0.0372  0.0092
 4539TIP3    H137812   5.486   0.628   1.909 -0.8933  0.2835 -0.6646
 4539TIP3    H237813   5.490   0.585   1.764  2.0157  0.5917 -0.7310
 4540TIP3   OH237814   1.237   3.857   0.175 -0.2968 -0.1466 -0.6297
 4540TIP3    H137815   1.247   3.769   0.139  0.4389 -0.5669  0.5378
 4540TIP3    H237816   1.293   3.913   0.121  0.3383 -0.6628 -0.5170
 4541TIP3   OH237817   7.098   5.421   8.577  0.8121 -0.1609  0.1167
 4541TIP3    H137818   7.126   5.424   8.486  2.1043 -0.1304  0.4833
 4541TIP3    H237819   7.151   5.488   8.620 -0.5844  0.6097  0.7017
 4542TIP3   OH237820   6.897   4.512   1.706 -0.2036 -0.0126  0.1537
 4542TIP3    H137821   6.875   4.490   1.616 -2.5410  1.2037  0.3314
 4542TIP3    H237822   6.986   4.545   1.702  0.1526 -1.1035 -1.5007
 4543TIP3   OH237823   6.166   6.458   9.894  0.1083 -0.8069 -0.3424
 4543TIP3    H137824   6.194   6.464   9.985 -0.7037  0.6843 -0.1651
 4543TIP3    H237825   6.247   6.448   9.844  0.7879  0.9570  0.3524
 4544TIP3   OH237826   5.671   3.203   7.654 -0.4382  0.0603 -0.7439
 4544TIP3    H137827   5.754   3.251   7.646 -0.2794 -0.5002 -3.3157
 4544TIP3    H237828   5.677   3.134   7.588 -3.0016  0.0823 -1.0973
 4545TIP3   OH237829   6.299   0.560   9.392 -0.1186  0.1745  0.0358
 4545TIP3    H137830   6.370   0.568   9.455 -1.1648 -1.3087  1.5084
 4545TIP3    H237831   6.220   0.550   9.446 -1.1128 -0.7183 -1.5003
 4546TIP3   OH237832   0.348   1.780   1.880  0.2043 -0.3068  0.7220
 4546TIP3    H137833   0.292   1.746   1.949 -1.6780  1.3417  0.1204
 4546TIP3    H237834   0.326   1.728   1.802 -1.9221  1.4299  0.0526
 4547TIP3   OH237835   4.429   3.604   7.259 -0.0012  0.3047  0.3509
 4547TIP3    H137836   4.488   3.630   7.188  0.9315  0.6680  1.2346
 4547TIP3    H237837   4.460   3.518   7.286 -1.2183 -0.4505 -0.5750
 4548TIP3   OH237838   6.659   5.051   3.006  0.7452  0.1771  0.6249
 4548TIP3    H137839   6.739   5.068   3.055  2.2695 -0.2697 -1.5707
 4548TIP3    H237840   6.680   5.074   2.915 -1.8135  0.6017  0.0448
 4549TIP3   OH237841   4.972   7.173   0.677 -0.5775 -0.1321  0.3619
 4549TIP3    H137842   4.991   7.155   0.769 -0.4099 -0.4009  0.2741
 4549TIP3    H237843   4.980   7.088   0.634 -2.1999 -0.3210  0.3622
 4550TIP3   OH237844   2.652   0.263   6.635 -0.0575  0.0069  0.2819
 4550TIP3    H137845   2.622   0.304   6.554 -1.0907  2.3007  1.7395
 4550TIP3    H237846   2.608   0.178   6.636 -0.8160  0.3497 -1.0754
 4551TIP3   OH237847   4.260   2.324   8.644 -0.0079 -0.2797 -0.1753
 4551TIP3    H137848   4.230   2.365   8.725  0.1986  0.5064 -0.4839
 4551TIP3    H237849   4.325   2.384   8.609  0.0074 -0.6756 -0.8523
 4552TIP3   OH237850   0.772   0.281   1.858  0.2084  0.0129 -0.5062
 4552TIP3    H137851   0.737   0.207   1.809  0.1493 -0.9316  0.8807
 4552TIP3    H237852   0.864   0.258   1.874  0.1000  0.0601  0.2336
 4553TIP3   OH237853   1.247   7.200   1.864  0.1417 -0.5360  0.3209
 4553TIP3    H137854   1.263   7.288   1.833  0.2864 -0.8215 -0.4297
 4553TIP3    H237855   1.311   7.146   1.818 -2.1848 -1.5536 -1.9761
 4554TIP3   OH237856   2.430   6.848   8.488  0.1222 -0.3955 -0.2402
 4554TIP3    H137857   2.396   6.794   8.559  1.2623 -0.3099  0.3864
 4554TIP3    H237858   2.361   6.913   8.473  0.2896  0.2639  1.5423
 4555TIP3   OH237859   2.257   0.220   0.102 -1.0017  0.4346 -0.3945
 4555TIP3    H137860   2.314   0.149   0.131 -2.0997 -0.1065  0.5141
 4555TIP3    H237861   2.238   0.199   0.011 -0.9460 -0.1854 -0.2683
 4556TIP3   OH237862   5.738   5.919   2.300 -0.1790 -0.3495 -0.0737
 4556TIP3    H137863   5.783   5.883   2.376 -2.0151  0.7820  1.6727
 4556TIP3    H237864   5.779   6.004   2.286  0.9933 -1.0634 -1.2040
 4557TIP3   OH237865   3.955   2.329   9.199  0.1917 -0.6542 -0.7123
 4557TIP3    H137866   3.963   2.373   9.283  1.3299  0.4786 -1.3718
 4557TIP3    H237867   4.002   2.246   9.211 -3.6527 -2.7951  1.1472
 4558TIP3   OH237868   7.051   2.616   8.216 -0.0244 -0.1770  0.0278
 4558TIP3    H137869   7.017   2.675   8.283  0.3689  1.4323 -1.1391
 4558TIP3    H237870   6.975   2.595   8.162 -0.2082 -0.9427  0.5702
 4559TIP3   OH237871   3.719   2.211   0.573 -0.1833  0.3621 -0.7456
 4559TIP3    H137872   3.811   2.238   0.572 -0.0596  0.1520  1.2646
 4559TIP3    H237873   3.715   2.142   0.638 -1.8780  0.7667 -0.3691
 4560TIP3   OH237874   1.388   4.767   1.567  0.3146  0.1298  0.1111
 4560TIP3    H137875   1.428   4.803   1.488  0.3555  0.6314  0.3612
 4560TIP3    H237876   1.299   4.804   1.568 -0.2012 -1.0327 -0.4808
 4561TIP3   OH237877   3.116   5.307   8.399 -0.1011  0.1405 -0.1855
 4561TIP3    H137878   3.164   5.278   8.477  0.7364  0.1150 -0.6938
 4561TIP3    H237879   3.176   5.368   8.355 -0.3622 -0.2071 -1.0562
 4562TIP3   OH237880   5.193   0.448   2.154  0.1130 -0.3442 -0.5220
 4562TIP3    H137881   5.138   0.456   2.232  0.0362 -3.3473 -0.1606
 4562TIP3    H237882   5.141   0.397   2.092 -0.2657  2.8176 -3.1128
 4563TIP3   OH237883   0.267   0.949   1.454  0.2738 -0.7117  0.8571
 4563TIP3    H137884   0.237   0.878   1.511 -1.0235 -0.3678  0.6293
 4563TIP3    H237885   0.216   1.025   1.480  1.0615 -0.0545  0.5426
 4564TIP3   OH237886   1.466   2.712   0.003  0.0030 -0.1886  0.1458
 4564TIP3    H137887   1.512   2.701  -0.080 -1.2591 -0.7876 -0.5094
 4564TIP3    H237888   1.380   2.746  -0.022 -0.5991 -0.9128  1.1580
 4565TIP3   OH237889   7.212   4.779   2.700  0.4322 -0.6611 -0.3602
 4565TIP3    H137890   7.301   4.806   2.723  0.3183 -1.3626  1.0188
 4565TIP3    H237891   7.182   4.728   2.776 -1.1672 -0.3972 -0.7799
 4566TIP3   OH237892   4.808   0.814   7.238  0.0363  0.2808  0.3619
 4566TIP3    H137893   4.884   0.846   7.286 -0.8541  2.3666  0.4639
 4566TIP3    H237894   4.837   0.813   7.147  0.5291 -0.0217  0.5159
 4567TIP3   OH237895   4.112   4.727   2.198 -0.2975 -0.5251 -0.4880
 4567TIP3    H137896   4.183   4.734   2.134 -0.3851  0.0699 -0.5279
 4567TIP3    H237897   4.154   4.691   2.276  0.4175  1.3624  0.0400
 4568TIP3   OH237898   2.753   6.577   0.556  0.4963  0.0978 -0.2936
 4568TIP3    H137899   2.781   6.627   0.632  3.2782 -0.0011 -1.1286
 4568TIP3    H237900   2.822   6.591   0.491 -0.4447 -1.8998 -1.8558
 4569TIP3   OH237901   3.360   2.550   1.110  0.0152 -0.4894  0.2014
 4569TIP3    H137902   3.268   2.564   1.086 -0.1264 -0.6783  0.6075
 4569TIP3    H237903   3.356   2.527   1.203  0.6643  1.9006  0.8898
 4570TIP3   OH237904   3.111   1.134   1.165 -0.2126  0.0514 -0.1440
 4570TIP3    H137905   3.070   1.158   1.082 -2.6146 -0.1292  0.9098
 4570TIP3    H237906   3.192   1.184   1.167 -0.5292  0.7405 -2.1904
 4571TIP3   OH237907   5.227   4.385   2.279  0.3325 -0.3500 -0.1457
 4571TIP3    H137908   5.164   4.319   2.253 -0.1876 -0.0904  0.4239
 4571TIP3    H237909   5.312   4.345   2.262  0.0583 -1.6520  1.3080
 4572TIP3   OH237910   3.835   1.808   0.568  0.0089 -0.9490 -0.2506
 4572TIP3    H137911   3.919   1.836   0.532  0.1975 -0.9315  0.1883
 4572TIP3    H237912   3.777   1.882   0.556  0.3371 -0.5826  0.3492
 4573TIP3   OH237913   1.741   3.019   2.105 -0.6726  0.0586 -0.5605
 4573TIP3    H137914   1.837   3.026   2.100 -0.5926 -1.1034 -0.9274
 4573TIP3    H237915   1.713   3.016   2.014 -1.1029  0.8445 -0.4555
 4574TIP3   OH237916   4.907   5.852   0.252  0.4901  0.1585 -0.0441
 4574TIP3    H137917   4.868   5.776   0.209  0.3771 -0.0255  0.3726
 4574TIP3    H237918   4.845   5.873   0.323  0.1663  1.0645 -0.5791
 4575TIP3   OH237919   6.285   2.370   7.661  0.4720 -0.8432 -0.5135
 4575TIP3    H137920   6.204   2.319   7.660  0.2044 -0.4475  0.2459
 4575TIP3    H237921   6.351   2.311   7.624 -0.4471 -0.6590 -2.5835
 4576TIP3   OH237922   0.964   3.630   2.872  0.0156  0.7395 -0.1954
 4576TIP3    H137923   0.885   3.589   2.839 -0.4189  0.1748  1.4556
 4576TIP3    H237924   0.933   3.700   2.930  0.6886  0.0010  1.0937
 4577TIP3   OH237925   2.094   4.083   8.720  0.0623  0.4904  0.2469
 4577TIP3    H137926   2.001   4.064   8.731 -0.3849  2.9330  1.3430
 4577TIP3    H237927   2.125   4.018   8.657 -2.3679 -0.4274 -0.0836
 4578TIP3   OH237928   0.391   5.404   8.569  0.3785 -0.6198 -0.4679
 4578TIP3    H137929   0.409   5.426   8.660  0.3426 -1.6847 -0.1910
 4578TIP3    H237930   0.464   5.348   8.543 -1.2730 -3.1924  0.0009
 4579TIP3   OH237931   5.989   6.021   2.538  0.0130  0.2391 -0.2929
 4579TIP3    H137932   5.926   6.091   2.556 -0.6089 -0.5158  0.5368
 4579TIP3    H237933   5.936   5.941   2.536  0.9212 -0.3892  0.2661
 4580TIP3   OH237934   3.899   0.485   9.848  0.8176  0.5687 -0.5125
 4580TIP3    H137935   3.872   0.409   9.900  1.1326  1.2876  0.7630
 4580TIP3    H237936   3.910   0.555   9.913  0.0056  1.8619 -1.7108
 4581TIP3   OH237937   0.875   6.192   7.391  0.4622 -0.3708 -0.1013
 4581TIP3    H137938   0.888   6.286   7.398 -0.4736 -0.1516 -0.9391
 4581TIP3    H237939   0.925   6.166   7.314  1.5716 -0.7639  0.7232
 4582TIP3   OH237940   2.380   3.994   2.195 -0.2063 -0.0468 -0.2630
 4582TIP3    H137941   2.418   3.972   2.280 -0.8616 -1.8155 -0.3956
 4582TIP3    H237942   2.456   4.016   2.140  0.2685  0.4774  0.5772
 4583TIP3   OH237943   5.757   0.297   1.369 -0.1819 -0.1497 -0.3083
 4583TIP3    H137944   5.791   0.374   1.322  0.9324  0.0200  0.7163
 4583TIP3    H237945   5.698   0.334   1.434 -0.3756 -0.2387 -0.4340
 4584TIP3   OH237946   0.275   4.364   2.023 -0.0861  0.4221 -0.4190
 4584TIP3    H137947   0.297   4.452   2.053  2.3093  0.3011 -1.5533
 4584TIP3    H237948   0.262   4.374   1.929 -3.4925  0.1066 -0.1280
 4585TIP3   OH237949   1.789   6.892   9.334  0.2433  0.1462 -0.0866
 4585TIP3    H137950   1.741   6.900   9.252  0.1983  1.1449  0.0210
 4585TIP3    H237951   1.729   6.847   9.393  0.9327 -2.2526 -1.0966
 4586TIP3   OH237952   4.320   2.695   7.855 -0.1038  0.2573  0.0525
 4586TIP3    H137953   4.289   2.783   7.835  0.0123  0.2339 -0.2362
 4586TIP3    H237954   4.241   2.640   7.853  0.1533 -0.1382 -2.5392
 4587TIP3   OH237955   4.657   4.423   1.961  0.0119 -0.1755 -0.3451
 4587TIP3    H137956   4.587   4.358   1.960 -1.4721  1.1885  2.4419
 4587TIP3    H237957   4.647   4.472   1.879 -0.9107 -1.3682 -0.9671
 4588TIP3   OH237958   1.805   0.532   9.696 -0.0709 -0.0450  0.1142
 4588TIP3    H137959   1.750   0.596   9.740  0.7634  0.0553  1.0325
 4588TIP3    H237960   1.789   0.450   9.742 -2.3064 -0.9464 -2.0029
 4589TIP3   OH237961   6.761   2.205   0.642 -0.4459  0.3319  0.8033
 4589TIP3    H137962   6.745   2.273   0.708 -0.3411  2.0901 -0.8683
 4589TIP3    H237963   6.851   2.177   0.659 -0.1817  1.2468  1.0149
 4590TIP3   OH237964   4.559   4.898   9.059 -0.1746 -0.1295 -0.3347
 4590TIP3    H137965   4.490   4.839   9.091 -1.2228 -1.1468 -3.9762
 4590TIP3    H237966   4.518   4.945   8.986  2.7887 -0.4523 -2.3732
 4591TIP3   OH237967   5.427   4.750   1.566  0.4148 -0.5329 -0.5103
 4591TIP3    H137968   5.424   4.813   1.639 -1.0570 -3.6086  2.3093
 4591TIP3    H237969   5.510   4.703   1.579  1.0743  0.1208 -2.0673
 4592TIP3   OH237970   1.270   7.276   0.326 -0.5706  0.1619  0.1854
 4592TIP3    H137971   1.285   7.185   0.300 -0.7037  0.1584  0.1203
 4592TIP3    H237972   1.176   7.279   0.347 -0.6886  0.4209 -0.3543
 4593TIP3   OH237973   5.558   6.626   0.576 -0.1812  0.2971  0.2066
 4593TIP3    H137974   5.534   6.672   0.495  0.2488 -0.3907 -0.3158
 4593TIP3    H237975   5.561   6.534   0.552  2.8945  0.3032  0.2418
 4594TIP3   OH237976   4.669   5.860   8.856  0.2624  0.2440  0.0060
 4594TIP3    H137977   4.723   5.803   8.911  2.2685  0.5865 -1.4637
 4594TIP3    H237978   4.733   5.914   8.809 -1.3832  0.6940 -1.8398
 4595TIP3   OH237979   1.111   4.797   7.519 -0.5566 -0.2832  0.4007
 4595TIP3    H137980   1.160   4.875   7.492  1.1402 -1.7971 -1.1394
 4595TIP3    H237981   1.090   4.753   7.437 -0.2316 -2.1661  1.2905
 4596TIP3   OH237982   0.455   5.984   9.971 -0.1246 -0.1436  0.0980
 4596TIP3    H137983   0.495   5.898   9.959  0.3318  0.2631 -1.6592
 4596TIP3    H237984   0.373   5.979   9.922 -0.1907  0.3569  0.1519
 4597TIP3   OH237985   3.628   5.568   9.550  0.3382  0.5768 -0.2615
 4597TIP3    H137986   3.714   5.577   9.592  0.4849 -0.9034 -0.2136
 4597TIP3    H237987   3.570   5.624   9.603  0.8127 -0.1561  1.0762
 4598TIP3   OH237988   7.006   2.262   8.854 -0.2862  0.4642 -0.0884
 4598TIP3    H137989   7.089   2.231   8.889 -1.4442 -1.5546  1.0433
 4598TIP3    H237990   6.989   2.205   8.779 -1.9147 -1.0612  1.3469
 4599TIP3   OH237991   3.031   0.107   2.010  0.1645  0.0715  0.0704
 4599TIP3    H137992   3.015   0.194   1.973  0.0952 -0.9619 -2.5506
 4599TIP3    H237993   2.948   0.062   2.003  0.4336 -0.5239  0.5761
 4600TIP3   OH237994   6.954   1.163   9.217  0.1464  0.4545  0.1676
 4600TIP3    H137995   6.912   1.107   9.282 -0.9439  0.8658 -0.1523
 4600TIP3    H237996   6.884   1.221   9.187  1.5274  3.0334  1.5745
 4601TIP3   OH237997   4.234   0.313   8.238 -0.2116  0.2566  0.2689
 4601TIP3    H137998   4.279   0.263   8.169 -0.0930  2.0185 -1.0254
 4601TIP3    H237999   4.141   0.300   8.220 -0.1880  1.3446 -0.7714
 4602TIP3   OH238000   6.529   0.481   7.954  0.3144 -0.1385  0.1245
 4602TIP3    H138001   6.515   0.395   7.993  0.2431 -0.5187 -0.7024
 4602TIP3    H238002   6.588   0.526   8.014  1.3597 -1.2312 -0.0620
 4603TIP3   OH238003   5.032   0.456   2.352 -0.3428 -0.5885  0.2120
 4603TIP3    H138004   5.035   0.384   2.414  0.8978  0.5968  1.5896
 4603TIP3    H238005   4.950   0.442   2.304  0.1048 -3.1777  0.0352
 4604TIP3   OH238006   5.130   2.192   9.430  0.7081 -0.2224  0.1964
 4604TIP3    H138007   5.115   2.280   9.396  0.3238 -1.0163 -1.9023
 4604TIP3    H238008   5.225   2.182   9.429  0.7162 -0.2372 -0.8465
 4605TIP3   OH238009   0.096   0.559   9.163  0.1067  0.1583  0.3932
 4605TIP3    H138010   0.167   0.503   9.195  1.6321  1.1469 -1.0892
 4605TIP3    H238011   0.018   0.503   9.166  1.5669 -2.1127 -1.1552
 4606TIP3   OH238012   4.787   5.504   3.115 -0.0644  0.2228  0.4233
 4606TIP3    H138013   4.814   5.557   3.040  0.4835  1.6371  1.5728
 4606TIP3    H238014   4.701   5.470   3.091  0.4381 -0.0159 -1.1509
 4607TIP3   OH238015   5.818   3.692   1.366  0.3994 -0.0421  0.4137
 4607TIP3    H138016   5.767   3.740   1.301  1.4000 -0.4177 -0.6976
 4607TIP3    H238017   5.889   3.752   1.388  0.8813 -0.4704  0.0470
 4608TIP3   OH238018   3.765   1.076   8.749  0.2239 -0.3010 -0.6515
 4608TIP3    H138019   3.731   0.987   8.747 -1.0081  0.1439 -0.5248
 4608TIP3    H238020   3.816   1.084   8.669  0.0498 -1.0104 -0.8390
 4609TIP3   OH238021   1.364   5.750   0.850 -0.1170 -0.1792 -0.1909
 4609TIP3    H138022   1.289   5.789   0.895 -0.7251  1.5662 -2.5081
 4609TIP3    H238023   1.439   5.803   0.878 -0.4773  0.8504 -1.1171
 4610TIP3   OH238024   0.976   4.181   2.055  0.4349  0.0344 -0.3227
 4610TIP3    H138025   0.959   4.146   1.967 -1.1467 -2.0258  0.7148
 4610TIP3    H238026   1.061   4.223   2.048 -0.2532  1.2006 -3.1807
 4611TIP3   OH238027   3.735   4.989   2.136 -0.2699 -0.3346  0.2351
 4611TIP3    H138028   3.815   4.982   2.188  0.5595  0.0230 -0.9620
 4611TIP3    H238029   3.670   5.022   2.198  1.6129  4.0328  0.2550
 4612TIP3   OH238030   2.699   2.454   1.234 -0.6654  0.0368 -0.0365
 4612TIP3    H138031   2.752   2.375   1.248  0.5439  0.7508 -0.4542
 4612TIP3    H238032   2.609   2.423   1.239 -0.2505 -1.7106 -1.8279
 4613TIP3   OH238033   6.486   3.870   9.613  0.0376 -0.2410 -0.1166
 4613TIP3    H138034   6.531   3.844   9.693  0.7155 -0.1988 -0.4783
 4613TIP3    H238035   6.541   3.939   9.576 -0.5431  0.0997 -0.3509
 4614TIP3   OH238036   3.178   4.169   1.605 -0.2527 -0.4510 -0.1525
 4614TIP3    H138037   3.088   4.137   1.608 -0.9135  1.1560 -1.0965
 4614TIP3    H238038   3.181   4.237   1.672 -0.2884  0.6682 -1.2366
 4615TIP3   OH238039   4.712   1.687   8.627 -0.4071  0.7949 -0.3415
 4615TIP3    H138040   4.652   1.623   8.666 -0.0679  0.1375 -0.8607
 4615TIP3    H238041   4.655   1.754   8.589 -0.7457  1.2987  1.0276
 4616TIP3   OH238042   2.244   2.583   8.163  0.0825 -0.0298  0.1118
 4616TIP3    H138043   2.330   2.624   8.158 -0.2574  0.7293  0.3093
 4616TIP3    H238044   2.184   2.648   8.127 -0.4168 -0.5242  0.0386
 4617TIP3   OH238045   1.847   5.767   0.212  0.6512  0.0218  0.2926
 4617TIP3    H138046   1.757   5.777   0.240  0.4309  0.5834 -0.5835
 4617TIP3    H238047   1.847   5.793   0.120  1.7190  0.0998  0.2978
 4618TIP3   OH238048   5.686   0.769   9.144 -0.3188  1.0837  0.2053
 4618TIP3    H138049   5.745   0.717   9.198 -0.4605 -0.5404 -1.1090
 4618TIP3    H238050   5.683   0.855   9.187  0.4953  0.2441  2.0590
 4619TIP3   OH238051   1.231   4.660   8.449  0.1525  0.2414  0.6522
 4619TIP3    H138052   1.259   4.750   8.429 -0.4274  0.1284 -0.8540
 4619TIP3    H238053   1.311   4.608   8.444  0.2637  0.4600 -0.0293
 4620TIP3   OH238054   1.393   0.615   8.341  0.0136 -0.2387  0.4517
 4620TIP3    H138055   1.466   0.642   8.397  1.3977  0.1515 -1.4388
 4620TIP3    H238056   1.414   0.526   8.315 -0.8496 -0.5773  0.8549
 4621TIP3   OH238057   0.314   1.925   9.951  0.1321 -0.1451  0.2236
 4621TIP3    H138058   0.221   1.942   9.963 -0.0413  0.4225 -1.7020
 4621TIP3    H238059   0.354   1.959  10.031 -1.0020  2.7210 -0.3037
 4622TIP3   OH238060   3.134   0.524   8.815 -0.5124 -0.5066 -0.2314
 4622TIP3    H138061   3.179   0.477   8.745 -1.9171 -2.6105  0.1795
 4622TIP3    H238062   3.177   0.493   8.895 -1.1185 -0.7005  0.0201
 4623TIP3   OH238063   4.721   5.723   1.502  0.2251  0.3366 -0.4072
 4623TIP3    H138064   4.651   5.662   1.480  2.1821 -1.5227 -1.9612
 4623TIP3    H238065   4.741   5.706   1.594 -0.9075  0.4468 -0.1316
 4624TIP3   OH238066   4.602   2.160   7.643  0.0074 -0.4338  0.5305
 4624TIP3    H138067   4.544   2.223   7.685  0.4572  0.9388 -0.8213
 4624TIP3    H238068   4.547   2.083   7.628 -0.6238 -0.2982  1.9773
 4625TIP3   OH238069   7.158   7.238   0.443 -0.2196  0.0765 -0.1889
 4625TIP3    H138070   7.152   7.243   0.539  0.2617 -0.3945 -0.1264
 4625TIP3    H238071   7.073   7.205   0.415 -0.1503 -0.3785  0.1310
 4626TIP3   OH238072   6.917   3.999   0.302  0.0743  0.2019  0.1351
 4626TIP3    H138073   6.982   4.066   0.281 -1.2493  2.2102  1.9957
 4626TIP3    H238074   6.894   4.015   0.393 -0.9239 -2.3068  0.4055
 4627TIP3   OH238075   1.204   0.788   7.156 -0.4466  0.0286  0.3612
 4627TIP3    H138076   1.127   0.842   7.174 -0.3178  0.8057 -1.1956
 4627TIP3    H238077   1.169   0.709   7.116 -0.7058 -1.5391  3.4405
 4628TIP3   OH238078   6.341   1.287   6.868 -0.2984 -0.2463 -0.0722
 4628TIP3    H138079   6.391   1.237   6.804 -0.9166 -1.2893  0.2291
 4628TIP3    H238080   6.301   1.220   6.925 -0.7901  0.6084  0.6108
 4629TIP3   OH238081   4.677   5.136   0.705  0.7128  0.1619  0.1379
 4629TIP3    H138082   4.639   5.190   0.774 -0.6033  1.7854 -1.7428
 4629TIP3    H238083   4.636   5.050   0.717  0.6244  0.3660  1.4409
 4630TIP3   OH238084   2.419   6.658   9.345  0.0669 -0.1686 -0.0291
 4630TIP3    H138085   2.401   6.748   9.370 -2.9294 -0.2256 -1.5114
 4630TIP3    H238086   2.364   6.605   9.403  1.5316 -1.0448  0.5977
 4631TIP3   OH238087   4.305   0.238   8.554 -0.4896  0.4523  0.1970
 4631TIP3    H138088   4.250   0.317   8.555 -0.4668  0.4677  0.2245
 4631TIP3    H238089   4.344   0.237   8.467  0.5954  1.2133  0.6575
 4632TIP3   OH238090   7.133   4.040   9.401  0.7966 -0.0248  0.0660
 4632TIP3    H138091   7.103   4.045   9.491 -0.4840  0.4436 -0.3605
 4632TIP3    H238092   7.086   3.966   9.364  0.0884  0.7445 -0.6301
 4633TIP3   OH238093   5.335   1.150   9.945  0.1650  0.1602 -0.1913
 4633TIP3    H138094   5.394   1.222   9.922  1.5266 -0.9198 -0.1914
 4633TIP3    H238095   5.321   1.160  10.039  1.3517 -0.2700  0.0466
 4634TIP3   OH238096   1.987   0.675   8.562 -0.3117  0.3884 -0.4354
 4634TIP3    H138097   2.003   0.744   8.496  2.2420  0.7338  0.4116
 4634TIP3    H238098   1.916   0.709   8.616 -1.9468  0.4316 -2.5109
 4635TIP3   OH238099   7.150   5.443   2.701  0.4399  0.1510  0.5142
 4635TIP3    H138100   7.205   5.365   2.695  0.0151 -0.0975 -0.3452
 4635TIP3    H238101   7.061   5.408   2.704  0.1222  0.6131 -1.6856
 4636TIP3   OH238102   4.577   5.933   0.663  0.5276  0.4798  0.4264
 4636TIP3    H138103   4.506   5.903   0.607 -2.5720  2.1175  3.0905
 4636TIP3    H238104   4.576   5.873   0.738  1.6656  0.8293  0.7489
 4637TIP3   OH238105   1.368   6.731   8.464 -0.2575 -0.1599  0.1447
 4637TIP3    H138106   1.452   6.704   8.428  0.8439 -0.3015  2.5934
 4637TIP3    H238107   1.356   6.675   8.541 -4.5417 -2.9589 -2.0943
 4638TIP3   OH238108   3.085   2.813   9.884 -0.5027 -0.0851  0.2075
 4638TIP3    H138109   3.024   2.830   9.956 -2.6399 -0.8677 -1.2854
 4638TIP3    H238110   3.044   2.854   9.808  0.9423 -0.5075 -0.8501
 4639TIP3   OH238111   6.322   2.066   9.578  0.1906  0.0885 -0.1975
 4639TIP3    H138112   6.322   2.137   9.642 -0.1750  0.6843 -0.8548
 4639TIP3    H238113   6.347   1.988   9.629  2.2050  0.9469  0.2231
 4640TIP3   OH238114   4.581   4.216   8.940  0.2343 -0.0604  0.3848
 4640TIP3    H138115   4.512   4.259   8.889  1.5550  2.5931  0.6329
 4640TIP3    H238116   4.575   4.124   8.917 -3.1971  0.0988  0.2076
 4641TIP3   OH238117   2.522   1.137   0.611 -0.2225 -0.4554  0.9573
 4641TIP3    H138118   2.544   1.227   0.586 -0.2316 -0.9503 -1.0550
 4641TIP3    H238119   2.602   1.104   0.654  0.4166 -0.0061  0.1497
 4642TIP3   OH238120   3.149   2.266   1.475 -0.0589  0.1923 -0.6142
 4642TIP3    H138121   3.172   2.231   1.561  0.2610 -0.0158 -0.7789
 4642TIP3    H238122   3.136   2.359   1.490  2.4502  0.6440 -0.7625
 4643TIP3   OH238123   3.612   2.556   7.156  0.4560  0.1736 -0.1525
 4643TIP3    H138124   3.536   2.541   7.099  0.8584  0.9981 -0.9326
 4643TIP3    H238125   3.685   2.516   7.109  0.7691  0.7589 -0.1667
 4644TIP3   OH238126   1.549   4.869   3.012 -0.2237  0.2719  0.1242
 4644TIP3    H138127   1.597   4.791   3.038  0.4475  0.7856  0.4758
 4644TIP3    H238128   1.603   4.942   3.045 -1.4779  0.8535  0.9546
 4645TIP3   OH238129   1.403   0.395   2.462  0.0634 -0.4060  0.6911
 4645TIP3    H138130   1.368   0.463   2.519 -0.7687 -0.6483  0.4878
 4645TIP3    H238131   1.377   0.313   2.504  0.8079 -0.6075  0.7813
 4646TIP3   OH238132   3.575   4.145   8.017  1.1177  0.1390 -0.0818
 4646TIP3    H138133   3.644   4.091   8.055 -0.7027 -3.0117 -0.9207
 4646TIP3    H238134   3.523   4.174   8.093  1.8001  0.2888  0.3367
 4647TIP3   OH238135   1.721   5.170   8.552  0.8704  0.3298  0.0431
 4647TIP3    H138136   1.703   5.100   8.615  0.2900 -0.7355 -1.2246
 4647TIP3    H238137   1.772   5.127   8.483  0.2855  1.0853 -0.8851
 4648TIP3   OH238138   5.113   5.500   1.695 -0.1638  0.3046 -0.2991
 4648TIP3    H138139   5.083   5.468   1.610  1.1743  0.2148 -0.7721
 4648TIP3    H238140   5.033   5.525   1.741 -1.2798 -2.8312 -0.2420
 4649TIP3   OH238141   6.970   4.215   0.679  0.1544 -0.3383  0.2794
 4649TIP3    H138142   7.014   4.227   0.595 -0.3046  1.1142  0.2188
 4649TIP3    H238143   6.890   4.167   0.658  0.4792 -0.7765  0.0271
 4650TIP3   OH238144   2.326   1.552   2.622 -0.3620 -0.7100  0.2126
 4650TIP3    H138145   2.337   1.645   2.644  0.8397 -1.0777  1.2884
 4650TIP3    H238146   2.252   1.524   2.676 -0.8746 -0.3339 -0.2825
 4651TIP3   OH238147   5.137   6.658   8.027  0.1604  0.3165  0.2079
 4651TIP3    H138148   5.041   6.654   8.023  0.2207 -0.7440 -0.5300
 4651TIP3    H238149   5.155   6.730   8.088 -1.0852  1.4554 -0.7038
 4652TIP3   OH238150   3.510   6.738   6.818  0.3531  0.0768 -0.6219
 4652TIP3    H138151   3.522   6.644   6.827 -1.0333 -0.1316 -0.6268
 4652TIP3    H238152   3.504   6.753   6.723  0.1451  0.0923 -0.6086
 4653TIP3   OH238153   0.272   3.343   1.908 -0.5910 -0.3213  0.2559
 4653TIP3    H138154   0.209   3.320   1.976 -1.8675 -1.2729 -1.1890
 4653TIP3    H238155   0.311   3.260   1.881  1.5228  0.2640  1.2733
 4654TIP3   OH238156   1.251   4.022   8.240  0.1167 -0.8856  0.4862
 4654TIP3    H138157   1.276   4.092   8.300 -0.4074 -1.4964  1.4319
 4654TIP3    H238158   1.329   3.966   8.235 -0.2357 -1.4803  1.5404
 4655TIP3   OH238159   1.669   6.354   2.430  0.6661 -0.5490 -0.3035
 4655TIP3    H138160   1.617   6.302   2.369  0.3278  0.8235 -1.2115
 4655TIP3    H238161   1.639   6.327   2.517 -1.7821  0.3811 -0.7851
 4656TIP3   OH238162   0.643   4.858   1.896  0.3655 -0.2760 -0.1640
 4656TIP3    H138163   0.680   4.852   1.984  1.0488 -0.7903 -0.4805
 4656TIP3    H238164   0.594   4.776   1.885 -0.0310 -0.0456 -0.1228
 4657TIP3   OH238165   3.902   5.153   2.850 -0.2761  0.3061  0.0437
 4657TIP3    H138166   3.948   5.234   2.830 -1.0377  0.1677 -2.6223
 4657TIP3    H238167   3.970   5.086   2.850 -0.1486  0.3653 -2.0878
 4658TIP3   OH238168   6.035   6.101   7.673 -0.1975  0.0636 -0.3895
 4658TIP3    H138169   6.016   6.195   7.670  1.5504  0.4438 -0.1565
 4658TIP3    H238170   5.982   6.069   7.747 -0.4308  0.9433 -0.1627
 4659TIP3   OH238171   1.085   0.269   9.371  0.3160 -0.0768  0.0425
 4659TIP3    H138172   1.068   0.176   9.355  0.5803 -0.1482  0.1787
 4659TIP3    H238173   1.163   0.289   9.320 -0.3888  0.3548 -0.9119
 4660TIP3   OH238174   0.171   4.379   0.108 -0.3713 -0.6499 -0.8590
 4660TIP3    H138175   0.105   4.314   0.084 -2.1779  1.4707 -2.1045
 4660TIP3    H238176   0.189   4.427   0.027  0.5490  0.6753  0.0745
 4661TIP3   OH238177   5.163   1.984   8.723 -0.0080 -0.3815  0.1105
 4661TIP3    H138178   5.245   2.030   8.743  0.5336 -1.8060  1.3739
 4661TIP3    H238179   5.181   1.893   8.745 -2.3510 -0.5271  1.8343
 4662TIP3   OH238180   1.221   3.853   2.046 -0.2762 -0.5376 -1.0693
 4662TIP3    H138181   1.225   3.927   1.985 -0.9328 -0.2885 -0.8184
 4662TIP3    H238182   1.277   3.879   2.119 -0.8138 -0.1071 -0.8009
 4663TIP3   OH238183   0.110   2.740   9.670 -0.4682 -0.2199  0.2705
 4663TIP3    H138184   0.168   2.719   9.743 -2.1868 -0.8356  1.5183
 4663TIP3    H238185   0.118   2.664   9.611 -0.2108 -0.4168  0.5572
 4664TIP3   OH238186   1.746   6.120   2.282  0.4630 -0.3708 -0.3266
 4664TIP3    H138187   1.711   6.165   2.206  1.7866  0.2837 -0.5828
 4664TIP3    H238188   1.804   6.184   2.323  2.9024 -1.9667 -1.0406
 4665TIP3   OH238189   6.603   0.478   0.623 -0.1282  0.1824  0.0574
 4665TIP3    H138190   6.669   0.518   0.567  0.1346 -1.2502 -0.7139
 4665TIP3    H238191   6.531   0.457   0.564 -1.6476  2.3746  1.0051
 4666TIP3   OH238192   2.520   6.413   1.447  0.2814 -0.4357 -0.1440
 4666TIP3    H138193   2.451   6.400   1.383  0.7168  0.7803 -0.8889
 4666TIP3    H238194   2.555   6.499   1.427  1.8959 -0.9511  0.3286
 4667TIP3   OH238195   0.784   3.058   0.234  0.2791  0.1827 -0.2891
 4667TIP3    H138196   0.728   3.064   0.156  0.2359 -0.2559 -0.2963
 4667TIP3    H238197   0.755   2.978   0.278 -0.6277  1.1582  0.9223
 4668TIP3   OH238198   4.546   2.200   8.421  0.1592 -0.6403  0.2176
 4668TIP3    H138199   4.535   2.295   8.426 -0.7534 -0.7064 -0.2798
 4668TIP3    H238200   4.526   2.179   8.330  2.3596 -1.0836 -0.2358
 4669TIP3   OH238201   5.990   2.941   0.131  0.1788 -0.2322 -0.0668
 4669TIP3    H138202   5.974   2.850   0.105 -2.1247  0.3435 -0.8924
 4669TIP3    H238203   6.039   2.934   0.213 -1.0864 -2.2294  0.5863
 4670TIP3   OH238204   2.478   1.255   8.051  0.2009  0.2322  0.6865
 4670TIP3    H138205   2.478   1.186   7.984  1.5434  1.1732 -0.3326
 4670TIP3    H238206   2.520   1.330   8.008 -1.5846  1.8521  1.6098
 4671TIP3   OH238207   5.927   0.139   8.505 -0.6021  0.4599  0.7927
 4671TIP3    H138208   5.844   0.183   8.526 -0.6674  1.4886 -1.4208
 4671TIP3    H238209   5.953   0.174   8.420  0.9415 -1.5576  0.3487
 4672TIP3   OH238210   3.571   0.586   7.938 -0.3386 -0.4736  0.5538
 4672TIP3    H138211   3.614   0.509   7.902  0.9821  0.5734 -0.1854
 4672TIP3    H238212   3.588   0.582   8.032  3.4650  1.0581  0.0906
 4673TIP3   OH238213   0.566   3.592   1.386 -0.2845  0.6426 -0.2616
 4673TIP3    H138214   0.656   3.626   1.392  0.1113 -0.1569 -1.2593
 4673TIP3    H238215   0.521   3.655   1.331 -0.0500  0.5154 -0.6039
 4674TIP3   OH238216   2.734   5.231   8.790 -0.2748  0.0662 -0.3421
 4674TIP3    H138217   2.665   5.169   8.814 -0.5478  0.0969 -1.0218
 4674TIP3    H238218   2.688   5.301   8.744 -0.2708  1.8403  2.1941
 4675TIP3   OH238219   5.119   0.196   0.868  0.2396  0.3456 -0.0096
 4675TIP3    H138220   5.148   0.105   0.877 -1.6322 -0.2094  0.9325
 4675TIP3    H238221   5.092   0.203   0.776  0.0893 -0.1559 -0.0104
 4676TIP3   OH238222   7.117   2.790   1.761  0.6185  0.1205 -0.3499
 4676TIP3    H138223   7.027   2.796   1.730  0.6874 -1.5866 -1.0241
 4676TIP3    H238224   7.171   2.799   1.682  0.9938  0.1982 -0.0895
 4677TIP3   OH238225   2.887   5.171   9.970  0.6199  0.0241  0.1577
 4677TIP3    H138226   2.952   5.102   9.983  1.9347  1.1641 -0.1462
 4677TIP3    H238227   2.901   5.231  10.043 -0.4492  0.0388  0.3660
 4678TIP3   OH238228   5.497   6.933   8.306 -0.0946  0.1155  0.3377
 4678TIP3    H138229   5.520   6.927   8.399  0.0331  0.7641  0.3504
 4678TIP3    H238230   5.545   7.009   8.274  0.0437 -0.2439 -0.3187
 4679TIP3   OH238231   6.979   3.895   9.218 -0.3262  0.6906  0.8936
 4679TIP3    H138232   6.915   3.966   9.207  0.5535  1.6300  1.6681
 4679TIP3    H238233   6.932   3.828   9.267 -0.8552  1.1727  1.0567
 4680TIP3   OH238234   6.295   6.456   1.811 -0.5190  0.0060 -0.1346
 4680TIP3    H138235   6.231   6.501   1.866  0.6417  0.6388  0.7594
 4680TIP3    H238236   6.374   6.451   1.865  0.6016  0.4373 -1.6507
 4681TIP3   OH238237   2.604   2.022   7.092  0.1544  0.4718  0.6998
 4681TIP3    H138238   2.613   2.117   7.093 -0.0402  0.5153 -0.5870
 4681TIP3    H238239   2.684   1.990   7.050 -0.6626  0.2068 -0.7144
 4682TIP3   OH238240   1.686   4.373   2.407  0.2119  0.3856 -0.3075
 4682TIP3    H138241   1.702   4.280   2.425  1.3534  0.4592 -0.8489
 4682TIP3    H238242   1.738   4.419   2.473  2.7297  0.6362 -2.3127
 4683TIP3   OH238243   4.097   4.739   8.353  0.4443  0.6605 -0.9474
 4683TIP3    H138244   4.036   4.703   8.288 -1.9281  1.6409  0.6085
 4683TIP3    H238245   4.105   4.832   8.330 -1.5801  1.3614  0.9017
 4684TIP3   OH238246   5.099   3.776   0.817  0.6004 -0.1895  0.3210
 4684TIP3    H138247   5.089   3.726   0.897  0.8408 -0.0959  0.4122
 4684TIP3    H238248   5.132   3.861   0.846 -0.2655  0.1876  0.2102
 4685TIP3   OH238249   4.829   1.308   9.308 -0.1020  0.3096 -0.4065
 4685TIP3    H138250   4.749   1.257   9.294 -0.9675  1.8808 -1.4018
 4685TIP3    H238251   4.800   1.399   9.310  1.5543  0.8655  0.1690
 4686TIP3   OH238252   2.603   4.498   0.650  0.0335  0.1450  0.0533
 4686TIP3    H138253   2.695   4.504   0.622 -0.3695 -1.7310 -1.9641
 4686TIP3    H238254   2.570   4.420   0.606 -2.6060  0.8581  0.5991
 4687TIP3   OH238255   1.079   6.922   6.993 -0.1933  0.1757  0.1236
 4687TIP3    H138256   1.056   7.004   7.037 -1.1765 -0.0392  0.0315
 4687TIP3    H238257   1.172   6.932   6.971  0.1288  0.6004  1.5500
 4688TIP3   OH238258   4.095   3.134   9.876  1.0691 -0.3574 -0.1897
 4688TIP3    H138259   4.145   3.121   9.956  0.1495 -1.6708  0.2110
 4688TIP3    H238260   4.147   3.196   9.824  2.2986 -0.4716  0.8677
 4689TIP3   OH238261   5.812   7.168   0.566  0.0456 -0.2849  0.6511
 4689TIP3    H138262   5.900   7.177   0.530 -0.1366  1.1862  0.5155
 4689TIP3    H238263   5.804   7.075   0.586  0.5410 -1.0105 -2.1052
 4690TIP3   OH238264   6.590   7.116   7.392 -0.1895  0.4078 -0.1318
 4690TIP3    H138265   6.632   7.202   7.388  0.1174  0.2764  0.1693
 4690TIP3    H238266   6.545   7.115   7.476 -0.9054  0.5940 -0.5079
 4691TIP3   OH238267   5.724   6.347   8.842  0.0053  0.0435 -0.1836
 4691TIP3    H138268   5.642   6.355   8.892 -0.4535 -1.5789 -0.6028
 4691TIP3    H238269   5.721   6.258   8.806  1.6130  0.2232 -0.8361
 4692TIP3   OH238270   5.364   3.878   8.857 -0.2597 -0.3668  0.2513
 4692TIP3    H138271   5.385   3.795   8.900  1.9390  0.6103  1.1980
 4692TIP3    H238272   5.443   3.931   8.867 -1.8697  2.1510  0.4010
 4693TIP3   OH238273   4.217   0.377   2.240  0.1679  0.4757  0.1502
 4693TIP3    H138274   4.156   0.412   2.305 -1.5842 -1.1247 -0.5242
 4693TIP3    H238275   4.161   0.332   2.177  1.8997  0.9781 -1.8576
 4694TIP3   OH238276   5.839   0.264   1.911  0.2915 -0.3248  0.4909
 4694TIP3    H138277   5.917   0.319   1.904 -1.1250  1.5784 -2.5282
 4694TIP3    H238278   5.860   0.185   1.861  0.2423  0.2681 -0.4797
 4695TIP3   OH238279   2.131   2.370   7.754 -0.0083  0.0312 -1.0025
 4695TIP3    H138280   2.063   2.369   7.822  0.0701 -0.8510 -0.9293
 4695TIP3    H238281   2.129   2.459   7.720 -1.5673 -0.1043 -1.3613
 4696TIP3   OH238282   6.541   5.659   0.277  0.0319 -0.1700 -0.6917
 4696TIP3    H138283   6.451   5.630   0.260 -0.0761 -1.4583  1.6698
 4696TIP3    H238284   6.531   5.739   0.328  0.2238 -0.4610 -0.1979
 4697TIP3   OH238285   3.987   3.328   8.202  0.6152  0.0040 -0.4629
 4697TIP3    H138286   4.027   3.375   8.129 -2.2880  2.5776 -0.6280
 4697TIP3    H238287   4.045   3.345   8.276  2.6142 -1.0482 -1.6997
 4698TIP3   OH238288   1.619   6.996   7.611 -0.3170 -0.4991 -0.0441
 4698TIP3    H138289   1.642   7.079   7.570  0.0859 -0.5596  0.0553
 4698TIP3    H238290   1.679   6.989   7.685 -1.6299  0.0299  1.0977
 4699TIP3   OH238291   0.460   5.807   9.013  0.1207  0.3495  0.2274
 4699TIP3    H138292   0.404   5.844   9.081  1.3457 -0.5287  1.7708
 4699TIP3    H238293   0.548   5.840   9.033  0.7589 -1.1323  0.0039
 4700TIP3   OH238294   6.694   1.841   2.314  0.2824 -0.2960  0.3754
 4700TIP3    H138295   6.616   1.786   2.304 -0.0041  0.3002 -0.9683
 4700TIP3    H238296   6.765   1.788   2.278  0.0104  0.1551 -0.8960
 4701TIP3   OH238297   2.137   4.413   1.189 -0.0415 -0.5027 -0.1880
 4701TIP3    H138298   2.165   4.344   1.249  2.3117  0.2047 -0.3909
 4701TIP3    H238299   2.176   4.389   1.105 -0.9676 -0.0067 -0.7762
 4702TIP3   OH238300   7.020   5.945   0.949 -0.1325 -0.0816 -0.2206
 4702TIP3    H138301   7.115   5.948   0.945 -0.1667  0.6297 -0.6459
 4702TIP3    H238302   6.999   5.851   0.950  0.5253 -0.2574 -1.3672
 4703TIP3   OH238303   0.104   6.125   8.425 -0.4649  0.0265 -0.3615
 4703TIP3    H138304   0.182   6.079   8.395  0.9713  1.5958  0.8173
 4703TIP3    H238305   0.102   6.110   8.519 -0.9417  0.9337 -0.2149
 4704TIP3   OH238306   3.999   0.222   9.673  0.0962 -0.4899 -0.1257
 4704TIP3    H138307   3.962   0.234   9.760 -0.1151 -0.2081 -0.2530
 4704TIP3    H238308   3.924   0.231   9.614 -0.1340 -2.5554 -0.2370
 4705TIP3   OH238309   6.702   3.344   7.166  0.5167  0.3264 -0.3399
 4705TIP3    H138310   6.789   3.365   7.134  0.8064 -0.9605 -0.4506
 4705TIP3    H238311   6.686   3.254   7.137  0.4645 -0.6431  2.3351
 4706TIP3   OH238312   2.501   3.619   0.831 -0.2454 -0.0601  0.0559
 4706TIP3    H138313   2.492   3.535   0.875  1.7102 -1.1471 -1.4841
 4706TIP3    H238314   2.574   3.607   0.770 -0.4485  2.5015 -0.8086
 4707TIP3   OH238315   4.424   7.036   7.257  0.6005  0.3252 -0.3602
 4707TIP3    H138316   4.426   6.969   7.189 -1.5387  0.1065 -0.2885
 4707TIP3    H238317   4.483   7.105   7.226  0.2913 -0.1389 -2.0554
 4708TIP3   OH238318   2.928   5.883   1.717 -0.1015 -0.3362  0.4225
 4708TIP3    H138319   2.903   5.792   1.700 -0.2858 -0.4569  1.3216
 4708TIP3    H238320   2.983   5.907   1.642 -0.7587 -0.9102 -0.2514
 4709TIP3   OH238321   1.303   1.963   7.320 -0.0057  0.4780 -0.0646
 4709TIP3    H138322   1.255   1.882   7.339  0.3668  0.7165  2.1746
 4709TIP3    H238323   1.388   1.951   7.362  0.2418  1.8217 -0.1439
 4710TIP3   OH238324   4.906   2.237   9.949 -0.0127  0.3480 -0.4617
 4710TIP3    H138325   4.828   2.191   9.982 -0.8329  1.1038 -1.2680
 4710TIP3    H238326   4.890   2.245   9.855  2.5120 -2.2216 -1.2384
 4711TIP3   OH238327   7.152   6.869   8.919 -0.1901 -1.0022  0.3563
 4711TIP3    H138328   7.189   6.955   8.934  0.8706 -1.2996 -0.4326
 4711TIP3    H238329   7.069   6.885   8.874  0.7020 -0.4292 -1.1298
 4712TIP3   OH238330   0.790   6.465   1.760  0.8519  0.1899  0.5503
 4712TIP3    H138331   0.717   6.527   1.752  0.4647  0.1162  2.6676
 4712TIP3    H238332   0.748   6.381   1.778  1.4066  0.1916  2.0453
 4713TIP3   OH238333   3.443   6.661   2.052 -0.3465  0.4234  0.1626
 4713TIP3    H138334   3.468   6.713   1.976 -1.8612 -0.1956 -0.8106
 4713TIP3    H238335   3.348   6.648   2.042 -0.7012  0.7986  2.4566
 4714TIP3   OH238336   1.578   5.134   0.998 -0.0838 -0.0834  0.2714
 4714TIP3    H138337   1.578   5.039   0.983 -0.1655  0.1049 -1.0525
 4714TIP3    H238338   1.648   5.167   0.942  0.4461  0.5796  1.2896
 4715TIP3   OH238339   2.105   4.141   1.733 -0.0290 -0.5145 -0.0545
 4715TIP3    H138340   2.176   4.201   1.712  0.6407 -1.7589 -1.5427
 4715TIP3    H238341   2.109   4.074   1.665 -2.1778 -1.0226  0.2410
 4716TIP3   OH238342   1.624   5.374   7.453  1.0700 -0.6615 -0.4242
 4716TIP3    H138343   1.542   5.422   7.466  0.9769 -0.6483 -1.0437
 4716TIP3    H238344   1.633   5.320   7.532  0.6334 -0.4155 -0.2061
 4717TIP3   OH238345   6.375   1.466   8.827 -0.0048  0.3192  0.6103
 4717TIP3    H138346   6.350   1.549   8.867 -1.7577  1.2389 -2.1288
 4717TIP3    H238347   6.308   1.405   8.857 -0.6144  0.7026  0.0438
 4718TIP3   OH238348   6.368   4.567   2.407  0.2331  0.2421  0.2429
 4718TIP3    H138349   6.455   4.578   2.368  0.8763 -0.0491  1.5600
 4718TIP3    H238350   6.385   4.541   2.497 -1.2116  1.5374  0.9344
 4719TIP3   OH238351   4.910   1.168   8.263 -0.6733  0.1639  0.0031
 4719TIP3    H138352   4.839   1.176   8.327 -0.4242 -0.8985  0.4407
 4719TIP3    H238353   4.941   1.078   8.274  1.1731  0.8037  0.2594
 4720TIP3   OH238354   7.180   6.190   7.422 -0.6355 -0.0135 -0.2358
 4720TIP3    H138355   7.272   6.185   7.394 -1.3167 -2.5915 -2.4322
 4720TIP3    H238356   7.184   6.176   7.517  1.1926 -1.6938 -0.4923
 4721TIP3   OH238357   1.914   6.584   7.490 -0.0289  0.2715 -0.3011
 4721TIP3    H138358   1.878   6.573   7.578 -1.2004  1.2467 -0.6370
 4721TIP3    H238359   2.009   6.586   7.503 -0.1277 -0.8611  0.7823
 4722TIP3   OH238360   4.770   6.357   1.117  0.1976 -0.5297  0.5083
 4722TIP3    H138361   4.716   6.345   1.039 -0.4820  0.8619  0.7441
 4722TIP3    H238362   4.713   6.403   1.178  0.1199 -3.0487  2.5162
 4723TIP3   OH238363   5.432   2.209   2.056  0.0126 -0.5107 -0.1550
 4723TIP3    H138364   5.391   2.154   1.990  0.6967 -1.1113 -0.0841
 4723TIP3    H238365   5.453   2.290   2.009  1.7589 -1.4347 -1.0710
 4724TIP3   OH238366   4.745   3.459   2.741 -0.1887 -0.0606 -0.9099
 4724TIP3    H138367   4.750   3.424   2.652 -3.6042 -2.3669 -0.3432
 4724TIP3    H238368   4.680   3.405   2.785 -0.2914  2.4384  2.3594
 4725TIP3   OH238369   1.829   6.668   6.868 -0.2497 -0.0048 -0.0936
 4725TIP3    H138370   1.866   6.717   6.941  0.1348 -0.5476  0.0794
 4725TIP3    H238371   1.739   6.699   6.862  0.0185  0.8049 -0.0600
 4726TIP3   OH238372   1.438   0.375   8.216  0.0545 -0.1175  0.0410
 4726TIP3    H138373   1.370   0.378   8.148 -0.1561 -1.7750  0.1538
 4726TIP3    H238374   1.407   0.310   8.279  1.0194  0.2301  0.9136
 4727TIP3   OH238375   2.854   6.710   7.033  0.3835 -0.2553  0.1422
 4727TIP3    H138376   2.870   6.777   6.966  2.3884 -1.3038 -0.5132
 4727TIP3    H238377   2.766   6.678   7.013 -0.2122  1.4485 -0.1515
 4728TIP3   OH238378   5.829   1.038   9.338  0.0617 -0.3138 -0.4446
 4728TIP3    H138379   5.762   1.103   9.357  1.8517  1.2641  0.9199
 4728TIP3    H238380   5.854   1.055   9.247 -1.1534 -0.7427 -0.8749
 4729TIP3   OH238381   1.050   5.414   0.993 -0.0196 -0.7602 -0.6375
 4729TIP3    H138382   1.110   5.355   0.947  0.2920 -0.1196 -1.0651
 4729TIP3    H238383   1.082   5.413   1.084  0.4957 -0.6147 -0.8116
 4730TIP3   OH238384   0.169   5.030   3.424 -0.3670 -0.1685 -0.6248
 4730TIP3    H138385   0.204   5.076   3.347  2.8512 -1.4427 -0.0678
 4730TIP3    H238386   0.206   5.076   3.499 -0.1641 -1.3550  0.0278
 4731TIP3   OH238387   4.442   1.550   1.716 -0.1702 -0.0097 -0.6231
 4731TIP3    H138388   4.498   1.569   1.790 -0.3292  0.6193 -0.6595
 4731TIP3    H238389   4.399   1.633   1.696  0.9083  0.1989 -2.2918
 4732TIP3   OH238390   4.270   5.518   9.095  0.5885  0.2255  0.0918
 4732TIP3    H138391   4.335   5.480   9.037 -0.2301  0.3683 -0.9434
 4732TIP3    H238392   4.227   5.586   9.043 -0.8026 -0.2847  0.5277
 4733TIP3   OH238393   1.849   1.658   7.398 -0.4480 -0.3436 -0.1040
 4733TIP3    H138394   1.936   1.642   7.361 -0.6623 -1.1331 -0.3015
 4733TIP3    H238395   1.861   1.732   7.457  0.3281 -0.3447 -0.2482
 4734TIP3   OH238396   5.014   5.756   2.405  0.4298  0.4125 -0.5108
 4734TIP3    H138397   4.992   5.822   2.470 -0.4986  0.0801 -0.4817
 4734TIP3    H238398   5.004   5.800   2.321  2.0053  0.9581 -0.4463
 4735TIP3   OH238399   4.753   0.454   0.698 -0.1857  0.1595 -0.2581
 4735TIP3    H138400   4.727   0.435   0.608  3.0007 -0.2716 -1.1989
 4735TIP3    H238401   4.736   0.372   0.745  1.3305 -0.8346 -1.3269
 4736TIP3   OH238402   0.972   7.027   0.148  0.0683 -0.3739 -0.1219
 4736TIP3    H138403   1.014   7.050   0.065 -0.8862 -1.1229 -0.8238
 4736TIP3    H238404   0.908   6.960   0.126 -0.7959  0.0053  1.0923
 4737TIP3   OH238405   1.822   5.439   9.278 -0.4689  0.2871 -0.1900
 4737TIP3    H138406   1.896   5.416   9.222  2.0086  0.4620  2.7078
 4737TIP3    H238407   1.790   5.355   9.312  0.2416  0.3411  0.6473
 4738TIP3   OH238408   4.552   2.688   8.223 -0.1668  0.4201  0.5602
 4738TIP3    H138409   4.519   2.685   8.313  1.3019  0.7270  1.1337
 4738TIP3    H238410   4.537   2.600   8.189  0.5959 -0.1322  1.6097
 4739TIP3   OH238411   1.538   5.956   1.917 -0.4044  0.0545 -1.2545
 4739TIP3    H138412   1.526   5.877   1.865  1.4553 -0.4240 -1.0355
 4739TIP3    H238413   1.505   5.933   2.004  1.3592 -1.0040 -0.8150
 4740TIP3   OH238414   6.335   5.395   8.672 -0.3371 -0.4126 -0.6603
 4740TIP3    H138415   6.301   5.484   8.667 -0.6206 -0.5630 -1.9753
 4740TIP3    H238416   6.362   5.384   8.763 -1.3885  0.6058 -0.2038
 4741TIP3   OH238417   5.181   1.308   9.711 -0.2860 -0.2398  0.0608
 4741TIP3    H138418   5.219   1.395   9.704 -1.6186  0.4374  0.9254
 4741TIP3    H238419   5.183   1.287   9.804 -1.3037 -0.4984  0.0429
 4742TIP3   OH238420   2.858   4.058   0.338  0.6749 -0.0261  0.2148
 4742TIP3    H138421   2.836   3.988   0.399  3.3244 -0.7225  0.4810
 4742TIP3    H238422   2.829   4.139   0.381 -1.9621 -0.8500  0.1227
 4743TIP3   OH238423   3.779   6.860   0.573  0.0652 -0.0833 -0.0594
 4743TIP3    H138424   3.759   6.797   0.504 -1.8507  0.1816  0.1904
 4743TIP3    H238425   3.696   6.872   0.619  0.4727  2.2860  0.1898
 4744TIP3   OH238426   2.200   2.854   7.551  0.3334 -0.4918  0.7475
 4744TIP3    H138427   2.289   2.889   7.545  0.7714 -1.7001 -0.1749
 4744TIP3    H238428   2.149   2.909   7.493  0.9751 -1.2012 -0.5327
 4745TIP3   OH238429   5.587   4.335   0.976  0.4410 -0.2764 -0.0937
 4745TIP3    H138430   5.600   4.422   1.016  0.2834  0.0087 -0.6498
 4745TIP3    H238431   5.674   4.309   0.947  0.7604 -0.9788  1.3948
 4746TIP3   OH238432   2.444   1.793   9.676 -0.4994 -0.2657  0.0082
 4746TIP3    H138433   2.353   1.787   9.647 -0.6318 -0.5750  0.4744
 4746TIP3    H238434   2.480   1.706   9.660 -0.5138 -0.3784  0.5503
 4747TIP3   OH238435   5.530   6.496   0.327  0.0312  0.4455 -0.1786
 4747TIP3    H138436   5.517   6.444   0.248  2.1335  1.2571 -1.1356
 4747TIP3    H238437   5.516   6.587   0.299 -0.3357  0.6532  0.6552
 4748TIP3   OH238438   3.231   1.395   9.433  0.2347 -0.1843  0.2210
 4748TIP3    H138439   3.206   1.409   9.524 -0.0563 -0.3225  0.1670
 4748TIP3    H238440   3.209   1.477   9.389 -0.5418 -0.4447  0.0934
 4749TIP3   OH238441   4.433   7.067   0.872 -0.5387  0.0507  0.5034
 4749TIP3    H138442   4.457   6.996   0.931 -2.1160 -1.4177 -0.4952
 4749TIP3    H238443   4.514   7.115   0.856  1.2678 -3.1905 -0.9226
 4750TIP3   OH238444   5.520   1.166   6.915  0.1995  0.0086 -0.2869
 4750TIP3    H138445   5.613   1.146   6.904  0.6564  0.8896  1.5193
 4750TIP3    H238446   5.476   1.121   6.842  1.9202 -1.3059 -0.5710
 4751TIP3   OH238447   2.572   1.217   8.342 -0.0483  0.4428  0.0619
 4751TIP3    H138448   2.565   1.121   8.342  0.1078  0.4261  0.6043
 4751TIP3    H238449   2.595   1.239   8.252 -0.7266  0.0222 -0.2249
 4752TIP3   OH238450   1.348   4.429   9.140 -0.0447  0.1967  0.0255
 4752TIP3    H138451   1.384   4.400   9.056  1.8402 -1.6106  1.3461
 4752TIP3    H238452   1.364   4.524   9.142  2.5504 -0.1538 -0.5119
 4753TIP3   OH238453   4.334   2.921   7.713 -0.1174 -0.1662 -0.3532
 4753TIP3    H138454   4.312   2.862   7.642 -2.1890 -0.8604  0.7690
 4753TIP3    H238455   4.429   2.921   7.717  0.0077 -0.9277 -2.4029
 4754TIP3   OH238456   6.159   7.086   7.417  0.1381 -0.6145 -0.0756
 4754TIP3    H138457   6.235   7.142   7.400  1.3735 -2.0008  0.6923
 4754TIP3    H238458   6.163   7.020   7.349  1.3505 -2.3780  1.6043
 4755TIP3   OH238459   6.790   4.835   0.961 -0.0110  0.2160 -0.1486
 4755TIP3    H138460   6.708   4.830   1.009  0.5968 -2.2532  0.7653
 4755TIP3    H238461   6.764   4.836   0.869 -1.0865  1.8840  0.1317
 4756TIP3   OH238462   6.046   6.302   7.327 -0.3704 -0.9642 -0.5340
 4756TIP3    H138463   5.978   6.370   7.329  0.3889 -0.1959  0.9919
 4756TIP3    H238464   5.999   6.221   7.346 -0.8644 -0.4162  0.6855
 4757TIP3   OH238465   6.713   0.127   8.732  0.1906 -0.6985  0.3159
 4757TIP3    H138466   6.750   0.213   8.711 -1.0114 -0.4941 -1.1100
 4757TIP3    H238467   6.736   0.073   8.656 -1.4458 -0.8641 -0.0806
 4758TIP3   OH238468   5.528   3.810   9.412  0.2366  0.8488  0.2895
 4758TIP3    H138469   5.612   3.798   9.455  1.1813  2.1729 -1.1094
 4758TIP3    H238470   5.502   3.722   9.385  1.2198  0.4448  0.6286
 4759TIP3   OH238471   4.029   4.367   7.176  0.2358  0.9611  0.1886
 4759TIP3    H138472   4.037   4.272   7.191 -0.0165  1.0795  1.1405
 4759TIP3    H238473   4.114   4.392   7.139  0.3867  0.4059  0.1422
 4760TIP3   OH238474   0.621   2.150   8.372 -0.0896 -0.3918  0.0474
 4760TIP3    H138475   0.616   2.064   8.332 -0.6181 -0.6884  0.7265
 4760TIP3    H238476   0.601   2.135   8.464  0.2264  0.3989  0.2565
 4761TIP3   OH238477   5.834   4.809   2.074 -0.3158  0.4362 -0.4143
 4761TIP3    H138478   5.922   4.770   2.070  1.0576  3.0643  1.3480
 4761TIP3    H238479   5.800   4.784   2.159  0.0070  1.8243  0.1503
 4762TIP3   OH238480   3.897   0.332   9.369 -0.0476 -0.2371  0.0822
 4762TIP3    H138481   3.862   0.392   9.303  0.9037  0.1427 -0.0837
 4762TIP3    H238482   3.889   0.246   9.328  0.0677 -0.0574 -0.3263
 4763TIP3   OH238483   5.098   2.823   9.071 -0.1206  0.1309 -0.2188
 4763TIP3    H138484   5.052   2.739   9.071  0.8208 -0.3953  0.2168
 4763TIP3    H238485   5.133   2.830   8.982  0.6818 -0.4455  0.0389
 4764TIP3   OH238486   5.223   2.685   8.536 -0.5327  0.4597  0.2794
 4764TIP3    H138487   5.143   2.719   8.578  0.5577  1.4000  1.7213
 4764TIP3    H238488   5.251   2.755   8.478 -1.7204 -0.6141 -1.6896
 4765TIP3   OH238489   1.791   1.399   2.194  0.0082  0.2498 -0.1696
 4765TIP3    H138490   1.822   1.389   2.284 -0.1400  0.3396 -0.1096
 4765TIP3    H238491   1.741   1.319   2.177 -0.7098  0.6247  0.1250
 4766TIP3   OH238492   2.439   5.285   9.002  0.5936  0.0380  0.4148
 4766TIP3    H138493   2.361   5.313   8.953 -0.0798  0.1517  1.5192
 4766TIP3    H238494   2.449   5.352   9.070  1.5941 -0.0441  0.3523
 4767TIP3   OH238495   6.980   4.380   8.793 -0.1342 -0.6291 -0.7282
 4767TIP3    H138496   6.958   4.436   8.718 -2.2329  1.7443  1.4470
 4767TIP3    H238497   6.906   4.320   8.801 -0.0973 -0.6335 -0.3910
 4768TIP3   OH238498   1.594   5.935   0.901  0.3919  0.4631 -0.7789
 4768TIP3    H138499   1.536   6.002   0.865 -0.6417  0.2391  0.4087
 4768TIP3    H238500   1.679   5.952   0.859 -0.3080  1.3344 -1.8946
 4769TIP3   OH238501   6.929   5.552   2.148  0.0619  0.1204 -0.6598
 4769TIP3    H138502   6.962   5.642   2.149 -1.4776  0.7461  1.1128
 4769TIP3    H238503   7.007   5.498   2.133  1.7066  1.5813  1.7845
 4770TIP3   OH238504   6.764   0.993   8.548 -0.3377 -0.2048 -0.2716
 4770TIP3    H138505   6.848   0.984   8.505  0.2032  0.9710  0.4740
 4770TIP3    H238506   6.767   0.932   8.621  1.2434  2.0597  1.7187
 4771TIP3   OH238507   3.352   5.957   8.789  0.0583 -0.0240 -0.0479
 4771TIP3    H138508   3.267   5.923   8.818 -0.7021  1.4220 -0.4477
 4771TIP3    H238509   3.378   5.898   8.718 -0.8134 -0.2593 -0.1919
 4772TIP3   OH238510   3.894   3.934   9.037  0.2368  0.1383  0.4476
 4772TIP3    H138511   3.852   3.865   8.986  1.8135 -0.8975  0.4899
 4772TIP3    H238512   3.941   3.986   8.973 -0.1034  0.5575  0.5365
 4773TIP3   OH238513   3.120   6.535   0.198 -0.1939  0.1176 -0.1381
 4773TIP3    H138514   3.105   6.617   0.151 -2.5157 -0.3247 -0.3127
 4773TIP3    H238515   3.063   6.471   0.154 -0.6896 -0.8683  1.8087
 4774TIP3   OH238516   3.914   1.563   1.275 -0.1845 -0.0245 -0.2139
 4774TIP3    H138517   3.937   1.521   1.192 -0.7064 -0.6150 -0.0693
 4774TIP3    H238518   3.825   1.532   1.294 -0.6390  1.2360 -0.1598
 4775TIP3   OH238519   6.045   6.406   0.477 -0.8011 -0.4933  0.3624
 4775TIP3    H138520   6.000   6.484   0.511  0.9425  0.2764  1.0119
 4775TIP3    H238521   6.091   6.370   0.552 -0.0214 -1.0218 -0.3555
 4776TIP3   OH238522   6.678   5.989   9.168 -0.2236 -1.0991  0.1682
 4776TIP3    H138523   6.681   6.024   9.079  0.8592 -2.8242 -0.5163
 4776TIP3    H238524   6.765   6.004   9.204  0.0615 -2.4274  0.0929
 4777TIP3   OH238525   2.609   7.007   1.982 -0.1549 -0.0046 -0.2437
 4777TIP3    H138526   2.536   6.991   1.921  1.4180 -0.4182 -2.1028
 4777TIP3    H238527   2.572   6.987   2.068 -1.6398 -2.4992 -1.3329
 4778TIP3   OH238528   2.876   7.129   1.053 -0.6221  0.4465 -0.3197
 4778TIP3    H138529   2.909   7.218   1.058  0.8074 -0.0641 -0.0645
 4778TIP3    H238530   2.806   7.125   1.117  0.7407  0.8211  1.2503
 4779TIP3   OH238531   6.174   5.045   9.189 -0.1220 -0.1981 -0.4198
 4779TIP3    H138532   6.262   5.014   9.165  0.0975 -0.7753  1.0431
 4779TIP3    H238533   6.118   4.968   9.180  0.3403 -1.0624  2.7669
 4780TIP3   OH238534   5.398   3.573   8.146  0.6061  0.3291 -0.2238
 4780TIP3    H138535   5.438   3.536   8.224 -1.7080 -2.7639 -0.2901
 4780TIP3    H238536   5.380   3.664   8.168  1.3614 -0.0669  2.2690
 4781TIP3   OH238537   0.007   7.256   1.741 -0.2424  0.1455 -0.6319
 4781TIP3    H138538  -0.087   7.273   1.739 -0.1784  0.7082 -3.4464
 4781TIP3    H238539   0.044   7.331   1.787 -1.0976  0.3899 -0.3244
 4782TIP3   OH238540   7.212   2.662   2.677  0.1609 -0.0017  0.0434
 4782TIP3    H138541   7.170   2.578   2.659 -0.4769  0.5249 -0.9689
 4782TIP3    H238542   7.240   2.655   2.769 -1.4847 -0.6418  0.5314
 4783TIP3   OH238543   1.139   3.237   7.175  0.1868  0.1359  0.1111
 4783TIP3    H138544   1.045   3.227   7.193  0.4988 -0.4809  1.5723
 4783TIP3    H238545   1.149   3.330   7.155 -0.6518  0.3381  0.5713
 4784TIP3   OH238546   1.556   1.605   9.363 -0.2157 -0.4374  0.5687
 4784TIP3    H138547   1.581   1.536   9.423 -0.4778 -0.1624  1.0012
 4784TIP3    H238548   1.520   1.674   9.419 -1.2334 -0.5102  0.0453
 4785TIP3   OH238549   7.107   5.857   1.696 -0.3480  0.8062  0.6138
 4785TIP3    H138550   7.164   5.892   1.765 -0.0757 -0.0278  0.8127
 4785TIP3    H238551   7.167   5.836   1.624 -0.2638 -0.9132  1.1510
 4786TIP3   OH238552   6.606   4.730   2.323 -0.4491 -0.3397 -0.6060
 4786TIP3    H138553   6.632   4.715   2.414 -0.2014 -1.0134 -0.7817
 4786TIP3    H238554   6.632   4.820   2.305  1.3854 -0.8327 -0.6309
 4787TIP3   OH238555   1.690   3.747   9.795 -0.0564  0.1172  0.6356
 4787TIP3    H138556   1.618   3.761   9.735 -0.7928 -2.8127  0.6729
 4787TIP3    H238557   1.754   3.697   9.744 -0.4917 -2.0054  2.0158
 4788TIP3   OH238558   3.812   4.523   1.071  0.4333 -0.3337  0.0823
 4788TIP3    H138559   3.835   4.496   1.160  1.2035 -0.6705 -0.2111
 4788TIP3    H238560   3.721   4.551   1.078  0.4654 -0.3977  0.9669
 4789TIP3   OH238561   3.194   5.487   0.476 -0.0481 -0.2353 -0.1475
 4789TIP3    H138562   3.262   5.434   0.516 -0.8727 -1.0961  0.1585
 4789TIP3    H238563   3.224   5.502   0.386 -0.4906 -2.5637 -0.7444
 4790TIP3   OH238564   0.215   0.894   0.933  0.1412  0.0479 -0.2231
 4790TIP3    H138565   0.178   0.818   0.888  0.0437 -0.0194 -0.0328
 4790TIP3    H238566   0.289   0.920   0.879  0.4020 -0.4108 -0.1019
 4791TIP3   OH238567   6.217   0.753   8.898 -0.4029  0.5038  0.2019
 4791TIP3    H138568   6.313   0.757   8.903 -0.4309  2.0399  0.2087
 4791TIP3    H238569   6.191   0.687   8.962  0.6031  0.8024  0.9313
 4792TIP3   OH238570   3.067   2.679   1.855 -0.1748 -0.5161  0.1267
 4792TIP3    H138571   3.078   2.751   1.792 -0.2332  0.3926  1.1398
 4792TIP3    H238572   3.092   2.716   1.939 -1.4931 -1.3060  0.8883
 4793TIP3   OH238573   4.141   3.933   7.614 -0.0232  0.0145  0.2360
 4793TIP3    H138574   4.137   4.010   7.671  0.1641  0.1002  0.1363
 4793TIP3    H238575   4.232   3.903   7.622  0.0793  0.1870 -0.2250
 4794TIP3   OH238576   5.626   2.782   0.556 -0.1938 -0.3340 -0.4479
 4794TIP3    H138577   5.576   2.781   0.638 -0.8297 -0.5472 -0.8328
 4794TIP3    H238578   5.718   2.789   0.584 -0.2899 -1.9341  0.3385
 4795TIP3   OH238579   1.934   5.216   6.934 -0.0618 -0.6775 -0.0321
 4795TIP3    H138580   1.861   5.209   6.997  0.7209  0.9939  1.1382
 4795TIP3    H238581   1.897   5.185   6.852 -1.5929 -1.4985  0.9118
 4796TIP3   OH238582   0.893   3.017   0.808  0.2795 -0.2720 -0.2868
 4796TIP3    H138583   0.865   2.925   0.809 -0.8640  0.0472 -1.0489
 4796TIP3    H238584   0.959   3.021   0.739  0.4891 -0.5609 -0.1065
 4797TIP3   OH238585   4.988   3.153   1.247 -0.2192  0.4822  0.2877
 4797TIP3    H138586   5.076   3.172   1.213  0.5198  0.3327  2.0373
 4797TIP3    H238587   4.981   3.205   1.327 -1.1942 -0.5366  0.8955
 4798TIP3   OH238588   5.115   4.001   0.366 -0.2262 -0.3548  0.2636
 4798TIP3    H138589   5.139   4.048   0.446 -2.1016 -0.4429  0.9281
 4798TIP3    H238590   5.189   3.942   0.350  0.1352 -0.4158  1.9960
 4799TIP3   OH238591   7.146   3.852   0.187 -0.0170  0.1970 -0.3344
 4799TIP3    H138592   7.105   3.868   0.272 -0.0692 -0.6738 -0.1803
 4799TIP3    H238593   7.118   3.763   0.164 -0.2990  0.5524 -1.4375
 4800TIP3   OH238594   3.546   4.869   1.088 -0.3743 -0.5114 -0.1585
 4800TIP3    H138595   3.621   4.883   1.031 -0.4464 -0.6376 -0.2848
 4800TIP3    H238596   3.494   4.802   1.044 -0.3199 -0.7672  0.1602
 4801TIP3   OH238597   6.356   6.218   0.179  0.1059  0.2248 -0.3051
 4801TIP3    H138598   6.410   6.294   0.158  0.8801 -0.3210 -0.3366
 4801TIP3    H238599   6.284   6.254   0.232  0.6439  0.9269 -0.0352
 4802TIP3   OH238600   2.910   0.067   0.713  0.3674 -0.7871  0.0494
 4802TIP3    H138601   2.884   0.034   0.626 -2.0833  0.3008  0.2783
 4802TIP3    H238602   2.828   0.096   0.753  1.8514  2.1390  1.3064
 4803TIP3   OH238603   6.516   6.869   8.503  0.0925 -0.0866  0.1481
 4803TIP3    H138604   6.537   6.956   8.535  0.3503  0.4440 -1.3601
 4803TIP3    H238605   6.420   6.866   8.502  0.0815  0.2820 -0.0399
 4804TIP3   OH238606   2.130   4.909   1.673 -0.5341  0.3052  0.2491
 4804TIP3    H138607   2.211   4.858   1.667 -0.0714  1.0027  0.4349
 4804TIP3    H238608   2.111   4.933   1.582 -1.3738 -1.1052  0.0084
 4805TIP3   OH238609   2.875   5.373   0.632  0.3313 -0.1173 -0.1778
 4805TIP3    H138610   2.944   5.308   0.649 -1.0368 -1.2761  1.3255
 4805TIP3    H238611   2.839   5.347   0.548  0.0135 -1.1627  0.2572
 4806TIP3   OH238612   2.795   0.261   2.206 -0.5705 -0.4208 -0.5325
 4806TIP3    H138613   2.713   0.222   2.177 -1.4391 -0.3823  1.6453
 4806TIP3    H238614   2.770   0.348   2.238  0.8354  0.7606 -2.4986
 4807TIP3   OH238615   5.595   7.135   0.181  0.0009 -0.1185  0.2077
 4807TIP3    H138616   5.651   7.059   0.193  1.6402  1.0615  0.3865
 4807TIP3    H238617   5.606   7.186   0.262  0.6885  1.3779 -0.7852
 4808TIP3   OH238618   5.255   0.553   7.663  0.3460  0.1376  0.2879
 4808TIP3    H138619   5.242   0.647   7.675  1.9070  0.1228  3.1581
 4808TIP3    H238620   5.181   0.512   7.707 -1.7634 -0.1258 -3.1752
 4809TIP3   OH238621   0.958   0.044   9.260 -0.6154 -0.2694  0.2038
 4809TIP3    H138622   0.957   0.072   9.169 -1.7932 -0.2840  0.1934
 4809TIP3    H238623   0.904  -0.035   9.262 -0.6683 -0.2269  0.9198
 4810TIP3   OH238624   3.065   2.822   9.553 -0.1981 -0.0817  0.4568
 4810TIP3    H138625   2.970   2.821   9.565 -0.3387 -0.6166 -0.6617
 4810TIP3    H238626   3.091   2.911   9.577 -1.1489  0.4467 -0.4096
 4811TIP3   OH238627   3.711   7.221   1.172  0.2050 -0.3198  0.2600
 4811TIP3    H138628   3.634   7.249   1.222 -0.2611 -0.8678 -0.1470
 4811TIP3    H238629   3.753   7.303   1.145 -0.4154 -0.0142  0.2083
 4812TIP3   OH238630   6.902   0.674   8.244 -0.2272  0.2200 -0.6931
 4812TIP3    H138631   6.905   0.583   8.214 -2.8542 -1.1656  2.6241
 4812TIP3    H238632   6.821   0.709   8.208 -1.0240  0.0430  0.8681
 4813TIP3   OH238633   4.834   4.820   0.107  0.1198  0.4791 -0.1028
 4813TIP3    H138634   4.766   4.878   0.074 -0.5139  0.7029  1.4807
 4813TIP3    H238635   4.902   4.820   0.039 -1.5941 -0.0461 -1.9147
 4814TIP3   OH238636   3.244   1.203   9.236 -0.3298  0.2285 -0.5604
 4814TIP3    H138637   3.228   1.254   9.315 -0.1626  0.8842 -0.9444
 4814TIP3    H238638   3.202   1.118   9.254 -0.1505  0.3086  0.2858
 4815TIP3   OH238639   5.053   6.995   7.619 -0.3153  0.3207 -0.1742
 4815TIP3    H138640   5.056   7.089   7.639 -0.1978  0.3542 -0.3364
 4815TIP3    H238641   5.144   6.966   7.629 -0.5007  0.0306  0.7519
 4816TIP3   OH238642   2.471   6.572   6.541 -0.2011 -0.0488 -0.4313
 4816TIP3    H138643   2.471   6.531   6.454  0.8233 -3.0090  0.8261
 4816TIP3    H238644   2.379   6.587   6.560 -0.8775 -3.2529 -0.4678
 4817TIP3   OH238645   5.837   7.262   2.494  0.0289  0.1987 -0.1653
 4817TIP3    H138646   5.886   7.238   2.573  1.0335  2.2277 -0.1058
 4817TIP3    H238647   5.747   7.274   2.525  0.3067  0.4519  0.5747
 4818TIP3   OH238648   3.886   2.012   0.039  0.0493  0.0388 -0.0091
 4818TIP3    H138649   3.842   2.093   0.014  0.0641  0.0223 -0.0886
 4818TIP3    H238650   3.919   1.976  -0.043 -2.8655 -1.8027 -0.5360
 4819TIP3   OH238651   3.399   6.460   1.326  0.0120  0.0854  0.9871
 4819TIP3    H138652   3.488   6.492   1.309  0.4684 -1.0551  1.1324
 4819TIP3    H238653   3.396   6.374   1.284 -0.9646  0.0281  1.1465
 4820TIP3   OH238654   0.722   3.608   1.635  0.2281 -0.2975  0.3568
 4820TIP3    H138655   0.657   3.547   1.599 -0.1202 -1.3293  2.5350
 4820TIP3    H238656   0.670   3.671   1.686  0.7991 -0.0490  0.6369
 4821TIP3   OH238657   1.136   2.144   8.555  0.7250 -0.3158 -0.0897
 4821TIP3    H138658   1.115   2.067   8.502 -0.4915 -0.1946  0.1707
 4821TIP3    H238659   1.084   2.215   8.516 -0.4752 -0.2986  1.4245
 4822TIP3   OH238660   6.655   3.540   9.447 -0.4789  0.2314 -0.2367
 4822TIP3    H138661   6.567   3.565   9.421 -1.2168 -1.2152  0.7235
 4822TIP3    H238662   6.677   3.466   9.390  0.0837  0.5187 -0.4034
 4823TIP3   OH238663   4.090   6.190   6.386  0.1922 -0.0459 -0.0774
 4823TIP3    H138664   4.110   6.098   6.404  0.8898 -0.0323 -0.7427
 4823TIP3    H238665   4.007   6.187   6.338  1.0649 -0.4828 -1.6386
 4824TIP3   OH238666   3.989   4.148   8.458 -0.4898  0.1815 -0.4333
 4824TIP3    H138667   4.063   4.194   8.497 -0.2761 -0.1025 -0.4988
 4824TIP3    H238668   3.927   4.217   8.435 -0.2656  0.4170 -0.3351
 4825TIP3   OH238669   3.683   0.316   1.316 -0.3501  0.5156 -0.1677
 4825TIP3    H138670   3.756   0.258   1.296  0.3552  0.6407  1.7938
 4825TIP3    H238671   3.605   0.261   1.305  0.0379  0.2319 -1.7505
 4826TIP3   OH238672   3.943   6.067   1.444  0.0241  0.2697  0.0085
 4826TIP3    H138673   3.883   6.007   1.399 -2.0994  2.0189  0.3184
 4826TIP3    H238674   3.908   6.072   1.533  0.9314  0.9984  0.3298
 4827TIP3   OH238675   1.749   0.120   1.696 -0.1101 -0.6609  1.0188
 4827TIP3    H138676   1.727   0.213   1.697  2.8138  0.2305 -1.4664
 4827TIP3    H238677   1.786   0.103   1.783  1.5678  1.2143  0.7345
 4828TIP3   OH238678   6.574   7.079   8.956 -0.1798  0.1562  0.1364
 4828TIP3    H138679   6.542   7.086   9.046 -1.2939 -1.4238 -0.1071
 4828TIP3    H238680   6.644   7.015   8.960 -2.5191 -2.6509 -0.5933
 4829TIP3   OH238681   3.956   3.826   0.526 -0.0004 -0.5896  0.6277
 4829TIP3    H138682   3.947   3.797   0.617  0.7593 -1.4390  0.4449
 4829TIP3    H238683   3.998   3.912   0.533  0.8199 -1.0097  1.0629
 4830TIP3   OH238684   0.612   2.881   7.112  0.3424  0.5640  0.7297
 4830TIP3    H138685   0.638   2.972   7.106  0.8197  0.3742 -0.3493
 4830TIP3    H238686   0.645   2.841   7.032  3.6979 -1.4728  2.8996
 4831TIP3   OH238687   5.387   7.047   1.813  0.2096  0.8057  0.1026
 4831TIP3    H138688   5.310   6.989   1.811  0.0093  1.0596  0.4838
 4831TIP3    H238689   5.428   7.030   1.898  0.9137  0.2412 -0.3357
 4832TIP3   OH238690   5.560   2.716   1.031 -0.3064  0.4003 -0.2071
 4832TIP3    H138691   5.518   2.781   1.087 -0.1502  1.1801 -0.9565
 4832TIP3    H238692   5.520   2.730   0.945 -0.9764 -1.1732 -0.1862
 4833TIP3   OH238693   6.837   0.428   9.072  0.2834 -0.0382  0.1584
 4833TIP3    H138694   6.786   0.350   9.093 -1.1475  0.6154 -0.7107
 4833TIP3    H238695   6.928   0.398   9.073 -0.2445 -1.8300 -0.5828
 4834TIP3   OH238696   0.637   5.879   1.857 -0.1718 -0.2608 -0.2885
 4834TIP3    H138697   0.688   5.823   1.799 -1.0690 -0.5131 -0.8646
 4834TIP3    H238698   0.549   5.841   1.855 -0.4867  0.4110  0.3309
 4835TIP3   OH238699   3.227   1.342   0.081  0.1848  0.8857 -0.2155
 4835TIP3    H138700   3.260   1.420   0.035 -1.8258  0.6156 -2.2800
 4835TIP3    H238701   3.231   1.272   0.016  1.4463 -0.6680  1.4469
 4836TIP3   OH238702   0.136   2.153   2.930 -0.6825 -0.6073  0.0533
 4836TIP3    H138703   0.206   2.154   2.995  0.2460 -0.8852 -0.9096
 4836TIP3    H238704   0.068   2.210   2.966  0.7948  1.1401  0.1983
 4837TIP3   OH238705   1.812   5.968   8.341  0.2976 -0.5233 -0.0016
 4837TIP3    H138706   1.782   5.900   8.402 -0.2580 -0.7523 -0.5136
 4837TIP3    H238707   1.817   5.924   8.256 -0.1789  0.0920 -0.3625
 4838TIP3   OH238708   6.165   5.284   8.465  0.0612  0.2113  0.2385
 4838TIP3    H138709   6.157   5.201   8.510 -1.0150  0.4094  0.4223
 4838TIP3    H238710   6.223   5.337   8.521 -0.9396  0.3187  1.1903
 4839TIP3   OH238711   0.958   1.568   1.118  0.0064  0.0458  0.2908
 4839TIP3    H138712   0.952   1.641   1.180  0.5682  1.1739 -0.9194
 4839TIP3    H238713   1.043   1.581   1.074  0.4895 -1.8152  0.5980
 4840TIP3   OH238714   4.413   0.057   7.787  0.3484  0.2405  0.3207
 4840TIP3    H138715   4.376   0.053   7.699  1.5368 -0.0792 -0.1889
 4840TIP3    H238716   4.506   0.035   7.775  0.9295  1.9092  1.4004
 4841TIP3   OH238717   2.591   4.365   7.798  0.5599 -0.5779  0.4160
 4841TIP3    H138718   2.514   4.348   7.743  1.7559 -1.5190 -1.0438
 4841TIP3    H238719   2.632   4.443   7.760  0.9125 -0.7168  0.5057
 4842TIP3   OH238720   0.053   6.616   7.200 -0.2993 -0.6602 -0.2539
 4842TIP3    H138721  -0.009   6.631   7.130  0.4213 -0.2768 -0.8215
 4842TIP3    H238722   0.139   6.616   7.157  0.1367 -0.6463  0.5858
 4843TIP3   OH238723   4.659   3.064   8.306  0.7821 -0.0461 -0.3889
 4843TIP3    H138724   4.670   3.065   8.210  0.1891  0.5537 -0.4534
 4843TIP3    H238725   4.565   3.068   8.319  0.6845 -2.4868  0.2064
 4844TIP3   OH238726   3.372   4.891   8.016  0.6046  0.1961 -0.4583
 4844TIP3    H138727   3.304   4.867   7.952  0.6125  0.5648 -0.6084
 4844TIP3    H238728   3.405   4.808   8.048 -1.2151 -0.0401  1.0154
 4845TIP3   OH238729   2.711   4.594   1.208  0.6372  0.2535  0.2323
 4845TIP3    H138730   2.627   4.549   1.216  0.9027 -0.2708  0.1371
 4845TIP3    H238731   2.702   4.649   1.130 -0.0394  1.1504  0.9131
 4846TIP3   OH238732   4.719   0.378   1.911 -0.7514 -0.2202  0.2055
 4846TIP3    H138733   4.778   0.313   1.947 -1.3991 -0.7599  0.3059
 4846TIP3    H238734   4.685   0.339   1.831 -2.5313 -0.7967  1.1874
 4847TIP3   OH238735   6.801   1.564   0.059  0.8070 -0.2554  0.8084
 4847TIP3    H138736   6.896   1.570   0.057  0.8068 -0.2403  0.8443
 4847TIP3    H238737   6.783   1.473   0.081  0.8139 -0.8104 -1.2307
 4848TIP3   OH238738   5.253   5.247   8.421  0.1125 -0.3907 -0.1994
 4848TIP3    H138739   5.304   5.192   8.480  0.7412 -0.7483 -1.0621
 4848TIP3    H238740   5.165   5.247   8.459  0.7500  0.3498  1.3738
 4849TIP3   OH238741   1.927   0.607   0.628  0.5689 -0.0851 -0.1358
 4849TIP3    H138742   1.879   0.532   0.664  0.7731 -0.4036 -0.5221
 4849TIP3    H238743   1.933   0.588   0.534 -1.0748  1.3362 -0.5786
 4850TIP3   OH238744   1.536   5.370   1.347  0.6042  0.3596 -0.3979
 4850TIP3    H138745   1.573   5.438   1.403  0.3529  0.9219 -0.8938
 4850TIP3    H238746   1.516   5.415   1.265 -1.8155  0.2749  0.0548
 4851TIP3   OH238747   1.342   1.694   0.580 -0.1542  0.3282 -0.1644
 4851TIP3    H138748   1.256   1.731   0.600  0.2667  2.3327 -1.6889
 4851TIP3    H238749   1.333   1.600   0.599 -2.9245  0.3370 -1.0003
 4852TIP3   OH238750   6.048   0.084   8.072 -0.3034  0.6735 -0.0163
 4852TIP3    H138751   6.053   0.092   7.976  0.1104 -0.9344 -0.1582
 4852TIP3    H238752   5.955   0.091   8.092 -0.2372  3.2508 -0.2679
 4853TIP3   OH238753   5.847   1.662   0.100 -0.1293 -0.4121  0.4534
 4853TIP3    H138754   5.870   1.745   0.060  0.2582  0.2030  1.8855
 4853TIP3    H238755   5.754   1.651   0.083 -0.4138  0.8263  1.1141
 4854TIP3   OH238756   3.447   5.660   7.825 -0.1141 -0.4018 -0.7501
 4854TIP3    H138757   3.485   5.582   7.785 -0.1740 -0.2613 -1.0839
 4854TIP3    H238758   3.356   5.636   7.842  0.0323 -0.6223 -0.2597
 4855TIP3   OH238759   1.936   2.845   9.851  0.1496  0.1312 -0.7733
 4855TIP3    H138760   1.914   2.752   9.855 -0.0184  0.1402 -1.3823
 4855TIP3    H238761   2.006   2.851   9.786  0.6324  0.3511 -0.2500
 4856TIP3   OH238762   5.947   6.820   0.103  0.4189 -0.0761 -0.2282
 4856TIP3    H138763   6.019   6.858   0.153  0.4646  0.6766 -0.8402
 4856TIP3    H238764   5.869   6.842   0.154  0.3439  1.7473 -1.0408
 4857TIP3   OH238765   1.133   5.971   8.124  0.1885 -0.1840  0.4406
 4857TIP3    H138766   1.151   6.047   8.069  1.0829 -0.5329  0.2457
 4857TIP3    H238767   1.046   5.942   8.095  0.3122  0.1014 -0.2422
 4858TIP3   OH238768   6.290   1.695   8.990  0.3888 -0.0317  0.3047
 4858TIP3    H138769   6.269   1.684   9.083 -1.1907 -1.1308 -0.1341
 4858TIP3    H238770   6.212   1.737   8.953 -1.1874 -3.9986 -1.3703
 4859TIP3   OH238771   1.814   6.422   0.360 -0.5053  0.1166  0.0107
 4859TIP3    H138772   1.741   6.460   0.408 -0.6660  0.2905 -0.3774
 4859TIP3    H238773   1.886   6.485   0.372 -0.5209  0.1207  0.0851
 4860TIP3   OH238774   2.690   2.776   7.534 -0.5781  0.0214  0.2974
 4860TIP3    H138775   2.670   2.682   7.537  0.0267 -0.0944  0.9972
 4860TIP3    H238776   2.700   2.795   7.441 -1.8440 -0.3531  0.0670
 4861TIP3   OH238777   3.307   0.874   9.177  0.0641 -0.2374  0.2659
 4861TIP3    H138778   3.387   0.850   9.224 -0.3861 -0.9112  0.7107
 4861TIP3    H238779   3.236   0.839   9.232 -0.5582  0.7693  0.1341
 4862TIP3   OH238780   0.112   4.528   7.344 -0.2814  0.1199 -0.3429
 4862TIP3    H138781   0.145   4.463   7.406  1.6634  0.5573 -0.8521
 4862TIP3    H238782   0.105   4.482   7.261 -1.8141 -0.1701 -0.0977
 4863TIP3   OH238783   3.298   7.194   9.283 -0.1999  0.1731 -0.0595
 4863TIP3    H138784   3.279   7.243   9.203 -0.2213 -1.2574 -0.9733
 4863TIP3    H238785   3.391   7.171   9.275 -0.3793 -0.5866 -0.0354
 4864TIP3   OH238786   4.517   1.502   2.698  0.2302  0.0052  0.2047
 4864TIP3    H138787   4.452   1.526   2.633 -0.2212  0.3658  0.7821
 4864TIP3    H238788   4.466   1.478   2.776  0.7891  0.8955  0.8634
 4865TIP3   OH238789   3.110   2.056   7.817 -0.5949 -0.1086 -0.3560
 4865TIP3    H138790   3.023   2.031   7.847 -1.2125  0.2776 -1.7737
 4865TIP3    H238791   3.101   2.067   7.723  0.8368  0.6068 -0.4333
 4866TIP3   OH238792   2.340   7.124   7.987  0.0392 -0.2125 -0.0387
 4866TIP3    H138793   2.262   7.123   8.043 -0.1388 -1.6369 -0.2769
 4866TIP3    H238794   2.412   7.145   8.047 -0.2493 -0.9604  0.5878
 4867TIP3   OH238795   2.949   5.733   2.292  0.5311 -0.0039  0.1162
 4867TIP3    H138796   2.907   5.816   2.315  2.7602  1.9844 -2.3731
 4867TIP3    H238797   2.905   5.706   2.211  1.2516 -0.1015 -0.2466
 4868TIP3   OH238798   6.617   3.570   7.311  0.1773  0.1473  0.1095
 4868TIP3    H138799   6.657   3.540   7.393  1.5718 -0.3762 -0.7204
 4868TIP3    H238800   6.604   3.490   7.260  0.9539  0.6083 -0.8533
 4869TIP3   OH238801   2.634   6.722   8.788  0.8993 -0.0945  0.7182
 4869TIP3    H138802   2.637   6.735   8.883  1.0893 -0.3666  0.7511
 4869TIP3    H238803   2.682   6.797   8.752 -4.1964  3.5274  0.4595
 4870TIP3   OH238804   2.728   5.210   6.746 -0.0335 -0.1277  0.5335
 4870TIP3    H138805   2.700   5.186   6.658  2.0949 -0.6385 -0.0705
 4870TIP3    H238806   2.804   5.268   6.731 -1.0604  1.7083  2.0288
 4871TIP3   OH238807   2.476   5.939   8.285  0.0448 -0.8591  0.0690
 4871TIP3    H138808   2.444   5.931   8.196  0.0942  1.9035 -0.2880
 4871TIP3    H238809   2.397   5.939   8.339 -0.0593 -1.2409 -0.0767
 4872TIP3   OH238810   5.411   4.777   8.111  0.0720 -0.4616 -0.0058
 4872TIP3    H138811   5.318   4.776   8.092 -0.3240  1.1636  1.6124
 4872TIP3    H238812   5.443   4.859   8.074  0.3614  0.0915  1.3772
 4873TIP3   OH238813   4.126   2.673   1.637  0.2345  0.3373 -0.0024
 4873TIP3    H138814   4.194   2.685   1.571  0.4932  0.5765  0.3016
 4873TIP3    H238815   4.173   2.639   1.713 -0.1047 -0.1940 -0.0324
 4874TIP3   OH238816   4.919   1.840   0.228  0.7919  0.0595 -0.1400
 4874TIP3    H138817   4.969   1.854   0.308 -1.1569 -0.7613  1.2888
 4874TIP3    H238818   4.848   1.904   0.232 -0.2544 -1.0493 -0.3811
 4875TIP3   OH238819   3.567   0.662   2.248  0.7593 -0.3002  0.2492
 4875TIP3    H138820   3.656   0.631   2.264  0.6165 -1.0233 -0.2776
 4875TIP3    H238821   3.576   0.756   2.235  1.5192 -0.4286 -0.2720
 4876TIP3   OH238822   1.025   0.474   0.014 -0.2241  0.3923 -0.2468
 4876TIP3    H138823   1.011   0.566   0.036 -1.1405  0.2555 -0.2233
 4876TIP3    H238824   1.075   0.439   0.088 -0.7485  0.6342  0.2347
 4877TIP3   OH238825   5.055   5.255   8.099 -0.0794 -0.2420 -0.7563
 4877TIP3    H138826   5.033   5.341   8.136  2.1241  0.0076  0.1481
 4877TIP3    H238827   4.986   5.238   8.035  0.3023  2.9989 -2.2411
 4878TIP3   OH238828   1.184   5.706   8.144 -0.3809 -0.5494 -0.3924
 4878TIP3    H138829   1.227   5.675   8.064 -1.3721 -1.1146 -0.7205
 4878TIP3    H238830   1.195   5.801   8.142  1.1988 -0.6948 -0.2537
 4879TIP3   OH238831   5.931   1.781   7.809 -0.4894  0.4839  0.0462
 4879TIP3    H138832   5.870   1.759   7.879 -0.4451  2.4000  0.7718
 4879TIP3    H238833   5.895   1.862   7.771  1.8290  2.0306  0.8926
 4880TIP3   OH238834   0.432   4.893   9.423 -0.2389  0.5442  0.5362
 4880TIP3    H138835   0.342   4.880   9.452 -0.6385  2.9506  0.6405
 4880TIP3    H238836   0.485   4.875   9.500 -0.6576 -0.3566  0.6299
 4881TIP3   OH238837   1.249   2.975   1.239  0.3705 -0.3284 -0.3626
 4881TIP3    H138838   1.334   3.017   1.227  0.8253 -0.9076  0.6745
 4881TIP3    H238839   1.205   2.984   1.155  2.5887 -2.5375 -1.8902
 4882TIP3   OH238840   3.892   3.814   7.153  0.2488  0.3079 -0.0904
 4882TIP3    H138841   3.941   3.856   7.082  1.2056  0.4110  0.6035
 4882TIP3    H238842   3.946   3.828   7.230 -1.6629  1.8941  1.0559
 4883TIP3   OH238843   1.587   2.906   7.979  0.2513 -0.0579 -0.1785
 4883TIP3    H138844   1.628   2.935   7.897 -0.2444  0.4482 -0.2505
 4883TIP3    H238845   1.618   2.816   7.990  0.4469 -0.0780 -0.8389
 4884TIP3   OH238846   5.114   4.107   2.473  0.6832  0.3767 -0.1403
 4884TIP3    H138847   5.068   4.174   2.424  0.1471  0.2779  0.2132
 4884TIP3    H238848   5.073   4.108   2.560  1.5672  0.5035  0.2823
 4885TIP3   OH238849   0.431   0.027   1.948 -0.1489 -0.2133  0.6464
 4885TIP3    H138850   0.423   0.055   1.856 -0.0375  1.3206  1.0785
 4885TIP3    H238851   0.365  -0.041   1.958  1.0291 -1.6936 -1.0324
 4886TIP3   OH238852   7.133   4.246   0.462 -0.2977  0.2356 -0.4492
 4886TIP3    H138853   7.108   4.279   0.376 -0.4248 -0.1366 -0.5580
 4886TIP3    H238854   7.170   4.160   0.444 -1.4881 -0.3922 -0.0069
 4887TIP3   OH238855   1.974   4.131   0.940  0.5223  0.4572  0.0503
 4887TIP3    H138856   2.036   4.203   0.929  1.2456  0.0240  1.1357
 4887TIP3    H238857   1.912   4.141   0.867  1.6226  1.1459 -0.8285
 4888TIP3   OH238858   4.458   4.565   7.645  0.1130 -0.1322  0.1642
 4888TIP3    H138859   4.458   4.515   7.563 -0.6325 -1.1346  0.7437
 4888TIP3    H238860   4.366   4.565   7.673  0.2104  0.9839  0.5450
 4889TIP3   OH238861   3.246   5.166   7.158  0.4409 -0.0836 -0.2414
 4889TIP3    H138862   3.246   5.186   7.252 -1.3178 -0.7987 -0.0559
 4889TIP3    H238863   3.337   5.178   7.131  0.5739  2.4695  1.0367
 4890TIP3   OH238864   3.748   2.594   9.095  0.0493  0.4219 -0.5610
 4890TIP3    H138865   3.839   2.571   9.076 -0.6530 -1.2120 -2.2156
 4890TIP3    H238866   3.726   2.543   9.173  0.2265 -0.1078 -0.8491
 4891TIP3   OH238867   2.562   0.180   2.048 -0.6722  0.0712  0.3978
 4891TIP3    H138868   2.506   0.102   2.049 -1.3254  0.5321  1.3528
 4891TIP3    H238869   2.507   0.249   2.086 -0.1748  1.0557 -0.6385
 4892TIP3   OH238870   6.916   1.188   1.964  0.0417  0.2217 -0.1568
 4892TIP3    H138871   6.887   1.231   2.044 -0.0679 -0.0987 -0.0199
 4892TIP3    H238872   6.994   1.139   1.991 -0.9154 -1.2081  0.1521
 4893TIP3   OH238873   2.422   1.814   7.433  0.8676 -0.6268  0.0793
 4893TIP3    H138874   2.399   1.869   7.508  1.3107 -0.5789  0.1834
 4893TIP3    H238875   2.508   1.847   7.405  1.4002 -1.6238  0.4820
 4894TIP3   OH238876   5.736   6.564   8.282 -0.5164  0.0598  0.5048
 4894TIP3    H138877   5.699   6.476   8.278 -3.1741  1.0796  0.7350
 4894TIP3    H238878   5.730   6.588   8.375  0.1554  0.5145  0.4376
 4895TIP3   OH238879   5.501   1.810   8.856  0.0094  0.2435  0.2976
 4895TIP3    H138880   5.478   1.717   8.860 -1.4161  0.6184  2.4060
 4895TIP3    H238881   5.545   1.828   8.939  0.9932  1.3067 -0.4211
 4896TIP3   OH238882   4.519   0.034   2.789  0.0412 -0.0456  0.0837
 4896TIP3    H138883   4.438   0.017   2.741 -0.8749  1.0552  1.1642
 4896TIP3    H238884   4.577  -0.039   2.765 -1.0772 -0.5919 -1.0975
 4897TIP3   OH238885   0.038   4.885   7.263 -0.3103 -0.0341  0.3352
 4897TIP3    H138886  -0.038   4.839   7.298 -1.4764  1.4593 -0.1338
 4897TIP3    H238887   0.060   4.950   7.330 -2.3326  2.5961 -1.3547
 4898TIP3   OH238888   3.677   3.896   0.605 -0.1355  0.4912 -0.6728
 4898TIP3    H138889   3.733   3.867   0.533  0.2978  0.9003 -0.5084
 4898TIP3    H238890   3.735   3.945   0.663 -0.2635 -0.6922  0.4887
 4899TIP3   OH238891   2.814   3.088   7.391 -0.1131 -0.0370 -0.0121
 4899TIP3    H138892   2.874   3.061   7.321 -1.3377 -1.1229 -0.7004
 4899TIP3    H238893   2.867   3.085   7.470  0.7079 -1.1429 -0.5716
 4900TIP3   OH238894   6.702   1.323   7.590 -0.8644  0.2557 -0.7131
 4900TIP3    H138895   6.770   1.257   7.604 -1.8375 -0.7335 -0.5490
 4900TIP3    H238896   6.706   1.342   7.496 -0.6705 -0.1326 -0.7839
 4901TIP3   OH238897   2.158   4.739   0.818  0.8831 -0.4492 -0.2385
 4901TIP3    H138898   2.139   4.653   0.855  2.6982 -0.5451  0.5820
 4901TIP3    H238899   2.084   4.758   0.761 -0.2588 -1.9021  0.6928
 4902TIP3   OH238900   6.334   0.989   1.973  0.3466 -0.2971  0.3002
 4902TIP3    H138901   6.355   0.944   1.891  1.3659  0.2498  0.2450
 4902TIP3    H238902   6.284   0.925   2.024 -0.4878 -0.5644 -0.8333
 4903TIP3   OH238903   0.855   6.805   9.241  0.0571 -0.6530  0.5558
 4903TIP3    H138904   0.887   6.752   9.313  1.8867 -0.9840 -0.4488
 4903TIP3    H238905   0.871   6.752   9.163 -1.1112  0.0379 -0.1867
 4904TIP3   OH238906   5.749   5.188   9.334 -0.1068 -0.0550  0.3281
 4904TIP3    H138907   5.779   5.277   9.351  0.6454  0.0447 -1.3296
 4904TIP3    H238908   5.820   5.132   9.367  0.3917  0.0519 -0.5461
 4905TIP3   OH238909   4.268   1.290   8.149  0.0914  0.1976  0.2329
 4905TIP3    H138910   4.279   1.356   8.080 -2.6461 -0.7714 -1.2711
 4905TIP3    H238911   4.233   1.339   8.224  0.8592  0.8698  0.1704
 4906TIP3   OH238912   1.738   2.240   1.120 -0.2671 -0.2704  0.1109
 4906TIP3    H138913   1.809   2.212   1.177  0.8598  0.5140 -0.8604
 4906TIP3    H238914   1.729   2.169   1.056 -1.4761 -1.1123  1.1750
 4907TIP3   OH238915   1.365   3.957   9.965  0.0955 -0.5210 -0.0537
 4907TIP3    H138916   1.459   3.941   9.970  0.2569  0.3495 -0.1357
 4907TIP3    H238917   1.353   4.010   9.886 -0.2649  0.6124  0.7234
 4908TIP3   OH238918   3.352   0.567   9.942 -0.7919 -0.0754  0.2350
 4908TIP3    H138919   3.332   0.524  10.025  0.0993  1.0623  1.0758
 4908TIP3    H238920   3.424   0.516   9.905 -0.1186  0.3245  0.9556
 4909TIP3   OH238921   2.399   2.538   2.761 -0.3720  0.0659  0.3248
 4909TIP3    H138922   2.339   2.472   2.797 -0.1088  0.1311  0.8841
 4909TIP3    H238923   2.400   2.607   2.826 -0.9278  0.8065 -0.4190
 4910TIP3   OH238924   3.314   0.851   2.291 -0.5167  0.1466  0.3470
 4910TIP3    H138925   3.236   0.890   2.329 -2.3168 -1.3801 -1.5243
 4910TIP3    H238926   3.386   0.882   2.345 -2.3950  1.7075  2.0852
 4911TIP3   OH238927   6.560   6.681   1.912  0.4206  0.2276  0.1007
 4911TIP3    H138928   6.569   6.586   1.914 -0.0598  0.1678 -0.3248
 4911TIP3    H238929   6.470   6.697   1.941 -1.2679  0.2466 -4.3533
 4912TIP3   OH238930   5.448   4.188   0.169 -0.5270 -1.0415  0.1680
 4912TIP3    H138931   5.475   4.238   0.245  0.6002  0.9541 -1.4334
 4912TIP3    H238932   5.353   4.199   0.164 -0.4386 -0.0386  0.5247
 4913TIP3   OH238933   2.258   6.330   2.259  0.4064 -0.0519 -0.8648
 4913TIP3    H138934   2.209   6.272   2.200 -0.1951 -1.7043  1.1119
 4913TIP3    H238935   2.296   6.270   2.324  0.5081  1.7040  0.7688
 4914TIP3   OH238936   2.261   5.247   2.192  0.5361 -0.1389 -0.3065
 4914TIP3    H138937   2.334   5.284   2.241  0.5646  0.0794 -0.5117
 4914TIP3    H238938   2.298   5.223   2.107  0.4070 -0.1896 -0.3494
 4915TIP3   OH238939   3.327   4.538   8.428  0.0162  0.3159 -0.0066
 4915TIP3    H138940   3.395   4.513   8.492  0.1810 -0.1886 -0.3735
 4915TIP3    H238941   3.374   4.543   8.345 -0.4868 -0.5218 -0.3524
 4916TIP3   OH238942   6.571   3.589   9.692  0.0065 -0.1315 -0.0636
 4916TIP3    H138943   6.624   3.633   9.757  0.6559  0.5304 -1.0133
 4916TIP3    H238944   6.630   3.576   9.617 -1.1138  0.5503 -1.1109
 4917TIP3   OH238945   6.749   0.044   7.536  0.1265 -0.2904 -0.1006
 4917TIP3    H138946   6.805   0.090   7.598 -1.2135  1.0365  0.1914
 4917TIP3    H238947   6.693  -0.012   7.590 -0.0526 -0.2347 -0.2246
 4918TIP3   OH238948   1.163   5.448   7.902 -0.9349  0.0331  0.0593
 4918TIP3    H138949   1.165   5.365   7.856 -1.5142 -0.1779  0.3958
 4918TIP3    H238950   1.255   5.475   7.909 -0.8906  0.5802 -2.0842
 4919TIP3   OH238951   2.384   4.862   0.733  0.3062 -0.0961  0.6236
 4919TIP3    H138952   2.366   4.917   0.657  0.9681 -0.9889 -0.2153
 4919TIP3    H238953   2.300   4.820   0.753 -0.2126  1.2079  1.2987
 4920TIP3   OH238954   0.146   2.410   0.911 -0.0117 -0.5096 -0.0790
 4920TIP3    H138955   0.082   2.466   0.867  2.1202  1.6833 -0.6388
 4920TIP3    H238956   0.105   2.388   0.994 -3.0005 -2.4256 -1.8654
 4921TIP3   OH238957   6.422   0.806   1.807 -0.1696  0.1745  0.0739
 4921TIP3    H138958   6.504   0.853   1.791  0.1676  0.4730  2.3103
 4921TIP3    H238959   6.450   0.716   1.824 -0.4705 -0.0480 -0.5774
 4922TIP3   OH238960   3.316   4.002   0.314 -0.5706  0.0209  0.9325
 4922TIP3    H138961   3.333   3.915   0.351  1.6005  0.3318  0.7695
 4922TIP3    H238962   3.363   4.003   0.231 -0.7021  1.2901  0.8496
 4923TIP3   OH238963   2.427   0.034   8.967 -0.2331  0.2820  0.3559
 4923TIP3    H138964   2.488  -0.040   8.962  0.0543  0.4192  1.4870
 4923TIP3    H238965   2.483   0.111   8.960 -0.4224  0.3986  0.1269
 4924TIP3   OH238966   3.076   3.894   7.482  0.4103 -0.2029  0.0337
 4924TIP3    H138967   3.104   3.955   7.413 -1.8466  1.2505  0.2839
 4924TIP3    H238968   3.105   3.936   7.564  2.0281 -1.3333  0.0895
 4925TIP3   OH238969   6.850   0.512   1.297  0.1546 -0.4682  0.0337
 4925TIP3    H138970   6.867   0.454   1.222 -0.2461  0.3221 -0.6817
 4925TIP3    H238971   6.935   0.523   1.338  0.3849 -0.8874 -0.3198
 4926TIP3   OH238972   3.475   7.127   0.708 -0.1209  0.1708 -0.0311
 4926TIP3    H138973   3.563   7.159   0.728 -0.9866  1.9613  1.1267
 4926TIP3    H238974   3.479   7.033   0.726  1.3438  0.3606  0.7478
 4927TIP3   OH238975   0.961   0.512   1.718  0.1404 -0.0117 -0.0536
 4927TIP3    H138976   0.978   0.427   1.757 -1.4635 -0.7121 -0.7667
 4927TIP3    H238977   0.895   0.552   1.775  0.9321  0.8030  0.3166
 4928TIP3   OH238978   3.728   4.624   7.966  0.2991 -0.0970  0.0202
 4928TIP3    H138979   3.679   4.566   7.907 -0.3652  0.0200  0.4541
 4928TIP3    H238980   3.713   4.711   7.931 -0.2327 -0.0106  0.4518
 4929TIP3   OH238981   0.419   2.636   1.513  0.1738 -0.5480  0.5148
 4929TIP3    H138982   0.477   2.704   1.478  0.4133 -0.5118  0.9629
 4929TIP3    H238983   0.334   2.654   1.474  0.5362 -0.7998 -0.4068
 4930TIP3   OH238984   5.756   7.175   2.018  0.0613 -0.7094 -0.4170
 4930TIP3    H138985   5.743   7.269   2.030  0.2695 -1.0253  3.7044
 4930TIP3    H238986   5.667   7.139   2.015 -0.0172 -0.5496 -0.0043
 4931TIP3   OH238987   3.137   1.008   9.638 -0.0309 -0.6089  0.2534
 4931TIP3    H138988   3.056   0.982   9.682  0.6862 -2.0973  0.7579
 4931TIP3    H238989   3.132   0.968   9.552  0.1675 -0.6922  0.2804
 4932TIP3   OH238990   5.652   3.090   8.332  0.4652 -0.1115  0.1672
 4932TIP3    H138991   5.739   3.076   8.294  0.7859  1.4763  0.2113
 4932TIP3    H238992   5.593   3.093   8.257  0.6640  0.1145  0.0139
 4933TIP3   OH238993   7.248   7.057   2.360 -0.7475  0.4020 -0.7290
 4933TIP3    H138994   7.183   6.987   2.349 -0.0041 -0.8252  1.8378
 4933TIP3    H238995   7.199   7.128   2.402 -1.1848  0.9237 -2.0675
 4934TIP3   OH238996   1.147   0.257   7.353 -0.4214  0.2971 -0.0388
 4934TIP3    H138997   1.125   0.190   7.288 -1.8750  1.3987 -0.7614
 4934TIP3    H238998   1.202   0.319   7.305 -0.0127  0.2067  0.3065
 4935TIP3   OH238999   4.134   0.456   8.640  0.0030  0.6035  0.0502
 4935TIP3    H139000   4.076   0.495   8.575 -3.3841 -0.8139  1.9137
 4935TIP3    H239001   4.162   0.530   8.695 -0.3103  1.2913 -0.6963
 4936TIP3   OH239002   6.704   2.164   1.134 -1.0573 -0.2273  0.6129
 4936TIP3    H139003   6.688   2.192   1.224 -2.7261  0.1294  0.2410
 4936TIP3    H239004   6.728   2.071   1.142 -0.5111 -0.0306  1.4613
 4937TIP3   OH239005   3.561   2.772   9.139  0.0294 -0.0157  0.2932
 4937TIP3    H139006   3.495   2.705   9.125  0.7225 -0.2681 -2.2008
 4937TIP3    H239007   3.639   2.739   9.094  1.1613  1.3326  1.1720
 4938TIP3   OH239008   4.889   4.457   8.361 -0.1022  1.2932 -0.8308
 4938TIP3    H139009   4.925   4.374   8.393 -0.9125  0.7541 -1.2766
 4938TIP3    H239010   4.911   4.458   8.268 -0.1312  1.5562 -0.8337
 4939TIP3   OH239011   1.419   3.906   2.270  0.0730  0.4052 -0.3289
 4939TIP3    H139012   1.428   3.851   2.348  2.7796 -0.9280 -1.4351
 4939TIP3    H239013   1.458   3.990   2.295  0.4400  0.1625 -0.0612
 4940TIP3   OH239014   4.528   1.345   9.683 -0.4919 -0.4941 -0.0039
 4940TIP3    H139015   4.439   1.337   9.649  0.1053 -2.7092 -1.2183
 4940TIP3    H239016   4.526   1.297   9.766  0.0116 -2.3470 -1.0228
 4941TIP3   OH239017   7.135   4.613   1.648 -0.3358  0.7615  1.1054
 4941TIP3    H139018   7.108   4.657   1.568 -0.6421  1.0263  1.3557
 4941TIP3    H239019   7.158   4.683   1.709  2.5247  0.5817  0.3916
 4942TIP3   OH239020   6.226   1.725   2.061  0.3434 -0.3319  0.6776
 4942TIP3    H139021   6.275   1.672   1.999 -0.8661  0.1393 -0.7503
 4942TIP3    H239022   6.149   1.671   2.083 -0.8450  0.7040 -0.7112
 4943TIP3   OH239023   6.375   3.968   1.325  0.4071  0.2746  0.5256
 4943TIP3    H139024   6.310   3.951   1.257  3.0797 -1.3897 -1.8649
 4943TIP3    H239025   6.343   3.919   1.401 -1.6212  0.3962 -0.1925
 4944TIP3   OH239026   4.173   5.783   9.924 -0.8526 -0.2786 -0.0933
 4944TIP3    H139027   4.265   5.780   9.899 -0.9418 -0.2098 -0.4265
 4944TIP3    H239028   4.157   5.875   9.945 -1.0802 -0.1189 -0.9253
 4945TIP3   OH239029   6.610   3.787   2.033  0.2960  0.4845 -0.3654
 4945TIP3    H139030   6.531   3.736   2.053 -1.1318  3.5921  2.9305
 4945TIP3    H239031   6.611   3.792   1.937 -2.1451 -1.6039 -0.6223
 4946TIP3   OH239032   3.811   5.854   9.604  0.0023  0.3973  0.0636
 4946TIP3    H139033   3.716   5.851   9.616  0.2564  1.3073  3.1351
 4946TIP3    H239034   3.844   5.779   9.654  0.9630  0.1326 -0.9033
 4947TIP3   OH239035   3.373   1.657   2.375 -1.0051 -0.0357 -0.4899
 4947TIP3    H139036   3.468   1.671   2.370 -1.0011  0.7555  1.1655
 4947TIP3    H239037   3.351   1.678   2.465 -2.8249  0.1003 -0.9398
 4948TIP3   OH239038   7.077   5.944   8.040  0.0207  0.3655 -0.1954
 4948TIP3    H139039   7.161   5.945   8.085 -0.0853 -0.8406  0.0700
 4948TIP3    H239040   7.032   6.023   8.070  0.3322  0.0772  1.0854
 4949TIP3   OH239041   1.943   0.402   7.968 -0.0694 -0.1525  0.4170
 4949TIP3    H139042   1.932   0.494   7.943  0.3155 -0.1311  0.3086
 4949TIP3    H239043   1.975   0.406   8.058  0.1984 -0.1663  0.3254
 4950TIP3   OH239044   5.372   6.204   8.297  0.2356 -0.0106  0.7097
 4950TIP3    H139045   5.461   6.212   8.330  1.0198  0.9181 -1.4038
 4950TIP3    H239046   5.351   6.292   8.264 -2.3376  0.3863  3.0895
 4951TIP3   OH239047   1.751   2.802   1.014  0.0574 -0.2408 -0.7268
 4951TIP3    H139048   1.759   2.728   0.955 -0.3625  0.9718 -2.3700
 4951TIP3    H239049   1.805   2.871   0.975 -1.7526  1.2236 -0.8167
 4952TIP3   OH239050   5.235   4.443   8.232  0.2718 -0.1864  0.4792
 4952TIP3    H139051   5.166   4.378   8.244  0.9803 -0.7846  1.5283
 4952TIP3    H239052   5.312   4.392   8.208  0.4937  0.4182 -0.1235
 4953TIP3   OH239053   0.549   0.718   1.382 -0.9294 -0.1607 -0.4595
 4953TIP3    H139054   0.607   0.782   1.342 -0.5986  0.8274  1.4703
 4953TIP3    H239055   0.475   0.711   1.322  0.3933 -0.2064 -2.1526
 4954TIP3   OH239056   0.340   3.874   2.387 -0.0937 -0.3973  0.0180
 4954TIP3    H139057   0.424   3.828   2.389 -0.2510 -0.6911  1.5750
 4954TIP3    H239058   0.311   3.868   2.296  1.0671 -1.2080 -0.3250
 4955TIP3   OH239059   1.058   6.739   8.570 -0.0337  0.1374  0.3779
 4955TIP3    H139060   1.142   6.761   8.530  0.3237 -1.0720  0.4275
 4955TIP3    H239061   1.028   6.821   8.610  1.2004  0.5422  0.4994
 4956TIP3   OH239062   6.127   3.620   1.991 -0.2652  0.5296 -0.1456
 4956TIP3    H139063   6.121   3.714   1.971 -1.7546  0.2759 -1.0881
 4956TIP3    H239064   6.038   3.587   1.976  0.0403 -0.8880  0.9711
 4957TIP3   OH239065   5.326   3.641   1.305  0.8882  0.3707 -0.1903
 4957TIP3    H139066   5.342   3.556   1.263  0.9402 -0.1935  0.9315
 4957TIP3    H239067   5.288   3.619   1.390  0.2341  1.5044 -0.1707
 4958TIP3   OH239068   0.403   2.126   7.524  0.3310  0.1166  0.0092
 4958TIP3    H139069   0.358   2.049   7.490  0.4494 -0.7438  1.6976
 4958TIP3    H239070   0.462   2.152   7.454  0.5392 -1.5450 -0.4837
 4959TIP3   OH239071   0.135   6.513   8.865 -0.2137  0.4705 -0.2848
 4959TIP3    H139072   0.168   6.572   8.798 -0.9433 -0.6001 -1.6432
 4959TIP3    H239073   0.171   6.427   8.841 -2.2595 -0.3519 -0.6353
 4960TIP3   OH239074   7.029   1.574   1.014  0.3350 -0.1291  0.6149
 4960TIP3    H139075   7.119   1.578   1.046  1.5366 -0.8976 -2.2811
 4960TIP3    H239076   7.037   1.590   0.920 -2.7231  0.9087  0.4078
 4961TIP3   OH239077   2.334   0.106   1.610  0.6298  0.6878  0.3234
 4961TIP3    H139078   2.289   0.177   1.655 -0.9168 -0.8702  1.3657
 4961TIP3    H239079   2.422   0.106   1.648 -0.3416  0.0146  2.7849
 4962TIP3   OH239080   6.123   0.549   0.368 -0.4106 -0.2210 -0.5680
 4962TIP3    H139081   6.116   0.641   0.392  0.7914 -0.6469  1.6174
 4962TIP3    H239082   6.047   0.508   0.409  0.2647 -0.5508  0.3608
 4963TIP3   OH239083   5.828   2.982   9.492  0.0804  0.1434 -0.1447
 4963TIP3    H139084   5.890   2.914   9.518 -1.6656 -1.0024  1.3155
 4963TIP3    H239085   5.749   2.933   9.468 -0.7132  1.6056 -0.6121
 4964TIP3   OH239086   3.813   3.053   1.247 -0.2585 -0.7253 -0.4050
 4964TIP3    H139087   3.799   3.142   1.279  0.7124  0.7474 -3.6076
 4964TIP3    H239088   3.902   3.055   1.212  0.2106 -3.3546  0.4252
 4965TIP3   OH239089   2.285   4.887   2.587 -0.8013  0.0991 -0.2633
 4965TIP3    H139090   2.254   4.921   2.503 -0.2017  0.6780 -0.2605
 4965TIP3    H239091   2.298   4.965   2.641 -0.5723 -0.2243  0.1576
 4966TIP3   OH239092   2.163   2.375   7.151 -0.8573  0.0053  0.1992
 4966TIP3    H139093   2.068   2.389   7.158 -1.3052 -2.2425 -0.5137
 4966TIP3    H239094   2.192   2.363   7.242 -1.8704 -2.4155  0.2777
 4967TIP3   OH239095   3.537   5.428   7.652  0.1174 -0.1011  0.2543
 4967TIP3    H139096   3.616   5.384   7.684  0.5771 -0.4042 -1.2320
 4967TIP3    H239097   3.474   5.357   7.636  0.2892 -0.0843 -0.5656
 4968TIP3   OH239098   6.187   3.119   0.408 -0.3074  0.2301 -0.1603
 4968TIP3    H139099   6.227   3.123   0.321  0.4762  0.0758  0.1808
 4968TIP3    H239100   6.217   3.036   0.444 -0.6805  0.2635  0.2380
 4969TIP3   OH239101   5.891   4.603   9.707  0.2049 -0.2022 -0.2824
 4969TIP3    H139102   5.973   4.648   9.728  0.5591 -0.6134 -0.7655
 4969TIP3    H239103   5.884   4.608   9.612  0.4626 -1.5037 -0.3957
 4970TIP3   OH239104   1.145   3.068   2.601 -0.0449 -0.5013  0.2371
 4970TIP3    H139105   1.211   3.001   2.620 -1.3111 -1.4805  1.3654
 4970TIP3    H239106   1.143   3.122   2.680  1.8112  1.7017 -1.0937
 4971TIP3   OH239107   3.985   1.462   0.649  0.9053 -0.0779  0.0183
 4971TIP3    H139108   3.981   1.367   0.660  1.6787  0.1062  2.4427
 4971TIP3    H239109   3.909   1.495   0.696  1.1130  0.5503 -0.0762
 4972TIP3   OH239110   6.246   2.549   7.101 -0.3723  0.0387 -0.6395
 4972TIP3    H139111   6.339   2.526   7.100 -0.0846  1.1794 -1.3336
 4972TIP3    H239112   6.203   2.472   7.064  0.4599  0.0962 -1.7853
 4973TIP3   OH239113   2.056   6.913   1.839 -0.4276 -0.2682 -0.1411
 4973TIP3    H139114   2.116   6.839   1.829  0.6502  0.6406 -0.6677
 4973TIP3    H239115   1.978   6.888   1.790  0.1410 -0.8233 -0.7809
 4974TIP3   OH239116   5.624   6.188   6.593  0.4338  0.5601  0.5836
 4974TIP3    H139117   5.681   6.255   6.554  1.3172 -0.5530 -0.1100
 4974TIP3    H239118   5.679   6.144   6.657 -0.2516  0.7054  1.2855
 4975TIP3   OH239119   3.254   5.090   0.977  0.3627  0.0028  0.3803
 4975TIP3    H139120   3.178   5.130   1.020  0.4770 -1.1065  1.6717
 4975TIP3    H239121   3.321   5.089   1.045  2.0912  2.3119 -1.1323
 4976TIP3   OH239122   1.707   0.222   2.637  0.8767  0.4643  0.1896
 4976TIP3    H139123   1.620   0.213   2.600  0.0052  2.0651  1.6944
 4976TIP3    H239124   1.698   0.290   2.704  2.6927 -1.1832  2.2656
 4977TIP3   OH239125   4.972   6.568   2.040  0.3317  0.0701 -0.0857
 4977TIP3    H139126   4.885   6.596   2.011  0.6927 -0.7385 -2.0679
 4977TIP3    H239127   4.978   6.476   2.016  1.6800  0.0652  0.1631
 4978TIP3   OH239128   6.498   2.907   0.121 -0.0535 -0.2916 -0.5150
 4978TIP3    H139129   6.444   2.970   0.168 -1.4235 -2.7769  1.4872
 4978TIP3    H239130   6.451   2.888   0.040 -1.0204 -0.6798  0.1250
 4979TIP3   OH239131   4.208   3.648   1.606 -0.0582  0.2997  0.3499
 4979TIP3    H139132   4.243   3.561   1.622 -0.3784 -0.4439 -2.4499
 4979TIP3    H239133   4.133   3.655   1.665  0.9130 -0.6324  1.7521
 4980TIP3   OH239134   4.361   1.817   1.725 -0.5466  0.0088  0.0900
 4980TIP3    H139135   4.303   1.880   1.683  0.5907  0.7044 -0.4833
 4980TIP3    H239136   4.424   1.870   1.773  2.0220 -0.4687 -2.4562
 4981TIP3   OH239137   7.037   4.665   9.565  0.1704  0.1650  0.3966
 4981TIP3    H139138   6.992   4.670   9.481 -0.1660 -0.0352  0.5627
 4981TIP3    H239139   7.117   4.617   9.547  1.0298  1.7401 -0.1996
 4982TIP3   OH239140   4.148   1.617   0.469 -0.2129  0.3160  0.2729
 4982TIP3    H139141   4.182   1.548   0.413 -1.3261  0.6324 -0.8390
 4982TIP3    H239142   4.072   1.578   0.512 -1.7985  1.2373 -1.5391
 4983TIP3   OH239143   1.349   5.266   9.581  0.1618  0.3471 -0.0332
 4983TIP3    H139144   1.262   5.277   9.543  0.1576  0.8167  0.1205
 4983TIP3    H239145   1.334   5.235   9.670  0.1747 -2.3470 -0.8701
 4984TIP3   OH239146   1.803   3.856   7.656  0.2278  0.5093  0.4487
 4984TIP3    H139147   1.828   3.769   7.624  0.0193  0.0444  1.4942
 4984TIP3    H239148   1.738   3.887   7.593 -0.7755 -0.7168  0.8213
 4985TIP3   OH239149   1.101   5.237   2.736 -0.5974 -0.4219  0.2551
 4985TIP3    H139150   1.023   5.292   2.727  0.4408  0.9931 -0.2500
 4985TIP3    H239151   1.156   5.282   2.800  0.7796 -0.2383 -1.0166
 4986TIP3   OH239152   7.145   4.009   8.802  0.7645 -0.6101  0.1145
 4986TIP3    H139153   7.197   3.951   8.746  0.8417  1.3924 -2.0632
 4986TIP3    H239154   7.057   4.006   8.763  0.1857 -0.9708  1.3926
 4987TIP3   OH239155   1.664   6.267   9.177 -0.3188  0.1160  0.1114
 4987TIP3    H139156   1.736   6.251   9.238  0.0309 -0.3894 -0.4169
 4987TIP3    H239157   1.591   6.293   9.233  0.3501  0.9511  0.6335
 4988TIP3   OH239158   2.811   4.663   2.868 -1.1377  0.3723 -0.2396
 4988TIP3    H139159   2.731   4.710   2.892 -0.9915  1.3376 -1.4890
 4988TIP3    H239160   2.856   4.723   2.808 -0.5659 -1.0716 -1.3050
 4989TIP3   OH239161   6.288   6.723   1.997  0.0215 -0.6098  0.4250
 4989TIP3    H139162   6.322   6.774   2.071 -0.1709  0.1365  0.0110
 4989TIP3    H239163   6.280   6.634   2.031  1.1834 -0.5502  0.9117
 4990TIP3   OH239164   6.311   2.768   1.170  0.8124 -0.0535  0.8731
 4990TIP3    H139165   6.285   2.727   1.088  0.2141 -0.5623  1.3137
 4990TIP3    H239166   6.391   2.815   1.149  0.9758 -0.6561  0.1360
 4991TIP3   OH239167   6.987   2.005   1.821  0.6096 -0.0583  0.6582
 4991TIP3    H139168   7.025   1.931   1.774  0.9569  1.0271 -0.8866
 4991TIP3    H239169   6.955   1.969   1.903  0.5817 -1.9449 -0.1394
 4992TIP3   OH239170   0.736   6.130   8.220  0.6332  0.2606 -0.3842
 4992TIP3    H139171   0.693   6.171   8.145 -0.2377 -1.6314 -0.9816
 4992TIP3    H239172   0.776   6.051   8.184 -1.8120 -1.9912  1.4896
 4993TIP3   OH239173   6.522   6.123   9.780  0.1860  0.5865  0.4037
 4993TIP3    H139174   6.592   6.175   9.740  1.0949 -0.8545  0.0453
 4993TIP3    H239175   6.545   6.032   9.760 -1.5790  0.0491  0.6359
 4994TIP3   OH239176   2.972   4.652   8.206 -0.4459 -0.1530  0.6195
 4994TIP3    H139177   2.932   4.676   8.123 -2.6258 -1.3050  1.2665
 4994TIP3    H239178   3.045   4.714   8.216 -1.4575  1.4161 -1.0902
 4995TIP3   OH239179   3.162   3.181   9.988 -0.0859  0.1328 -0.4483
 4995TIP3    H139180   3.076   3.140   9.985 -0.4140  0.8373 -0.8748
 4995TIP3    H239181   3.222   3.109  10.009 -0.9643 -0.0746  1.6942
 4996TIP3   OH239182   4.366   1.784   8.924  0.1993 -0.2838 -0.4876
 4996TIP3    H139183   4.311   1.735   8.984  0.8588  0.8179  1.0812
 4996TIP3    H239184   4.310   1.854   8.890  0.1237 -0.2558 -0.3035
 4997TIP3   OH239185   2.453   3.348   9.357  0.2339 -0.2807 -0.3376
 4997TIP3    H139186   2.416   3.312   9.438  0.5523  0.6937  0.2632
 4997TIP3    H239187   2.406   3.431   9.345  0.3644 -0.3016 -1.0192
 4998TIP3   OH239188   0.276   5.926   9.533  0.1674 -0.2958 -0.2343
 4998TIP3    H139189   0.190   5.913   9.573 -0.2857  1.5812 -0.5170
 4998TIP3    H239190   0.320   5.987   9.591  1.2985 -1.1613 -0.1476
 4999TIP3   OH239191   3.811   1.986   0.306 -0.5180 -0.2718 -0.5235
 4999TIP3    H139192   3.760   2.067   0.314  1.0638  0.8391 -1.2731
 4999TIP3    H239193   3.835   1.982   0.214  0.5383 -0.9052 -0.2296
 5000TIP3   OH239194   6.943   0.933   7.997 -0.5220 -0.1250  0.5810
 5000TIP3    H139195   7.000   1.008   8.009 -0.9889  0.3777 -0.2540
 5000TIP3    H239196   6.979   0.865   8.055  0.8607  0.2038  0.1212
 5001TIP3   OH239197   6.166   6.570   9.310  0.0844  0.5407 -0.3701
 5001TIP3    H139198   6.127   6.500   9.257  0.1407 -0.1505  0.4744
 5001TIP3    H239199   6.256   6.577   9.278 -0.5814  1.8941 -2.0849
 5002TIP3   OH239200   1.321   5.772   6.991  0.2873  0.0778  0.1096
 5002TIP3    H139201   1.246   5.829   7.008 -0.7900 -1.2158 -0.1259
 5002TIP3    H239202   1.363   5.762   7.077  0.0794  0.6666  0.2822
 5003TIP3   OH239203   5.634   5.458   2.861  0.0019  0.0845 -0.1774
 5003TIP3    H139204   5.563   5.514   2.892  0.6588  1.5518 -1.2275
 5003TIP3    H239205   5.594   5.371   2.853 -1.7183  0.8972 -0.8861
 5004TIP3   OH239206   3.181   2.802   0.496 -0.2037 -0.2104  0.4654
 5004TIP3    H139207   3.271   2.786   0.526  0.6662  1.3698 -1.0957
 5004TIP3    H239208   3.147   2.869   0.555 -0.4600 -0.9604  1.1879
 5005TIP3   OH239209   4.702   5.515   2.228  0.1100  0.3834  0.0743
 5005TIP3    H139210   4.781   5.542   2.180  0.3381 -0.5498 -0.0986
 5005TIP3    H239211   4.637   5.498   2.160 -0.6312  2.2510  0.2600
 5006TIP3   OH239212   5.841   2.010   0.450  0.2990 -0.0783 -0.0228
 5006TIP3    H139213   5.899   2.012   0.375 -0.4818  1.1484 -0.6263
 5006TIP3    H239214   5.897   1.985   0.524  1.2983 -0.2068 -0.8171
 5007TIP3   OH239215   7.017   3.544   9.213 -0.1262 -0.1327 -0.1763
 5007TIP3    H139216   6.958   3.559   9.286 -0.8916 -0.2694 -0.7553
 5007TIP3    H239217   7.032   3.449   9.213  1.9853  0.1263  1.3917
 5008TIP3   OH239218   0.046   1.139   1.872  0.0382 -0.9236  0.1728
 5008TIP3    H139219   0.051   1.167   1.964 -0.0011 -0.1172 -0.0689
 5008TIP3    H239220  -0.042   1.162   1.844  0.2441 -0.6339 -0.2420
 5009TIP3   OH239221   1.403   4.038   0.692 -0.0236 -0.4118 -0.1993
 5009TIP3    H139222   1.422   4.107   0.755  1.7263  0.0176 -1.1526
 5009TIP3    H239223   1.488   3.999   0.671 -0.3556  0.1682 -3.0982
 5010TIP3   OH239224   0.458   7.065   1.618 -0.1535 -0.4467 -0.1265
 5010TIP3    H139225   0.448   6.972   1.597 -2.3448 -0.9187  2.4591
 5010TIP3    H239226   0.552   7.080   1.616  0.1913 -2.3530 -1.8757
 5011TIP3   OH239227   1.716   6.714   6.579  0.2743  0.0818 -0.2120
 5011TIP3    H139228   1.629   6.747   6.604 -0.9560 -1.1556 -2.5540
 5011TIP3    H239229   1.709   6.619   6.586  0.7732 -0.1527 -2.1949
 5012TIP3   OH239230   3.518   5.987   0.829 -0.1717  0.1981 -0.1650
 5012TIP3    H139231   3.501   6.067   0.779  2.9434 -0.7802 -3.1305
 5012TIP3    H239232   3.594   6.010   0.884 -0.0220 -0.3667 -0.1350
 5013TIP3   OH239233   3.652   7.051   1.622  0.2460 -0.2445 -0.2548
 5013TIP3    H139234   3.622   6.994   1.694 -0.5349 -1.4940 -1.5175
 5013TIP3    H239235   3.600   7.023   1.547  0.3654  1.6830 -1.1046
 5014TIP3   OH239236   6.937   6.452   9.654 -0.1290  0.0963 -0.1463
 5014TIP3    H139237   6.980   6.536   9.665 -0.1380  0.1212 -0.2982
 5014TIP3    H239238   6.988   6.408   9.586 -0.8159  0.4431 -0.9012
 5015TIP3   OH239239   2.729   6.777   0.225 -0.0070 -0.1560 -0.3566
 5015TIP3    H139240   2.805   6.733   0.262  0.7995  1.6412  0.2684
 5015TIP3    H239241   2.721   6.742   0.136  3.2345  1.4826 -1.4332
 5016TIP3   OH239242   2.625   4.057   2.063  0.0733 -0.0977  0.1579
 5016TIP3    H139243   2.707   4.050   2.112 -0.4844 -1.2078  0.9734
 5016TIP3    H239244   2.599   4.149   2.073  1.7047  0.5451 -0.9773
 5017TIP3   OH239245   1.315   0.401   0.573  0.1983 -0.4896 -0.4261
 5017TIP3    H139246   1.305   0.309   0.550  0.9829 -0.8532  0.6114
 5017TIP3    H239247   1.234   0.424   0.619 -0.3060 -0.4516 -1.3252
 5018TIP3   OH239248   5.534   6.366   1.851 -0.0115  0.5149 -0.0622
 5018TIP3    H139249   5.508   6.281   1.817  1.0572  0.2915 -0.3746
 5018TIP3    H239250   5.585   6.347   1.930  0.6910  0.8138 -0.4257
 5019TIP3   OH239251   3.000   4.143   0.106  0.4527 -0.8580 -0.0210
 5019TIP3    H139252   2.962   4.227   0.081 -0.3302 -1.3130 -0.3766
 5019TIP3    H239253   2.953   4.118   0.186 -1.5040 -2.3975 -1.5715
 5020TIP3   OH239254   6.389   2.404   1.058 -0.4718 -0.0189  0.1178
 5020TIP3    H139255   6.453   2.376   0.994  0.3103  1.8422  0.0380
 5020TIP3    H239256   6.316   2.342   1.048  0.1937 -0.5693 -1.6110
 5021TIP3   OH239257   3.308   1.574   8.863  0.6170  0.0954 -0.9214
 5021TIP3    H139258   3.234   1.550   8.807  1.7480 -0.9501 -2.0009
 5021TIP3    H239259   3.291   1.528   8.946 -0.1960  0.2872 -0.9706
 5022TIP3   OH239260   2.631   5.919   3.201 -0.2940 -0.4006 -0.6332
 5022TIP3    H139261   2.706   5.891   3.254  0.2606  0.5825 -0.8846
 5022TIP3    H239262   2.646   6.012   3.184 -1.0062 -0.4493 -1.6309
 5023TIP3   OH239263   1.046   0.979   7.827 -0.4236  0.2911 -0.2199
 5023TIP3    H139264   1.098   0.899   7.825 -0.1710  0.4106 -3.4190
 5023TIP3    H239265   0.956   0.949   7.816 -0.2552  0.3914 -2.3024
 5024TIP3   OH239266   5.314   1.426   0.003 -0.0661 -0.2363  0.4332
 5024TIP3    H139267   5.325   1.456   0.093 -1.3437 -1.4888  1.0469
 5024TIP3    H239268   5.220   1.436  -0.014  0.0281 -0.8071 -0.4730
 5025TIP3   OH239269   2.936   0.200   1.340 -0.6929 -0.4779 -0.3827
 5025TIP3    H139270   3.012   0.257   1.353  0.3926 -2.2982  1.8972
 5025TIP3    H239271   2.861   0.256   1.361  0.2019  0.6271 -0.0029
 5026TIP3   OH239272   5.853   2.686   1.123 -0.2921 -0.1014  0.8357
 5026TIP3    H139273   5.883   2.596   1.137 -1.7546 -0.9792 -1.1476
 5026TIP3    H239274   5.783   2.698   1.186 -0.6558 -0.6821  0.5561
 5027TIP3   OH239275   1.871   1.505   0.887  0.2375 -0.4311  0.7036
 5027TIP3    H139276   1.887   1.464   0.802  0.2756 -0.1490  0.5724
 5027TIP3    H239277   1.819   1.441   0.936  1.1126 -1.0332  0.8558
 5028TIP3   OH239278   3.422   3.834   0.672  0.4608  0.0343 -0.5635
 5028TIP3    H139279   3.425   3.748   0.629 -3.1244  0.4046 -1.9006
 5028TIP3    H239280   3.503   3.877   0.646  1.1472 -1.9885 -2.0103
 5029TIP3   OH239281   0.501   6.637   7.615 -0.4476 -0.5858  0.0590
 5029TIP3    H139282   0.414   6.620   7.579 -0.4120 -1.2422  0.2728
 5029TIP3    H239283   0.559   6.579   7.565 -0.6291 -2.8800  2.3277
 5030TIP3   OH239284   5.446   2.059   9.201  0.0793  0.2800  0.5383
 5030TIP3    H139285   5.414   2.018   9.282  4.0627 -0.6596  1.8621
 5030TIP3    H239286   5.515   2.000   9.171  1.1608  2.4795 -1.5632
 5031TIP3   OH239287   6.225   3.109   2.692  0.2382 -0.4148 -0.4456
 5031TIP3    H139288   6.311   3.146   2.711  0.4410 -0.9966 -0.1726
 5031TIP3    H239289   6.179   3.111   2.776  0.8268 -2.2100 -0.0224
 5032TIP3   OH239290   1.556   2.450   8.792 -0.3009 -0.2470  0.1528
 5032TIP3    H139291   1.631   2.487   8.839  0.1141 -1.8608  0.8524
 5032TIP3    H239292   1.518   2.524   8.745  0.3811  1.0735  1.5798
 5033TIP3   OH239293   5.837   4.829   8.680  0.3456  0.5170 -0.0722
 5033TIP3    H139294   5.750   4.797   8.706 -0.4828  2.9201  0.3271
 5033TIP3    H239295   5.864   4.886   8.751  2.7128 -0.8354  0.2247
 5034TIP3   OH239296   4.606   5.149   2.137  0.1610  0.4736  0.4004
 5034TIP3    H139297   4.530   5.109   2.094  1.1176 -0.2394 -0.6854
 5034TIP3    H239298   4.602   5.241   2.111 -0.4466  0.4962  0.5406
 5035TIP3   OH239299   6.841   1.195   1.452  0.5264 -0.0372  0.1883
 5035TIP3    H139300   6.891   1.237   1.521 -0.0373 -1.8121  1.7463
 5035TIP3    H239301   6.830   1.263   1.386  2.0465  1.3786  1.3190
 5036TIP3   OH239302   4.976   6.410   8.186  0.0570  0.0016 -0.1815
 5036TIP3    H139303   4.921   6.441   8.258  0.3358 -0.3637  0.1973
 5036TIP3    H239304   4.946   6.459   8.109  0.0426  0.6996  0.2665
 5037TIP3   OH239305   6.407   1.047   8.880  0.5336 -0.5801 -0.6503
 5037TIP3    H139306   6.500   1.068   8.880  0.4002  0.0359 -0.5868
 5037TIP3    H239307   6.395   0.992   8.958  1.0860 -1.8266 -1.4236
 5038TIP3   OH239308   1.721   1.238   0.900 -0.0855 -0.2692  0.0990
 5038TIP3    H139309   1.760   1.154   0.926  2.3351  0.4045 -1.0787
 5038TIP3    H239310   1.711   1.232   0.805  0.6890  0.9379 -0.0901
 5039TIP3   OH239311   1.855   5.084   1.727 -0.2066  0.3866 -0.2312
 5039TIP3    H139312   1.867   5.070   1.821 -1.4397  2.7573  0.3609
 5039TIP3    H239313   1.891   5.005   1.687  1.0053 -0.4062  2.1714
 5040TIP3   OH239314   0.018   1.929   7.519 -0.5987 -0.4199 -0.2354
 5040TIP3    H139315  -0.056   1.928   7.580 -2.2185 -1.6484 -2.1076
 5040TIP3    H239316  -0.021   1.911   7.434  1.6870  0.4717 -1.5527
 5041TIP3   OH239317   2.051   0.914   7.670 -0.5748 -0.4095  0.0592
 5041TIP3    H139318   2.083   0.854   7.603  2.1942  0.7613  0.2226
 5041TIP3    H239319   1.957   0.898   7.673 -0.2058 -3.4618 -1.1192
 5042TIP3   OH239320   0.378   0.621   6.806  0.3508  0.5596 -0.5396
 5042TIP3    H139321   0.382   0.677   6.729  1.0740 -1.2461 -1.8991
 5042TIP3    H239322   0.426   0.668   6.873  1.0666  1.5036 -1.6735
 5043TIP3   OH239323   0.165   5.912   7.688 -0.3533 -0.1203  0.0453
 5043TIP3    H139324   0.194   5.962   7.612  1.4094 -1.2543 -0.0733
 5043TIP3    H239325   0.145   5.979   7.754  0.1659  0.7962 -0.7114
 5044TIP3   OH239326   0.584   4.745   8.066 -0.6419 -0.1104 -0.2193
 5044TIP3    H139327   0.672   4.706   8.061 -1.3095 -1.5622 -1.5414
 5044TIP3    H239328   0.575   4.793   7.983 -1.4572 -0.8131 -0.5452
 5045TIP3   OH239329   3.044   7.038   1.880  0.4538  0.0356  0.0612
 5045TIP3    H139330   2.965   6.983   1.872  1.2221 -1.0734 -0.2042
 5045TIP3    H239331   3.050   7.057   1.973  1.0640 -1.7556  0.4369
 5046TIP3   OH239332   5.408   4.835   7.740 -0.6917 -0.3963  0.1671
 5046TIP3    H139333   5.458   4.782   7.803 -0.8733 -0.0392  0.6167
 5046TIP3    H239334   5.433   4.801   7.654 -0.3471 -0.8066  0.4294
 5047TIP3   OH239335   1.975   5.728   1.126  0.3070 -0.2556 -0.3663
 5047TIP3    H139336   1.950   5.821   1.127  1.1252 -0.0204 -0.4433
 5047TIP3    H239337   1.998   5.712   1.034  2.1492  0.0427 -0.0012
 5048TIP3   OH239338   1.056   3.695   7.839 -0.7016  0.3282  0.4101
 5048TIP3    H139339   1.099   3.738   7.912 -1.7377  2.3147 -0.0680
 5048TIP3    H239340   0.993   3.760   7.807 -0.8389 -0.7600 -1.7321
 5049TIP3   OH239341   4.457   1.565   2.043 -0.1797  0.2049  0.2469
 5049TIP3    H139342   4.422   1.627   2.107  2.6175  0.9043  1.2595
 5049TIP3    H239343   4.382   1.512   2.017 -2.3089  2.7631  0.7662
 5050TIP3   OH239344   2.127   0.081   2.421  0.3990 -0.2493 -0.0143
 5050TIP3    H139345   2.090   0.164   2.451  0.7800 -0.2400  0.4427
 5050TIP3    H239346   2.158   0.038   2.501 -0.4193 -1.1489 -0.1606
 5051TIP3   OH239347   3.239   6.913   8.772 -0.4274  0.2032  0.2408
 5051TIP3    H139348   3.191   6.847   8.722 -1.4534  0.8833  0.3176
 5051TIP3    H239349   3.221   6.892   8.864  0.8558 -0.5936  0.3350
 5052TIP3   OH239350   7.024   7.170   0.684  0.2606  0.7499 -0.2490
 5052TIP3    H139351   7.084   7.170   0.759 -1.0252 -0.6852  0.8522
 5052TIP3    H239352   6.956   7.107   0.708 -0.4064  0.5344 -2.4755
 5053TIP3   OH239353   3.189   5.733   1.117 -0.2656  0.7101 -0.3643
 5053TIP3    H139354   3.121   5.800   1.116 -0.3946  0.6100  0.5624
 5053TIP3    H239355   3.146   5.654   1.084 -0.7017  0.5628  0.5307
 5054TIP3   OH239356   0.617   2.750   1.159 -0.4710 -0.0025  0.4374
 5054TIP3    H139357   0.587   2.773   1.247 -1.3644 -0.7241  0.3345
 5054TIP3    H239358   0.678   2.820   1.135 -0.9409  0.7057  1.2543
 5055TIP3   OH239359   3.706   5.229   2.545  0.5501 -0.0840 -0.3167
 5055TIP3    H139360   3.687   5.317   2.510  0.3810  0.5975  1.4175
 5055TIP3    H239361   3.703   5.240   2.640  3.1327 -1.4016 -0.0196
 5056TIP3   OH239362   6.373   0.240   9.849  0.2829  0.3684 -0.8361
 5056TIP3    H139363   6.416   0.159   9.822 -0.5553  0.1017 -1.4151
 5056TIP3    H239364   6.281   0.227   9.829  0.3149  2.0184 -2.3402
 5057TIP3   OH239365   0.947   3.040   1.968  0.4274  0.1353 -0.3407
 5057TIP3    H139366   0.992   2.956   1.965  0.9040  0.4030 -0.9195
 5057TIP3    H239367   0.987   3.085   2.042 -0.3244 -0.4103  0.4151
 5058TIP3   OH239368   4.224   0.730   1.373  0.3643 -0.3122  0.9775
 5058TIP3    H139369   4.139   0.733   1.416 -0.0490 -0.9490  0.2336
 5058TIP3    H239370   4.284   0.700   1.441 -0.1657 -0.7065  1.2818
 5059TIP3   OH239371   5.338   7.257   0.167  0.6605  0.6061  0.1349
 5059TIP3    H139372   5.421   7.210   0.169 -0.3892 -1.3731 -0.6170
 5059TIP3    H239373   5.294   7.232   0.249  0.0313  0.1342 -0.3415
 5060TIP3   OH239374   0.884   4.628   0.924  0.2511 -0.0545  0.2077
 5060TIP3    H139375   0.976   4.616   0.948  1.0054  2.9738 -0.6629
 5060TIP3    H239376   0.856   4.705   0.974 -2.3581 -1.7606  1.6208
 5061TIP3   OH239377   5.583   1.556   8.772  0.3414  0.3402  0.9431
 5061TIP3    H139378   5.652   1.490   8.763  0.1349  0.2546 -0.1755
 5061TIP3    H239379   5.599   1.618   8.700  0.2124  1.2215  1.6503
 5062TIP3   OH239380   3.283   1.762   2.609 -0.1364  0.2753 -0.1717
 5062TIP3    H139381   3.222   1.796   2.543 -0.6932 -0.4095 -0.0197
 5062TIP3    H239382   3.256   1.806   2.690 -0.9410 -0.5889  0.0513
 5063TIP3   OH239383   6.719   2.823   1.342  0.0284 -0.2776  0.4451
 5063TIP3    H139384   6.638   2.871   1.359  0.3061  0.5918 -0.6198
 5063TIP3    H239385   6.787   2.890   1.342  0.6896 -0.9399  0.8586
 5064TIP3   OH239386   1.789   5.594   9.832 -0.0790 -0.2455  0.2853
 5064TIP3    H139387   1.726   5.666   9.830 -0.3291 -0.4650 -2.0973
 5064TIP3    H239388   1.863   5.625   9.781  0.1412 -1.3764 -0.1112
 5065TIP3   OH239389   5.144   1.974   0.750 -0.2746  0.4916  0.3326
 5065TIP3    H139390   5.078   1.904   0.751  0.5879 -0.3495  1.8155
 5065TIP3    H239391   5.109   2.039   0.690 -1.3190 -1.0196 -0.7550
 5066TIP3   OH239392   1.689   3.470   9.839 -0.0391 -0.0415  0.2457
 5066TIP3    H139393   1.772   3.435   9.872 -0.2984  0.2135  1.2124
 5066TIP3    H239394   1.699   3.565   9.842  0.6177  0.0410 -2.2663
 5067TIP3   OH239395   1.594   0.645   7.252 -0.5274 -0.4360 -0.1289
 5067TIP3    H139396   1.552   0.570   7.209 -1.0836 -0.8171  1.0427
 5067TIP3    H239397   1.637   0.607   7.329 -1.4059  0.5164  0.8755
 5068TIP3   OH239398   6.218   1.784   9.241 -0.2906  0.2546 -0.0338
 5068TIP3    H139399   6.266   1.867   9.239  2.5661 -1.2350 -2.9220
 5068TIP3    H239400   6.141   1.800   9.187  0.0713  1.1681 -0.2996
 5069TIP3   OH239401   3.820   5.200   1.765 -0.1037 -0.4680  0.3968
 5069TIP3    H139402   3.822   5.109   1.796 -0.3726 -0.1069  1.5113
 5069TIP3    H239403   3.744   5.204   1.706 -0.5382 -0.7826  0.9300
 5070TIP3   OH239404   0.064   1.748   9.397  0.1730  0.8770  0.2365
 5070TIP3    H139405   0.111   1.721   9.477 -0.4547 -0.8182  0.0766
 5070TIP3    H239406   0.004   1.675   9.379  1.3842  0.4586 -2.6472
 5071TIP3   OH239407   2.345   1.928   1.283 -0.2138 -0.4791  0.1146
 5071TIP3    H139408   2.403   1.891   1.350 -1.1880 -1.3011  0.5291
 5071TIP3    H239409   2.267   1.873   1.286 -0.8710  0.3799 -0.6847
 5072TIP3   OH239410   3.271   6.247   0.096 -0.1027  0.0059  0.3484
 5072TIP3    H139411   3.220   6.277   0.021 -2.1922 -0.5530  1.4827
 5072TIP3    H239412   3.353   6.298   0.091  0.4143 -0.9394 -2.9754
 5073TIP3   OH239413   1.246   5.607   2.220  0.2787  0.0222 -0.1426
 5073TIP3    H139414   1.210   5.523   2.195  0.8243 -0.1565 -0.3444
 5073TIP3    H239415   1.277   5.595   2.310 -0.3966  0.2511  0.1219
 5074TIP3   OH239416   0.478   5.310   7.054 -0.7104 -0.6468 -0.4063
 5074TIP3    H139417   0.525   5.238   7.011  0.4653 -0.2839  0.2317
 5074TIP3    H239418   0.472   5.378   6.988 -0.9825 -0.9607 -0.7103
 5075TIP3   OH239419   7.244   4.762   8.262 -0.1039 -0.2932 -0.1552
 5075TIP3    H139420   7.256   4.840   8.208 -0.2291  0.2640  0.6045
 5075TIP3    H239421   7.149   4.746   8.260 -0.1179 -0.2251 -0.0329
 5076TIP3   OH239422   4.642   5.496   0.731  0.1700  0.4951 -0.0159
 5076TIP3    H139423   4.698   5.527   0.660 -0.4137 -1.1206 -1.2486
 5076TIP3    H239424   4.691   5.424   0.771 -1.4070 -1.8324 -1.9510
 5077TIP3   OH239425   3.910   1.942   0.809 -0.2282  0.1449  0.1622
 5077TIP3    H139426   3.843   2.008   0.830 -0.2298 -0.3941  2.0393
 5077TIP3    H239427   3.861   1.871   0.767 -0.1333  1.5291 -2.5325
 5078TIP3   OH239428   5.382   2.480   1.985  0.7633  0.2640 -0.1749
 5078TIP3    H139429   5.455   2.541   1.987 -0.2325  1.4931  1.7299
 5078TIP3    H239430   5.317   2.521   1.927  0.9182 -0.0256 -0.5584
 5079TIP3   OH239431   2.239   6.995   9.879  0.0975 -0.0458 -0.1342
 5079TIP3    H139432   2.302   6.957   9.818 -0.0765 -0.0885 -0.2901
 5079TIP3    H239433   2.280   7.076   9.909  0.0810  0.0947 -0.4925
 5080TIP3   OH239434   4.314   0.351   7.875 -0.0827  0.3081 -0.1765
 5080TIP3    H139435   4.351   0.268   7.905 -0.4842  0.8516  2.0183
 5080TIP3    H239436   4.229   0.328   7.839  0.1324 -0.3186 -0.2958
 5081TIP3   OH239437   1.112   2.904   8.633  0.2817  0.0224  0.1338
 5081TIP3    H139438   1.205   2.907   8.656  0.4700  0.3338 -0.6534
 5081TIP3    H239439   1.102   2.823   8.583 -0.2293 -0.9185  1.6858
 5082TIP3   OH239440   5.614   0.500   7.999 -0.2252  0.1513 -0.2775
 5082TIP3    H139441   5.617   0.409   7.967  0.0552  0.0746 -0.0374
 5082TIP3    H239442   5.609   0.492   8.094  0.8068  0.3926 -0.1930
 5083TIP3   OH239443   0.541   3.203   9.345  0.3530  0.7244 -0.8179
 5083TIP3    H139444   0.526   3.208   9.439 -1.1700  1.9204 -1.0835
 5083TIP3    H239445   0.556   3.293   9.318  2.4168  0.2334 -1.5274
 5084TIP3   OH239446   6.396   3.943   1.745  0.4430 -0.7331 -0.0707
 5084TIP3    H139447   6.463   3.876   1.736  1.5546  0.3280  0.1201
 5084TIP3    H239448   6.399   3.969   1.837 -1.3226 -1.7601  0.3185
 5085TIP3   OH239449   5.816   2.076   8.278 -0.0607  0.2800 -0.1965
 5085TIP3    H139450   5.753   2.132   8.234 -1.5707 -1.9113 -0.9728
 5085TIP3    H239451   5.765   2.026   8.342  0.8567 -1.4011 -0.6893
 5086TIP3   OH239452   6.198   4.600   0.400 -0.8778 -0.0104 -0.2073
 5086TIP3    H139453   6.168   4.516   0.434  0.2146 -1.3915 -2.3965
 5086TIP3    H239454   6.291   4.586   0.380 -0.2767  2.2042  0.7151
 5087TIP3   OH239455   5.548   7.033   9.933  0.1257 -0.5835 -0.2339
 5087TIP3    H139456   5.636   7.057   9.903 -0.7997  1.7437 -1.3333
 5087TIP3    H239457   5.545   7.063  10.023 -0.1749  1.3085 -0.8325
 5088TIP3   OH239458   1.291   4.926   8.400 -0.4711  0.1700 -0.0080
 5088TIP3    H139459   1.270   4.980   8.477  0.3711 -1.4091  1.3961
 5088TIP3    H239460   1.364   4.972   8.358  0.7221 -0.2010  1.5847
 5089TIP3   OH239461   0.817   2.247   8.198  0.1275 -0.3407  0.2741
 5089TIP3    H139462   0.747   2.225   8.259 -1.6038 -1.3593 -1.9133
 5089TIP3    H239463   0.858   2.163   8.177  0.3137 -0.0899 -0.3882
 5090TIP3   OH239464   3.593   1.432   7.770  0.0023  0.2187 -0.1330
 5090TIP3    H139465   3.622   1.357   7.718  1.7780  0.6736  0.1278
 5090TIP3    H239466   3.658   1.438   7.841 -0.7728  1.3000  0.5108
 5091TIP3   OH239467   5.041   3.621   9.500  0.0964 -0.4676 -0.3743
 5091TIP3    H139468   4.964   3.664   9.537 -1.1681  0.7574 -3.9392
 5091TIP3    H239469   5.112   3.683   9.515 -0.1898 -0.3474  0.5633
 5092TIP3   OH239470   1.658   5.494   0.357 -0.0589 -0.1326 -0.3999
 5092TIP3    H139471   1.752   5.474   0.359 -0.0672 -0.1211  0.1731
 5092TIP3    H239472   1.618   5.426   0.411 -0.0817  1.4050  1.6497
 5093TIP3   OH239473   0.784   0.181   7.540 -0.6660 -0.4748 -0.7512
 5093TIP3    H139474   0.720   0.166   7.471  0.1260 -2.7757 -1.0532
 5093TIP3    H239475   0.867   0.151   7.504  0.4905  1.6629 -0.0602
 5094TIP3   OH239476   1.053   0.742   1.220 -0.1485  0.2981  0.5581
 5094TIP3    H139477   0.997   0.665   1.234  1.0197 -0.5631  0.6039
 5094TIP3    H239478   1.120   0.712   1.158 -0.7164  1.8054 -0.8771
 5095TIP3   OH239479   1.023   0.137   8.274  0.3098 -0.1020  0.1851
 5095TIP3    H139480   0.964   0.208   8.249  2.7345  2.4087  1.1815
 5095TIP3    H239481   0.984   0.100   8.353 -0.7845  0.3931 -0.1066
 5096TIP3   OH239482   0.146   1.769   9.023  0.0468  0.2209 -0.1378
 5096TIP3    H139483   0.060   1.729   9.024  0.2919 -0.4501 -2.1033
 5096TIP3    H239484   0.147   1.826   9.100 -1.6859 -0.6742  0.5906
 5097TIP3   OH239485   1.908   1.842   7.117 -0.5556 -0.2756  0.2460
 5097TIP3    H139486   1.817   1.860   7.143 -0.5098 -0.4641  0.5381
 5097TIP3    H239487   1.931   1.915   7.060 -1.1935 -0.6816 -0.5737
 5098TIP3   OH239488   2.589   7.182   8.129  0.4055  0.0467  0.0792
 5098TIP3    H139489   2.649   7.255   8.112  0.5633 -0.5917 -2.5757
 5098TIP3    H239490   2.643   7.118   8.175  1.0296  0.5091  0.0153
 5099TIP3   OH239491   1.490   5.552   9.752  0.2880 -0.4084  0.1889
 5099TIP3    H139492   1.466   5.644   9.761 -1.4146 -0.8986  1.2136
 5099TIP3    H239493   1.554   5.550   9.681  0.3051  1.5442  0.1075
 5100TIP3   OH239494   6.430   2.621   7.954  0.2689 -0.2483 -0.4093
 5100TIP3    H139495   6.457   2.607   8.045  0.0693  0.5685 -0.2190
 5100TIP3    H239496   6.502   2.671   7.915  0.4910 -0.8514 -0.7882
 5101TIP3   OH239497   7.220   2.272   1.716  0.8090 -0.2862  0.2984
 5101TIP3    H139498   7.181   2.334   1.655  0.8938 -0.1091  0.4230
 5101TIP3    H239499   7.284   2.224   1.664  2.1585  1.0664  0.6332
 5102TIP3   OH239500   5.918   4.429   7.538  0.2253 -0.0122  0.1608
 5102TIP3    H139501   5.904   4.507   7.485  0.7418 -1.4870 -2.3307
 5102TIP3    H239502   6.001   4.393   7.506 -1.4650 -3.2138 -1.0927
 5103TIP3   OH239503   2.677   4.248   9.675  0.0601 -0.1713 -0.1118
 5103TIP3    H139504   2.727   4.259   9.595  0.8692 -0.3769  0.3532
 5103TIP3    H239505   2.603   4.193   9.650 -0.2286  0.5656 -0.9239
 5104TIP3   OH239506   4.952   3.535   9.257 -0.4165  0.0033  0.4337
 5104TIP3    H139507   4.995   3.565   9.338 -0.0153  1.1601 -0.1831
 5104TIP3    H239508   4.925   3.615   9.213 -1.4995 -0.6532 -0.1275
 5105TIP3   OH239509   7.270   7.173   2.094  0.3413  0.1104  0.0717
 5105TIP3    H139510   7.275   7.137   2.182  0.3229  1.3522  0.5984
 5105TIP3    H239511   7.177   7.190   2.080  0.4244  0.5459  0.0645
 5106TIP3   OH239512   3.023   3.837   9.323  0.4846  0.1226 -0.3446
 5106TIP3    H139513   3.060   3.854   9.410  0.9789  0.8467 -0.6797
 5106TIP3    H239514   2.929   3.847   9.334  0.6194  1.2849 -0.1010
 5107TIP3   OH239515   0.830   6.937   2.454 -0.4237  0.1749  0.3295
 5107TIP3    H139516   0.889   6.952   2.527  2.2597 -2.4259 -1.0763
 5107TIP3    H239517   0.882   6.959   2.376 -1.8504 -0.6914 -0.9290
 5108TIP3   OH239518   3.699   1.440   2.884  0.7125 -0.5124 -0.3825
 5108TIP3    H139519   3.612   1.400   2.884  0.9582 -1.1113 -1.6481
 5108TIP3    H239520   3.683   1.534   2.875  0.1904 -0.5838 -0.1931
 5109TIP3   OH239521   4.265   7.222   0.076  0.2435 -0.0786  0.0124
 5109TIP3    H139522   4.214   7.157   0.124 -0.6581 -1.0332 -2.1087
 5109TIP3    H239523   4.272   7.187  -0.012 -1.5063  3.2340 -1.6596
 5110TIP3   OH239524   0.544   6.722   2.144 -0.4762 -0.0460 -0.1527
 5110TIP3    H139525   0.602   6.786   2.103  0.5346 -1.2664 -0.6839
 5110TIP3    H239526   0.565   6.727   2.237  1.0053 -0.9677 -0.4185
 5111TIP3   OH239527   5.862   6.769   8.814 -0.7214  0.3033 -0.1250
 5111TIP3    H139528   5.791   6.833   8.811 -0.2577  0.7882 -0.8555
 5111TIP3    H239529   5.916   6.798   8.888 -1.2065 -0.0049  0.3647
 5112TIP3   OH239530   3.914   1.467   0.960 -0.0041  1.2732  0.1288
 5112TIP3    H139531   3.990   1.468   0.902 -0.0814  1.2768  0.0285
 5112TIP3    H239532   3.888   1.375   0.964 -1.0261  1.4857 -1.1736
 5113TIP3   OH239533   5.158   1.441   7.483 -0.3783 -0.1453 -0.6644
 5113TIP3    H139534   5.150   1.366   7.542  1.8217  0.5315  0.6106
 5113TIP3    H239535   5.067   1.470   7.470 -1.1187 -1.7663  0.4361
 5114TIP3   OH239536   1.620   6.261   6.780  0.0257  0.5828  0.3560
 5114TIP3    H139537   1.674   6.183   6.773  0.2872  0.8031 -0.1562
 5114TIP3    H239538   1.653   6.320   6.712 -1.0048  0.6287 -0.1303
 5115TIP3   OH239539   2.849   5.387   2.301  0.0335 -0.5903  0.0268
 5115TIP3    H139540   2.787   5.385   2.228  1.9089 -1.4650 -1.6339
 5115TIP3    H239541   2.934   5.406   2.260  1.2389 -1.5429  1.9253
 5116TIP3   OH239542   3.995   0.635   8.434 -0.1582 -0.5053 -0.1139
 5116TIP3    H139543   3.971   0.601   8.348 -0.4007  0.4241 -0.4249
 5116TIP3    H239544   4.088   0.656   8.426 -0.4738  0.8124 -0.5862
 5117TIP3   OH239545   5.109   6.987   1.834 -0.6065  0.6332 -0.3691
 5117TIP3    H139546   5.038   6.923   1.829 -0.0742  0.0899 -1.3513
 5117TIP3    H239547   5.117   7.022   1.745  0.2305  0.8181 -0.2377
 5118TIP3   OH239548   1.128   1.414   9.468  0.2679  0.3988  0.5133
 5118TIP3    H139549   1.056   1.425   9.530 -0.4368 -0.0944 -0.1976
 5118TIP3    H239550   1.165   1.502   9.459 -2.3909  1.4558 -1.6255
 5119TIP3   OH239551   1.149   1.387   6.778 -0.3519  0.0317  0.2149
 5119TIP3    H139552   1.091   1.423   6.711  0.2442 -0.0344 -0.3490
 5119TIP3    H239553   1.228   1.362   6.730  1.3573  2.8058  1.3495
 5120TIP3   OH239554   2.655   5.636   0.537  0.3320  0.2447 -0.4336
 5120TIP3    H139555   2.743   5.612   0.564 -0.5982 -1.3425  1.4652
 5120TIP3    H239556   2.628   5.702   0.600 -0.9956 -1.7269  1.1659
 5121TIP3   OH239557   3.681   4.653   2.693 -0.2628 -0.0641 -0.6961
 5121TIP3    H139558   3.634   4.690   2.618  0.8465  1.3160 -0.7656
 5121TIP3    H239559   3.755   4.713   2.707  0.4064 -1.1186  0.5702
 5122TIP3   OH239560   3.730   7.271   2.099 -0.1628 -0.1592 -0.5265
 5122TIP3    H139561   3.750   7.348   2.153  1.0159 -0.7215 -0.1263
 5122TIP3    H239562   3.651   7.234   2.138 -1.6692  1.6458 -1.6221
 5123TIP3   OH239563   2.503   3.426   8.532 -0.5291  0.1949 -0.4509
 5123TIP3    H139564   2.510   3.395   8.441 -3.1447  0.1095 -0.7246
 5123TIP3    H239565   2.417   3.468   8.535 -0.9483 -0.7128  2.2524
 5124TIP3   OH239566   4.388   2.919   9.838 -0.2516  0.9088 -0.1771
 5124TIP3    H139567   4.351   2.863   9.769 -0.5749 -1.3114  1.6569
 5124TIP3    H239568   4.368   3.008   9.810 -1.4099  0.0536 -2.3535
 5125TIP3   OH239569   3.228   2.004   7.384  0.5926 -0.2014  0.9228
 5125TIP3    H139570   3.309   1.953   7.388  0.8823  0.2449  0.7930
 5125TIP3    H239571   3.255   2.094   7.401 -0.0723 -0.2369  2.3685
 5126TIP3   OH239572   6.311   6.720   1.290 -0.2971  0.2269  0.6350
 5126TIP3    H139573   6.380   6.659   1.267 -1.8613 -0.3658 -3.3259
 5126TIP3    H239574   6.277   6.688   1.374  0.2739 -3.1934 -0.2887
 5127TIP3   OH239575   1.309   3.557   9.437  0.2512 -0.3426 -0.1850
 5127TIP3    H139576   1.285   3.588   9.524  0.0258 -1.8111  0.2960
 5127TIP3    H239577   1.314   3.462   9.445 -0.8472 -0.6141 -2.0405
 5128TIP3   OH239578   7.139   6.016   2.478  0.9290  0.4213 -0.5862
 5128TIP3    H139579   7.049   5.985   2.488  1.3366 -0.1908  1.7370
 5128TIP3    H239580   7.192   5.936   2.472  1.4331  0.7565 -0.7000
 5129TIP3   OH239581   4.131   1.092   0.152  0.1748 -0.4266  0.1937
 5129TIP3    H139582   4.098   1.003   0.161  0.3459 -0.6081 -0.7860
 5129TIP3    H239583   4.107   1.117   0.062 -0.7131  0.8651  0.7713
 5130TIP3   OH239584   0.453   0.608   1.620  0.1963  0.8390  0.0269
 5130TIP3    H139585   0.422   0.689   1.660  0.2331  1.8384 -1.8797
 5130TIP3    H239586   0.496   0.635   1.539  1.7679 -0.9400  0.1859
 5131TIP3   OH239587   0.345   5.499   7.524  0.5843  0.2889  0.3205
 5131TIP3    H139588   0.343   5.496   7.429 -0.6657  0.4766  0.3270
 5131TIP3    H239589   0.284   5.432   7.552  2.7518 -1.4981  1.0736
 5132TIP3   OH239590   6.458   1.547   1.631  0.1305 -0.2228 -0.3529
 5132TIP3    H139591   6.503   1.629   1.610  2.2048 -1.4193 -0.8457
 5132TIP3    H239592   6.383   1.545   1.572 -0.7417  1.9112  0.5980
 5133TIP3   OH239593   6.452   3.267   9.993  0.1520 -0.2552  0.1038
 5133TIP3    H139594   6.537   3.278  10.036  0.5662  0.3645 -0.8250
 5133TIP3    H239595   6.444   3.343   9.936 -0.5258 -0.8731 -0.6564
 5134TIP3   OH239596   2.281   2.191   1.938 -0.4687  0.0355 -0.5188
 5134TIP3    H139597   2.264   2.110   1.986 -1.1355  0.1412 -0.5604
 5134TIP3    H239598   2.197   2.237   1.940 -0.3661  0.2738 -1.3401
 5135TIP3   OH239599   5.934   5.382   8.705  0.0789 -0.1327 -0.1881
 5135TIP3    H139600   5.924   5.291   8.676 -0.5580 -0.0580 -0.2253
 5135TIP3    H239601   5.939   5.377   8.800 -0.7283 -0.1587 -0.1333
 5136TIP3   OH239602   4.586   2.001   1.838 -0.1068 -0.1622 -0.2664
 5136TIP3    H139603   4.591   2.083   1.788 -2.3606  0.1946 -0.0315
 5136TIP3    H239604   4.558   2.028   1.925  0.1658 -1.0989  0.1255
 5137TIP3   OH239605   0.293   2.632   8.637 -0.2791  0.0051  0.6664
 5137TIP3    H139606   0.365   2.591   8.589 -0.0726  1.2517 -0.1522
 5137TIP3    H239607   0.214   2.600   8.594 -0.1182  0.5035 -0.0189
 5138TIP3   OH239608   6.524   7.183   1.688  0.1735 -0.2427 -0.3815
 5138TIP3    H139609   6.578   7.124   1.741 -1.5522 -0.6125  1.0370
 5138TIP3    H239610   6.434   7.154   1.702 -0.4634  0.5056 -2.4937
 5139TIP3   OH239611   2.384   0.210   6.934  0.1277  0.5752  0.3442
 5139TIP3    H139612   2.319   0.280   6.932  0.0372  0.4755 -0.5925
 5139TIP3    H239613   2.392   0.181   6.843  0.9589  0.0985  0.5532
 5140TIP3   OH239614   6.281   5.308   2.878  0.3591  0.1288  0.2723
 5140TIP3    H139615   6.274   5.308   2.974  0.2354 -0.9849  0.2785
 5140TIP3    H239616   6.368   5.342   2.860 -0.0948  1.5759  0.7254
 5141TIP3   OH239617   1.474   0.017   3.000  0.4722  0.0573  0.1114
 5141TIP3    H139618   1.382   0.004   3.025  0.3445 -0.4993 -0.6186
 5141TIP3    H239619   1.512  -0.071   3.005  0.4668 -0.0534 -1.5257
 5142TIP3   OH239620   5.053   1.537   0.013  0.1628 -0.3589 -0.0208
 5142TIP3    H139621   4.980   1.554  -0.046 -0.9112 -0.1811  1.3005
 5142TIP3    H239622   5.089   1.623   0.033 -0.9002 -0.1649  1.2710
 5143TIP3   OH239623   1.196   1.490   7.951  0.3610 -0.0450  0.1983
 5143TIP3    H139624   1.290   1.490   7.932  0.7390 -0.0104  1.8950
 5143TIP3    H239625   1.160   1.423   7.893  1.9516 -2.3106  1.6672
 5144TIP3   OH239626   1.787   5.115   2.319 -0.0796  0.2337  0.5142
 5144TIP3    H139627   1.711   5.168   2.294  0.7162  0.7089 -1.0776
 5144TIP3    H239628   1.840   5.173   2.374 -0.3269  0.2834  0.7019
 5145TIP3   OH239629   4.657   1.557   9.306 -0.1049 -0.4428  0.0749
 5145TIP3    H139630   4.585   1.495   9.311 -0.7460 -0.0219 -2.7100
 5145TIP3    H239631   4.623   1.636   9.349 -0.6963 -0.7585  0.1960
 5146TIP3   OH239632   1.446   2.391   9.053 -0.0601  0.5775  0.5203
 5146TIP3    H139633   1.478   2.426   8.969 -2.4158  0.4903 -0.4905
 5146TIP3    H239634   1.387   2.459   9.086  0.0794  0.1742  1.6277
 5147TIP3   OH239635   6.189   4.167   2.016  0.0987 -0.1871 -0.4444
 5147TIP3    H139636   6.183   4.251   1.971  1.3338  0.1684  0.0170
 5147TIP3    H239637   6.101   4.151   2.050 -0.0118  1.1801 -0.0728
 5148TIP3   OH239638   4.889   1.847   7.037 -0.2821 -0.0715 -0.4956
 5148TIP3    H139639   4.905   1.870   7.128  1.0059  1.6963 -1.1101
 5148TIP3    H239640   4.955   1.781   7.017 -1.5913 -1.6714  0.2452
 5149TIP3   OH239641   4.343   2.037   7.317 -0.0064  0.3064 -0.0137
 5149TIP3    H139642   4.323   1.965   7.257  0.3222  1.4033 -1.4889
 5149TIP3    H239643   4.439   2.040   7.319 -0.0213  0.9782 -0.2948
 5150TIP3   OH239644   1.889   5.398   0.012 -0.1628 -0.2774 -0.0456
 5150TIP3    H139645   1.956   5.464   0.030 -0.8414  0.0877  1.3313
 5150TIP3    H239646   1.845   5.430  -0.067 -1.0705  1.4772  1.0916
 5151TIP3   OH239647   5.879   3.758   7.394  0.4493  0.5844  0.0275
 5151TIP3    H139648   5.799   3.770   7.446  1.8150  2.5705  1.8172
 5151TIP3    H239649   5.866   3.816   7.318 -0.6654 -0.7728 -0.8924
 5152TIP3   OH239650   2.372   5.218   9.564 -0.4375 -0.1178 -1.0715
 5152TIP3    H139651   2.379   5.124   9.552 -0.3449 -0.5336  1.6373
 5152TIP3    H239652   2.461   5.251   9.549 -0.3537 -0.5287 -1.4762
 5153TIP3   OH239653   6.636   3.608   1.451 -0.6606 -0.0906 -1.2005
 5153TIP3    H139654   6.706   3.625   1.387 -1.9456  0.4872 -2.5066
 5153TIP3    H239655   6.572   3.555   1.404 -2.7857  2.2972 -1.2782
 5154TIP3   OH239656   7.263   0.941   7.436 -0.1628 -0.3959  0.0322
 5154TIP3    H139657   7.170   0.919   7.447  0.0361 -0.9900  0.6089
 5154TIP3    H239658   7.269   0.979   7.349 -1.1958  0.9641  0.5210
 5155TIP3   OH239659   1.707   3.677   7.974 -0.0572  0.4205  0.2445
 5155TIP3    H139660   1.793   3.688   7.935 -0.2800 -2.2130 -1.2340
 5155TIP3    H239661   1.653   3.745   7.933  0.5554 -0.0287 -1.3692
 5156TIP3   OH239662   2.048   5.274   6.626 -0.0260  0.1184  0.0166
 5156TIP3    H139663   2.012   5.319   6.549  1.1280 -0.6180 -0.9725
 5156TIP3    H239664   2.112   5.336   6.661 -1.8339  1.2544  1.5390
 5157TIP3   OH239665   6.377   1.878   1.630 -0.3751  1.0434 -0.1286
 5157TIP3    H139666   6.376   1.927   1.547  0.3348  0.1818 -0.6520
 5157TIP3    H239667   6.308   1.813   1.619 -0.0617  0.7189 -0.1718
 5158TIP3   OH239668   4.740   1.078   0.737 -0.9572 -0.4875 -0.6800
 5158TIP3    H139669   4.815   1.108   0.685  0.2107 -1.1353  0.5832
 5158TIP3    H239670   4.693   1.017   0.679 -0.0138 -0.7639 -1.1704
 5159TIP3   OH239671   5.116   1.805   9.747 -0.0934 -0.2471 -0.0106
 5159TIP3    H139672   5.167   1.879   9.713 -1.5799  0.0031 -1.8719
 5159TIP3    H239673   5.133   1.805   9.841  2.4190  0.4923 -0.3917
 5160TIP3   OH239674   0.941   5.578   9.892  0.2861  0.4117 -0.4796
 5160TIP3    H139675   0.955   5.488   9.919 -0.6815  0.8106  1.5299
 5160TIP3    H239676   1.022   5.623   9.918  0.6000  0.2091 -1.0986
 5161TIP3   OH239677   6.623   1.025   2.096  0.2527  0.3332  0.2679
 5161TIP3    H139678   6.561   0.954   2.110  1.5430 -1.1326 -1.1316
 5161TIP3    H239679   6.569   1.104   2.097 -1.4336 -0.7675  0.3787
 5162TIP3   OH239680   0.147   6.830   8.907 -0.1150  0.4511  0.1825
 5162TIP3    H139681   0.200   6.774   8.850  1.0180  1.6910 -0.0262
 5162TIP3    H239682   0.065   6.841   8.860  0.4162  0.6106 -0.7341
 5163TIP3   OH239683   5.985   6.939   1.399  0.0135  0.4323  0.0907
 5163TIP3    H139684   6.019   6.966   1.484  0.5985  0.0678 -0.0271
 5163TIP3    H239685   5.912   7.000   1.382  0.6566  1.2782  0.2908
 5164TIP3   OH239686   4.683   7.217   0.851  0.1228  0.2373  0.5696
 5164TIP3    H139687   4.685   7.256   0.938 -1.1217  1.7658 -0.0334
 5164TIP3    H239688   4.675   7.291   0.792 -2.5872 -0.8917 -0.6434
 5165TIP3   OH239689   7.175   4.495   3.319 -0.0539  0.1435 -0.8898
 5165TIP3    H139690   7.163   4.420   3.378 -0.8077 -0.6778 -2.0500
 5165TIP3    H239691   7.142   4.465   3.234  2.8432  0.5412 -2.3120
 5166TIP3   OH239692   5.656   6.884   2.374  0.3115  0.5722 -0.0003
 5166TIP3    H139693   5.574   6.931   2.392 -1.3914 -2.1072 -0.2905
 5166TIP3    H239694   5.701   6.880   2.458 -1.2800 -0.4231  0.8465
 5167TIP3   OH239695   0.882   1.964   8.908  0.2822 -0.0634  0.5496
 5167TIP3    H139696   0.865   1.996   8.819 -1.7016 -1.3054  0.4113
 5167TIP3    H239697   0.950   2.023   8.942 -0.6422  1.9805 -0.9043
 5168TIP3   OH239698   6.743   3.508   2.401 -0.2649  0.4728  0.3173
 5168TIP3    H139699   6.667   3.559   2.430 -0.0402  2.8734 -2.7730
 5168TIP3    H239700   6.756   3.536   2.311  2.9221 -1.6046  0.0185
 5169TIP3   OH239701   5.488   2.821   0.803 -0.0831 -0.6588 -0.7080
 5169TIP3    H139702   5.405   2.812   0.755 -0.0550  1.6000 -1.2725
 5169TIP3    H239703   5.509   2.914   0.797  1.3594 -0.7947  1.3666
 5170TIP3   OH239704   0.608   3.945   9.045  0.7314  0.5253 -0.0892
 5170TIP3    H139705   0.551   3.992   9.106  0.4941  0.2497 -0.0934
 5170TIP3    H239706   0.695   3.980   9.061  0.7308  0.1989  0.6597
 5171TIP3   OH239707   1.689   5.952   9.395  0.2120  0.4628  0.2079
 5171TIP3    H139708   1.669   5.858   9.393  1.8437  0.0856  0.4627
 5171TIP3    H239709   1.654   5.985   9.312 -0.1073 -0.4365 -0.0286
 5172TIP3   OH239710   6.157   3.088   2.351 -0.4062 -0.2688  0.5036
 5172TIP3    H139711   6.098   3.128   2.286  0.8698 -1.4197 -1.4421
 5172TIP3    H239712   6.218   3.036   2.299  0.9376 -0.9144  2.6349
 5173TIP3   OH239713   1.930   4.867   6.874  0.1075  0.2909 -0.2008
 5173TIP3    H139714   2.019   4.898   6.858  0.3399  0.5743  1.5237
 5173TIP3    H239715   1.876   4.917   6.813  0.9226  1.3447 -0.0783
 5174TIP3   OH239716   4.864   4.342   7.415 -0.4181 -0.3363 -0.0356
 5174TIP3    H139717   4.842   4.399   7.489  3.2918  1.2657  0.0646
 5174TIP3    H239718   4.839   4.392   7.337 -0.7958 -0.3395  0.0810
 5175TIP3   OH239719   0.552   4.644   9.030 -0.4447 -0.0698 -0.2263
 5175TIP3    H139720   0.536   4.696   8.951 -1.3432  1.2044  0.7574
 5175TIP3    H239721   0.473   4.656   9.083 -0.2638 -1.6939  0.4574
 5176TIP3   OH239722   3.641   6.691   1.499  0.7116 -0.4510 -0.1845
 5176TIP3    H139723   3.567   6.720   1.553  1.6530  2.5103 -0.2698
 5176TIP3    H239724   3.716   6.696   1.559  1.6667  2.2614 -1.4303
 5177TIP3   OH239725   0.360   2.597   9.460 -0.1380  0.1561  0.4718
 5177TIP3    H139726   0.401   2.621   9.543  0.6355 -1.7929  0.7237
 5177TIP3    H239727   0.273   2.565   9.485 -0.0046 -0.1813  0.5106
 5178TIP3   OH239728   2.410   3.509   1.252 -0.6278 -0.0994  0.1197
 5178TIP3    H139729   2.332   3.549   1.212 -0.3770  1.3841  1.0509
 5178TIP3    H239730   2.383   3.418   1.269 -1.5669 -0.0894 -1.1061
 5179TIP3   OH239731   4.407   6.030   8.575 -0.1845  0.3195 -0.3961
 5179TIP3    H139732   4.343   6.019   8.505  0.2213 -0.4653 -0.6552
 5179TIP3    H239733   4.490   6.045   8.530 -0.1696  1.2621 -0.0622
 5180TIP3   OH239734   1.766   1.807   0.647  0.1172 -0.1973 -0.3834
 5180TIP3    H139735   1.716   1.806   0.565 -1.0345  0.7215  0.2847
 5180TIP3    H239736   1.744   1.724   0.689  0.6049 -0.6112 -0.9289
 5181TIP3   OH239737   6.048   0.824   0.691 -0.6120  0.0237  0.6177
 5181TIP3    H139738   6.109   0.868   0.631  0.3446 -0.3333  1.3070
 5181TIP3    H239739   5.996   0.896   0.728 -0.8693  0.2984 -0.2390
 5182TIP3   OH239740   0.038   4.262   9.435  0.2068  0.1745  0.1158
 5182TIP3    H139741   0.038   4.261   9.339  0.2382 -3.1002  0.0557
 5182TIP3    H239742   0.005   4.177   9.460  4.1835 -0.8370  2.9434
 5183TIP3   OH239743   6.020   6.357   8.025  0.1105  0.1761 -0.1871
 5183TIP3    H139744   6.075   6.355   8.103 -1.0897  0.4601  0.6919
 5183TIP3    H239745   5.967   6.436   8.035 -0.6791 -0.2552 -0.8528
 5184TIP3   OH239746   6.912   3.558   8.542 -0.2843  0.4711  0.6222
 5184TIP3    H139747   6.905   3.575   8.636 -0.7447  1.7699  0.3689
 5184TIP3    H239748   6.904   3.462   8.534  0.5721  0.2669  1.9606
 5185TIP3   OH239749   6.374   5.296   0.622 -0.1671 -0.3214  0.2453
 5185TIP3    H139750   6.406   5.233   0.558 -2.2508 -1.5854  0.3642
 5185TIP3    H239751   6.452   5.322   0.671  0.8991 -2.1254 -0.3931
 5186TIP3   OH239752   0.478   7.228   7.560  0.2099  0.0420  0.0838
 5186TIP3    H139753   0.481   7.227   7.656 -1.6952 -0.6478  0.2027
 5186TIP3    H239754   0.386   7.208   7.540  0.6951 -0.4012 -1.8925
 5187TIP3   OH239755   5.490   1.407   9.257 -0.7407 -0.1355 -0.1804
 5187TIP3    H139756   5.407   1.417   9.304 -0.6257 -0.5985  0.1231
 5187TIP3    H239757   5.536   1.490   9.271 -0.7120 -0.2629  0.5120
 5188TIP3   OH239758   1.388   3.529   3.043  0.7484 -0.9213  0.1539
 5188TIP3    H139759   1.326   3.533   3.116 -0.7824 -1.1265 -1.1016
 5188TIP3    H239760   1.462   3.479   3.078 -0.6771 -2.4985  1.0809
 5189TIP3   OH239761   6.623   2.560   9.774  0.3014  0.2502 -0.4795
 5189TIP3    H139762   6.620   2.628   9.841  0.3370 -0.8211  0.6430
 5189TIP3    H239763   6.699   2.581   9.721  0.2745  1.1098 -0.1849
 5190TIP3   OH239764   4.736   2.253   2.098  0.3418 -0.5791  0.2052
 5190TIP3    H139765   4.762   2.258   2.189  0.1415  2.2834  0.1945
 5190TIP3    H239766   4.645   2.221   2.101 -0.2071  0.9460  1.1840
 5191TIP3   OH239767   4.187   6.484   0.243  0.0408  0.3788  0.5284
 5191TIP3    H139768   4.180   6.391   0.218  1.6603  0.5889 -0.8632
 5191TIP3    H239769   4.210   6.529   0.162  0.0073  1.9233  1.3343
 5192TIP3   OH239770   0.367   2.720   0.987  0.4425  0.3498  0.4239
 5192TIP3    H139771   0.290   2.774   0.966  0.4751  0.6513  1.0595
 5192TIP3    H239772   0.420   2.775   1.044  2.3667  1.1170 -1.9186
 5193TIP3   OH239773   5.143   5.034   0.437  0.3986  0.0094  0.4312
 5193TIP3    H139774   5.076   5.101   0.420  1.1009  0.4131 -0.9196
 5193TIP3    H239775   5.107   4.955   0.396  0.9561  0.3596 -0.7846
 5194TIP3   OH239776   4.458   1.090   8.058  0.0554 -0.3804  0.0930
 5194TIP3    H139777   4.445   1.120   8.148 -2.7068 -0.8461 -0.0608
 5194TIP3    H239778   4.373   1.057   8.031  1.2301 -1.8515 -2.1454
 5195TIP3   OH239779   4.827   4.171   2.349  0.0495  0.0609  0.1746
 5195TIP3    H139780   4.756   4.235   2.357 -0.1623 -0.4025  2.6252
 5195TIP3    H239781   4.799   4.097   2.402  1.8663 -0.6123  0.2566
 5196TIP3   OH239782   3.166   6.949   9.033  0.5969 -0.2573 -0.2204
 5196TIP3    H139783   3.167   7.045   9.033  0.7918 -0.2545  0.2102
 5196TIP3    H239784   3.074   6.926   9.050  0.6991 -0.1333  0.5508
 5197TIP3   OH239785   3.487   5.797   9.627  0.4544  0.5286  0.3665
 5197TIP3    H139786   3.420   5.821   9.563  0.9218  0.2050 -0.2635
 5197TIP3    H239787   3.490   5.871   9.687 -0.2619  0.6748  0.2370
 5198TIP3   OH239788   4.273   1.099   8.947  0.2076 -0.2816  0.0292
 5198TIP3    H139789   4.358   1.087   8.989  0.4253 -2.4843 -0.9098
 5198TIP3    H239790   4.293   1.097   8.853 -0.5135  2.5286 -0.2566
 5199TIP3   OH239791   3.399   4.927   7.644  0.4205 -0.0555  0.1257
 5199TIP3    H139792   3.366   4.893   7.561  0.6316 -0.3148  0.1467
 5199TIP3    H239793   3.324   4.924   7.703  0.6331 -1.2310  0.3507
 5200TIP3   OH239794   0.519   3.858   9.337  0.0574 -0.1981  0.4190
 5200TIP3    H139795   0.439   3.807   9.329  0.6766 -0.8790 -2.3210
 5200TIP3    H239796   0.499   3.942   9.296  0.3353  0.1469  0.9772
 5201TIP3   OH239797   4.432   2.026   9.486 -0.2662  0.0080  0.1316
 5201TIP3    H139798   4.480   2.073   9.554 -0.8273  0.1873  0.4113
 5201TIP3    H239799   4.404   2.094   9.425  0.0009 -0.1193 -0.1349
 5202TIP3   OH239800   6.360   3.055   8.709  0.5235  0.1930  0.1210
 5202TIP3    H139801   6.441   3.005   8.718  1.7906  2.2714  1.1897
 5202TIP3    H239802   6.291   2.993   8.732  1.9876 -1.0597  1.3947
 5203TIP3   OH239803   4.846   3.739   0.061 -0.6536  0.3838 -0.1242
 5203TIP3    H139804   4.866   3.706  -0.027  1.7447 -0.8255  0.7749
 5203TIP3    H239805   4.911   3.807   0.077 -1.2381  0.7874  0.6125
 5204TIP3   OH239806   0.133   7.077   0.628 -0.0464  0.4233  0.0847
 5204TIP3    H139807   0.149   6.997   0.677  0.0962  0.4175  0.0297
 5204TIP3    H239808   0.162   7.147   0.686 -1.7752  0.5617  0.8454
 5205TIP3   OH239809   5.969   0.894   7.448 -0.6448  0.1938 -0.0666
 5205TIP3    H139810   5.993   0.833   7.517  0.4527  0.0568 -0.5550
 5205TIP3    H239811   6.001   0.853   7.368 -1.2879  0.6765 -0.5809
 5206TIP3   OH239812   0.856   5.975   7.817  0.1737  0.2094  0.1631
 5206TIP3    H139813   0.792   6.012   7.878  0.3393  0.2856  0.2888
 5206TIP3    H239814   0.907   5.914   7.870 -0.8817 -1.1249 -0.2983
 5207TIP3   OH239815   6.838   2.377   8.499 -0.9785 -0.5789  0.1378
 5207TIP3    H139816   6.908   2.315   8.519 -0.9951 -1.5418 -2.4586
 5207TIP3    H239817   6.765   2.323   8.469 -1.2125  0.6082 -1.6088
 5208TIP3   OH239818   1.928   7.203   0.558  0.6716 -0.3431  0.5130
 5208TIP3    H139819   2.018   7.193   0.529  0.7540  0.9713  0.2804
 5208TIP3    H239820   1.907   7.295   0.543 -1.3480 -1.0120 -1.2952
 5209TIP3   OH239821   4.113   1.639   9.365 -0.4024  0.3167 -0.5140
 5209TIP3    H139822   4.031   1.655   9.412  0.5737  0.2733  1.3031
 5209TIP3    H239823   4.176   1.698   9.407  0.8992 -0.9200 -0.6582
 5210TIP3   OH239824   0.732   3.657   8.060 -0.9874 -0.5625  0.1368
 5210TIP3    H139825   0.659   3.635   8.118 -0.6638  3.8789  2.6525
 5210TIP3    H239826   0.692   3.670   7.974 -2.3684 -2.2839  0.4683
 5211TIP3   OH239827   6.691   3.454   7.848 -0.1554 -0.3209 -0.4612
 5211TIP3    H139828   6.717   3.509   7.922  0.7447 -2.1439  0.6491
 5211TIP3    H239829   6.740   3.489   7.773  0.8707  0.0111  0.3426
 5212TIP3   OH239830   3.723   2.646   0.596  0.1610 -0.3945 -0.6536
 5212TIP3    H139831   3.652   2.681   0.649  0.3381 -0.2121 -0.5327
 5212TIP3    H239832   3.783   2.606   0.659 -0.3404 -1.4636 -0.8452
 5213TIP3   OH239833   4.210   2.632   2.343 -0.1858 -0.3833  0.5895
 5213TIP3    H139834   4.263   2.602   2.417 -0.3182 -1.0362  0.4263
 5213TIP3    H239835   4.244   2.583   2.268 -0.9797 -0.7755  0.4742
 5214TIP3   OH239836   6.622   1.511   8.431  0.3477  0.1064  0.1437
 5214TIP3    H139837   6.649   1.564   8.506  1.1216 -0.0155 -0.0462
 5214TIP3    H239838   6.640   1.421   8.458 -0.0692  0.0064  0.0955
 5215TIP3   OH239839   4.360   0.513   9.596 -0.0285 -0.3285 -0.6806
 5215TIP3    H139840   4.285   0.499   9.655 -0.1010 -0.6276 -0.8408
 5215TIP3    H239841   4.434   0.528   9.654 -0.3897  0.9762 -0.5149
 5216TIP3   OH239842   0.928   2.706   1.351 -0.9021  0.6336  0.1041
 5216TIP3    H139843   0.934   2.801   1.343  0.1971  0.5821  0.1436
 5216TIP3    H239844   1.018   2.675   1.343 -1.0797 -0.3133  1.3101
 5217TIP3   OH239845   4.997   0.458   7.924 -0.0793  0.6369 -0.0092
 5217TIP3    H139846   4.937   0.472   7.997 -0.0237 -0.0298  0.1749
 5217TIP3    H239847   4.942   0.472   7.846 -0.1333  1.3615  0.1527
 5218TIP3   OH239848   4.540   1.677   7.403  0.8309 -0.6663 -0.2613
 5218TIP3    H139849   4.488   1.610   7.447  0.3236  0.7781  1.5033
 5218TIP3    H239850   4.474   1.735   7.364  1.1525  0.0441  0.2217
 5219TIP3   OH239851   1.488   3.187   1.987  0.1853 -0.1141 -0.2799
 5219TIP3    H139852   1.574   3.159   1.956  1.2973  2.1638  0.4672
 5219TIP3    H239853   1.505   3.222   2.075 -1.1143  2.0154 -0.8061
 5220TIP3   OH239854   4.655   2.450   9.085  0.6561 -0.0290  0.6157
 5220TIP3    H139855   4.702   2.386   9.138  2.0069  0.8636  0.5634
 5220TIP3    H239856   4.682   2.432   8.995  3.0323  2.0776  0.7991
 5221TIP3   OH239857   0.919   3.099   8.577 -0.1476 -0.5317  0.6661
 5221TIP3    H139858   0.860   3.064   8.511  0.7421  0.4376 -0.7074
 5221TIP3    H239859   0.984   3.030   8.590  1.5360  0.3969 -1.9416
 5222TIP3   OH239860   0.392   3.498   0.154  0.9313 -0.0203  0.8020
 5222TIP3    H139861   0.400   3.524   0.062 -1.7030 -0.6117  0.3171
 5222TIP3    H239862   0.385   3.580   0.202  2.6662  0.3021  0.5580
 5223TIP3   OH239863   3.199   2.511   9.832  0.4344  0.5910 -0.3825
 5223TIP3    H139864   3.146   2.582   9.796  0.6363  0.6068 -0.6452
 5223TIP3    H239865   3.200   2.528   9.927 -0.3447  0.3807 -0.3215
 5224TIP3   OH239866   3.486   4.981   0.549  0.3022 -0.3475  0.4373
 5224TIP3    H139867   3.437   4.927   0.610 -0.1879 -2.2010 -1.5014
 5224TIP3    H239868   3.569   4.998   0.593  0.3846 -2.5069  1.2289
 5225TIP3   OH239869   1.615   4.460   9.601 -0.0645 -0.0690  0.0391
 5225TIP3    H139870   1.678   4.514   9.649  0.0730  0.5283 -0.7761
 5225TIP3    H239871   1.665   4.425   9.528 -0.5537  0.0236 -0.3482
 5226TIP3   OH239872   0.801   6.745   1.134 -0.3559  0.2442  1.0120
 5226TIP3    H139873   0.877   6.689   1.117  0.1105  1.1661 -0.1163
 5226TIP3    H239874   0.830   6.805   1.203  0.1992  1.0259  0.1237
 5227TIP3   OH239875   0.070   6.442   7.880  0.7234 -0.1173  0.5829
 5227TIP3    H139876   0.161   6.420   7.863  1.1981  1.4242  1.0228
 5227TIP3    H239877   0.059   6.432   7.974  0.7064  0.6704  0.6641
 5228TIP3   OH239878   2.831   0.895   0.090 -0.1535  0.0991 -0.7772
 5228TIP3    H139879   2.920   0.884   0.057 -0.3175 -1.5436 -0.7292
 5228TIP3    H239880   2.839   0.890   0.185 -0.2423  0.4081 -0.7520
 5229TIP3   OH239881   4.098   6.018   7.923  0.4829 -0.4421  0.6702
 5229TIP3    H139882   4.052   6.063   7.994  3.8896  0.3946  2.5659
 5229TIP3    H239883   4.106   6.083   7.854  0.5944  0.0883  1.1736
 5230TIP3   OH239884   6.069   4.682   1.960  0.2008 -0.4320  0.6117
 5230TIP3    H139885   6.117   4.603   1.984 -0.2412 -0.7790  0.3563
 5230TIP3    H239886   6.090   4.696   1.867 -0.5646 -0.8519  0.3728
 5231TIP3   OH239887   3.875   4.996   7.453 -0.2296  0.0038 -0.0640
 5231TIP3    H139888   3.844   4.985   7.543 -2.0465 -1.4833 -0.8221
 5231TIP3    H239889   3.965   4.965   7.455 -0.5113 -0.7868  1.0711
 5232TIP3   OH239890   5.061   6.333   2.243 -0.2371  0.0916  0.4208
 5232TIP3    H139891   4.992   6.369   2.299  0.7908  1.3243  0.9508
 5232TIP3    H239892   5.080   6.247   2.281  0.2080  0.7680  1.7863
 5233TIP3   OH239893   1.160   3.261   8.670  0.0467 -0.1827  0.1127
 5233TIP3    H139894   1.166   3.179   8.620 -0.2147 -0.3389  0.3387
 5233TIP3    H239895   1.245   3.303   8.656  0.2993 -0.6380  0.2455
 5234TIP3   OH239896   5.286   1.882   7.452 -0.2708  0.8285  0.0173
 5234TIP3    H139897   5.264   1.884   7.359  2.0830 -0.8933 -0.6543
 5234TIP3    H239898   5.335   1.801   7.464  0.3837  1.5022  2.5749
 5235TIP3   OH239899   2.483   5.948   2.741 -0.0234 -0.0255  0.6573
 5235TIP3    H139900   2.409   5.898   2.707 -1.6135  1.7459  1.3316
 5235TIP3    H239901   2.512   5.899   2.818 -2.3852  0.6704  2.0859
 5236TIP3   OH239902   6.111   4.768   0.020  0.7443 -0.1033 -0.5998
 5236TIP3    H139903   6.137   4.807  -0.064  1.6493  1.6560  0.4352
 5236TIP3    H239904   6.193   4.758   0.068  0.0575  0.9518  0.8695
 5237TIP3   OH239905   5.025   7.007   0.425 -0.0923 -0.5665  0.3861
 5237TIP3    H139906   4.988   7.022   0.338  0.0164  2.3665  0.7399
 5237TIP3    H239907   5.012   6.913   0.441 -1.7818 -0.8351 -2.0167
 5238TIP3   OH239908   0.805   2.382   2.151  0.3192  1.0273 -0.6757
 5238TIP3    H139909   0.872   2.446   2.130 -2.2386  4.2828  0.3188
 5238TIP3    H239910   0.799   2.382   2.246  0.8708 -1.5181 -0.5550
 5239TIP3   OH239911   6.769   5.094   9.117  0.0731  0.4845  0.0430
 5239TIP3    H139912   6.825   5.016   9.113  0.6807  0.8936  0.3817
 5239TIP3    H239913   6.785   5.139   9.034 -0.8554 -0.1301 -0.4839
 5240TIP3   OH239914   0.754   5.036   9.507  0.4673 -0.0761  0.2611
 5240TIP3    H139915   0.770   5.048   9.413 -0.3989  1.7341  0.2967
 5240TIP3    H239916   0.798   5.110   9.549  0.8623 -0.8716  1.3057
 5241TIP3   OH239917   1.505   3.066   9.507  0.0026  0.0418  0.6439
 5241TIP3    H139918   1.434   3.072   9.444  0.6953 -0.4349 -0.2187
 5241TIP3    H239919   1.524   3.157   9.532 -0.8831  0.1693  0.8744
 5242TIP3   OH239920   3.785   5.537   0.538 -0.0700 -0.2037 -0.1461
 5242TIP3    H139921   3.734   5.570   0.612  1.1950 -0.8888  1.0907
 5242TIP3    H239922   3.858   5.599   0.530 -0.2670 -0.0542 -0.9452
 5243TIP3   OH239923   3.920   3.050   9.423  0.5960 -0.2851  0.2058
 5243TIP3    H139924   3.980   2.975   9.419  0.9463 -0.0281  0.5570
 5243TIP3    H239925   3.921   3.076   9.515  0.5923  0.2444  0.0594
 5244TIP3   OH239926   1.481   5.128   8.336 -0.0291 -0.4579 -0.7365
 5244TIP3    H139927   1.451   5.173   8.257 -1.1891 -1.4715 -0.9065
 5244TIP3    H239928   1.480   5.195   8.404 -0.6113  0.0417 -1.2291
 5245TIP3   OH239929   4.421   0.464   1.149  0.2981 -0.3790  0.2799
 5245TIP3    H139930   4.472   0.405   1.094  1.8327  0.9533  0.2259
 5245TIP3    H239931   4.481   0.535   1.171 -1.1150  0.5196  1.4039
 5246TIP3   OH239932   4.618   3.911   0.051  0.1801  0.2728  0.2280
 5246TIP3    H139933   4.700   3.876   0.083  0.4311  0.7965  0.1757
 5246TIP3    H239934   4.552   3.881   0.114  0.2411 -1.0260 -0.3017
 5247TIP3   OH239935   6.781   3.489   7.550  0.4000 -0.2592  0.0656
 5247TIP3    H139936   6.759   3.580   7.568  0.8068 -0.1481  0.0062
 5247TIP3    H239937   6.865   3.493   7.504 -0.7704 -0.5156 -2.2309
 5248TIP3   OH239938   0.415   2.101   7.807  0.0389 -0.3963 -0.6205
 5248TIP3    H139939   0.433   2.017   7.847 -0.0034 -0.3927 -0.5940
 5248TIP3    H239940   0.427   2.086   7.713  0.3725 -0.3423 -0.5848
 5249TIP3   OH239941   3.725   0.957   0.902  0.0799  0.0516  0.6711
 5249TIP3    H139942   3.735   0.881   0.845 -2.2675  0.2742 -0.1779
 5249TIP3    H239943   3.669   1.017   0.852 -0.4624  1.0965  2.4361
 5250TIP3   OH239944   7.164   4.387   8.997  0.1371  0.1561 -0.2630
 5250TIP3    H139945   7.119   4.359   9.076  1.2785 -1.1150 -0.0247
 5250TIP3    H239946   7.098   4.380   8.928  0.2610 -3.2706 -0.2258
 5251TIP3   OH239947   3.061   3.899   9.599  0.6565 -0.0167 -0.0070
 5251TIP3    H139948   3.086   3.880   9.689  0.6090  1.1819  0.2796
 5251TIP3    H239949   3.077   3.993   9.589 -0.9814  0.2321 -0.7007
 5252TIP3   OH239950   2.565   6.558   8.364  0.1034  0.1428 -0.0916
 5252TIP3    H139951   2.622   6.490   8.328 -0.4369 -0.3298 -0.0717
 5252TIP3    H239952   2.625   6.626   8.394  0.6659 -0.4056  0.0539
 5253TIP3   OH239953   6.665   6.607   9.841  0.0979 -0.2187  0.8324
 5253TIP3    H139954   6.737   6.606   9.905 -0.5294  1.9638  1.6610
 5253TIP3    H239955   6.708   6.623   9.757  1.0335 -3.9857  0.4122
 5254TIP3   OH239956   2.291   2.875   8.655 -0.8310  0.0106  0.1866
 5254TIP3    H139957   2.291   2.914   8.742 -1.9927  0.5907 -0.0558
 5254TIP3    H239958   2.331   2.941   8.599 -0.1022 -0.3547  0.2609
 5255TIP3   OH239959   5.932   3.021   8.242 -0.2055 -0.2957 -0.3915
 5255TIP3    H139960   5.919   2.958   8.171  0.2538 -1.0040  0.1382
 5255TIP3    H239961   5.999   3.081   8.210  0.2333 -0.8074 -0.4442
 5256TIP3   OH239962   1.267   3.287   9.438  0.0170  0.3742 -0.3330
 5256TIP3    H139963   1.179   3.323   9.446 -0.7624 -1.6574  1.3332
 5256TIP3    H239964   1.253   3.195   9.414  1.7257  0.1704 -0.6745
 5257TIP3   OH239965   5.885   3.442   1.512 -0.3354  0.2265  0.3601
 5257TIP3    H139966   5.891   3.382   1.438 -0.4865 -0.6184  1.0098
 5257TIP3    H239967   5.866   3.527   1.473  1.9199  0.2880 -0.7378
 5258TIP3   OH239968   3.958   0.856   7.415 -0.5051 -0.4564  0.1824
 5258TIP3    H139969   3.866   0.877   7.400 -0.5691 -0.8180  0.0646
 5258TIP3    H239970   4.000   0.941   7.428 -0.6694 -0.2048 -0.8312
 5259TIP3   OH239971   2.859   3.814   1.608 -0.0634 -0.5134 -0.1118
 5259TIP3    H139972   2.786   3.866   1.641  0.1029 -0.2419 -0.1720
 5259TIP3    H239973   2.855   3.732   1.658 -1.2109 -1.0460 -1.0158
 5260TIP3   OH239974   2.368   2.886   1.104 -0.2448  0.0974  0.1270
 5260TIP3    H139975   2.308   2.851   1.037  0.6546 -0.9356 -0.1652
 5260TIP3    H239976   2.424   2.812   1.127  0.1102  0.7135  1.3180
 5261TIP3   OH239977   5.765   3.860   6.762  0.0529  0.0486  0.2104
 5261TIP3    H139978   5.794   3.929   6.703 -0.4094  3.3264  3.4447
 5261TIP3    H239979   5.684   3.827   6.723  0.2562  1.3942 -1.4262
 5262TIP3   OH239980   3.330   6.859   2.777  0.0073  0.6861  0.1556
 5262TIP3    H139981   3.238   6.841   2.793  0.2551 -1.0782 -0.2425
 5262TIP3    H239982   3.354   6.800   2.705  1.9062 -0.2831  1.5018
 5263TIP3   OH239983   2.168   4.721   1.883 -0.3186  0.3624  0.1924
 5263TIP3    H139984   2.081   4.753   1.905  0.1601  0.6225  1.9383
 5263TIP3    H239985   2.214   4.798   1.850 -0.4441  0.4844  0.3005
 5264TIP3   OH239986   3.803   1.295   1.290 -0.2430 -0.1269  0.1459
 5264TIP3    H139987   3.866   1.278   1.360  0.2598  0.1991 -0.2286
 5264TIP3    H239988   3.786   1.209   1.251 -1.1215 -0.4448  1.1586
 5265TIP3   OH239989   0.795   1.166   7.568 -0.2714 -0.1202 -0.7565
 5265TIP3    H139990   0.773   1.092   7.510  0.2395 -0.7236 -0.1943
 5265TIP3    H239991   0.751   1.145   7.650  0.3907 -0.1182 -0.3962
 5266TIP3   OH239992   1.629   4.701   7.707  0.5644 -0.0509  0.0558
 5266TIP3    H139993   1.629   4.640   7.633  0.7323 -1.4189  1.1289
 5266TIP3    H239994   1.655   4.647   7.782 -1.7309  0.7458  1.5351
 5267TIP3   OH239995   0.388   4.457   3.310  0.3588 -0.7419 -0.1867
 5267TIP3    H139996   0.339   4.502   3.241  2.0326 -1.9556 -2.2729
 5267TIP3    H239997   0.327   4.455   3.385 -1.7286  0.1649 -1.7542
 5268TIP3   OH239998   5.953   1.241   8.935  0.8193 -0.3151  0.1683
 5268TIP3    H139999   5.895   1.243   9.011  0.1580  1.8322 -0.3027
 5268TIP3    H240000   5.923   1.167   8.883 -0.1833 -0.4629  0.9256
 5269TIP3   OH240001   2.873   2.015   6.997 -0.2355  0.8112  0.0301
 5269TIP3    H140002   2.907   2.033   6.909  0.3681  0.3402  0.1584
 5269TIP3    H240003   2.951   2.016   7.053 -0.1575 -1.7892  0.1033
 5270TIP3   OH240004   4.030   2.708   1.172 -0.4033 -0.5735  0.1102
 5270TIP3    H140005   3.979   2.760   1.235  0.1505 -2.3203  2.1322
 5270TIP3    H240006   3.965   2.677   1.109 -1.0874  0.7551  0.1246
 5271TIP3   OH240007   0.115   1.999   8.061 -0.4470  0.0923  0.0760
 5271TIP3    H140008   0.202   2.018   8.095  0.6591 -0.8040 -2.0275
 5271TIP3    H240009   0.117   1.905   8.042 -1.9351  0.0304  0.1226
 5272TIP3   OH240010   0.251   5.290   7.813 -0.6710 -0.0171  0.5744
 5272TIP3    H140011   0.327   5.235   7.831 -1.4250 -1.1859  0.2750
 5272TIP3    H240012   0.230   5.331   7.897  1.3062  1.7071  0.3181
 5273TIP3   OH240013   5.963   3.630   0.057  0.7168  0.0279  0.1866
 5273TIP3    H140014   6.016   3.699   0.098 -0.0959  1.6591 -1.3930
 5273TIP3    H240015   5.939   3.572   0.130  1.9592  1.0377  1.4510
 5274TIP3   OH240016   4.442   1.702   7.671  0.2091 -0.5103 -0.1291
 5274TIP3    H140017   4.450   1.702   7.575 -0.5371 -2.2583 -0.2231
 5274TIP3    H240018   4.348   1.701   7.687  0.3327 -1.1035  0.6051
 5275TIP3   OH240019   0.386   7.149   8.079 -0.3036  0.5071 -0.3980
 5275TIP3    H140020   0.431   7.096   8.145  0.5285  0.6505 -0.8499
 5275TIP3    H240021   0.333   7.210   8.131  0.9588  1.1606  0.1711
 5276TIP3   OH240022   3.208   0.299   0.445 -0.3486  0.5998 -0.0460
 5276TIP3    H140023   3.264   0.245   0.388 -1.4892 -0.0905 -0.5505
 5276TIP3    H240024   3.134   0.323   0.389 -0.9966  0.7370  0.8625
 5277TIP3   OH240025   6.471   0.453   8.865 -0.3831  0.3267 -0.1370
 5277TIP3    H140026   6.478   0.508   8.787 -0.0172  2.0544  1.0582
 5277TIP3    H240027   6.521   0.500   8.933 -0.2806 -1.3524  1.0304
 5278TIP3   OH240028   3.197   6.250   2.852  0.5960 -0.2287  0.5003
 5278TIP3    H140029   3.238   6.177   2.899 -1.4337 -2.0338 -0.3256
 5278TIP3    H240030   3.248   6.259   2.772  1.2705 -0.2764  0.9171
 5279TIP3   OH240031   3.083   4.072   9.851 -0.5249  0.7656  0.9845
 5279TIP3    H140032   3.094   4.147   9.792 -2.4397  0.9638  0.8198
 5279TIP3    H240033   3.086   4.110   9.939  1.0781  0.6407  1.0150
 5280TIP3   OH240034   6.546   6.353   0.771 -0.5808 -0.3081 -0.2202
 5280TIP3    H140035   6.544   6.378   0.864 -2.6529  0.6251 -0.4604
 5280TIP3    H240036   6.637   6.368   0.745  0.2765 -1.4244  1.8329
 5281TIP3   OH240037   5.719   5.929   8.433 -0.0827 -0.1347 -0.1379
 5281TIP3    H140038   5.707   6.017   8.398 -3.3731 -0.4324 -0.1322
 5281TIP3    H240039   5.687   5.935   8.523  0.5218 -1.1488  0.1590
 5282TIP3   OH240040   3.680   4.749   9.812 -0.0222  0.5918 -0.3773
 5282TIP3    H140041   3.603   4.734   9.758 -1.3772  0.3819  1.5024
 5282TIP3    H240042   3.647   4.798   9.887  1.5590 -0.0370  0.7865
 5283TIP3   OH240043   2.000   3.521   1.328 -0.0147  0.0606 -0.3756
 5283TIP3    H140044   2.085   3.563   1.313 -1.2491  2.4393 -1.1187
 5283TIP3    H240045   1.987   3.464   1.252  0.8495 -0.2618 -0.2920
 5284TIP3   OH240046   2.678   3.252   0.138  0.5299  0.3851 -0.6434
 5284TIP3    H140047   2.649   3.322   0.080 -3.1239  0.2291  0.7193
 5284TIP3    H240048   2.709   3.297   0.217  1.5138  0.4825 -1.0664
 5285TIP3   OH240049   0.751   4.712   0.016  0.1697 -0.3225 -0.0305
 5285TIP3    H140050   0.734   4.631   0.063 -0.4987 -0.0564  0.1959
 5285TIP3    H240051   0.750   4.780   0.084 -1.9026  0.2149 -0.5321
 5286TIP3   OH240052   1.361   6.339   6.816 -0.4643 -0.2484 -0.6069
 5286TIP3    H140053   1.450   6.309   6.794  0.1357 -0.0414  1.3098
 5286TIP3    H240054   1.373   6.430   6.842 -1.0830 -0.4628  0.4887
 5287TIP3   OH240055   5.709   5.333   1.610  0.3786  0.0600 -0.2600
 5287TIP3    H140056   5.716   5.428   1.625  2.3863  0.1446 -1.4151
 5287TIP3    H240057   5.740   5.321   1.520 -0.4381 -1.6531 -0.3470
 5288TIP3   OH240058   7.194   4.402   8.607  0.0902  0.2059 -0.1894
 5288TIP3    H140059   7.167   4.355   8.686  0.7902 -0.4191 -0.3081
 5288TIP3    H240060   7.245   4.338   8.558 -0.7262  0.4346 -1.3783
 5289TIP3   OH240061   3.477   1.804   7.687 -0.1576 -0.0552  0.3416
 5289TIP3    H140062   3.451   1.819   7.596 -1.1859  0.3964  0.6989
 5289TIP3    H240063   3.472   1.709   7.697 -1.6363 -0.0085  0.3600
 5290TIP3   OH240064   6.175   5.525   9.017  0.5195 -0.6328  0.8748
 5290TIP3    H140065   6.083   5.504   8.998  0.9526 -0.6009 -1.5998
 5290TIP3    H240066   6.224   5.452   8.980  1.5305 -0.2141  1.3737
 5291TIP3   OH240067   4.973   3.959   1.077  0.4335 -0.0362  0.1730
 5291TIP3    H140068   5.004   4.021   1.144 -1.0106  0.3797  0.4873
 5291TIP3    H240069   5.010   3.875   1.103 -0.6272 -0.0052  1.8869
 5292TIP3   OH240070   6.089   5.341   1.975  1.0473  0.7135  0.3630
 5292TIP3    H140071   6.063   5.250   1.957  0.7404  0.7549  0.5951
 5292TIP3    H240072   6.165   5.355   1.919  0.7352  0.5029 -0.1195
 5293TIP3   OH240073   5.580   3.905   9.096  0.0900 -0.4010  0.1832
 5293TIP3    H140074   5.656   3.875   9.144  0.0086 -0.4410  0.2864
 5293TIP3    H240075   5.547   3.827   9.052  0.7384 -0.1783 -0.7317
 5294TIP3   OH240076   4.308   4.542   6.938  0.2083  0.0980  0.1635
 5294TIP3    H140077   4.355   4.572   6.861 -0.4611 -0.8722 -0.6402
 5294TIP3    H240078   4.223   4.586   6.934 -0.5043 -1.2763 -0.6385
 5295TIP3   OH240079   3.105   1.677   7.080 -0.0082 -0.8280  0.3885
 5295TIP3    H140080   3.155   1.605   7.119 -0.7169 -1.6536 -0.2017
 5295TIP3    H240081   3.078   1.644   6.994 -0.4262  0.1094  0.1498
 5296TIP3   OH240082   1.697   2.231   9.678  0.1204  0.2122  0.1971
 5296TIP3    H140083   1.791   2.222   9.669  0.1177 -0.0680  0.4348
 5296TIP3    H240084   1.670   2.157   9.732 -0.0494  1.0761  1.3392
 5297TIP3   OH240085   2.655   0.343   6.894  0.4177  0.0390  0.0016
 5297TIP3    H140086   2.571   0.338   6.939  0.7230 -0.6217  0.5046
 5297TIP3    H240087   2.640   0.302   6.809  0.1636  0.1761 -0.0201
 5298TIP3   OH240088   3.913   3.797   1.307  0.4525  0.3128 -0.4352
 5298TIP3    H140089   3.834   3.833   1.346  1.0154  0.9584  0.1477
 5298TIP3    H240090   3.973   3.871   1.301  1.2862 -0.3105 -0.1240
 5299TIP3   OH240091   6.731   6.577   1.014  0.3676  0.2587  0.1593
 5299TIP3    H140092   6.707   6.631   0.939  0.1770 -0.1403 -0.0735
 5299TIP3    H240093   6.735   6.637   1.087  0.7968  0.6995 -0.2189
 5300TIP3   OH240094   5.505   7.074   2.057  0.2973  0.1578 -0.4299
 5300TIP3    H140095   5.415   7.062   2.087 -0.7871  1.4838 -2.8201
 5300TIP3    H240096   5.552   6.997   2.089 -1.6315 -0.4890  1.0254
 5301TIP3   OH240097   0.839   5.962   2.492 -0.1672  0.1280  0.1352
 5301TIP3    H140098   0.896   5.916   2.431 -0.2655  1.0703 -0.6944
 5301TIP3    H240099   0.898   6.007   2.552 -0.0708 -0.9705  0.8932
 5302TIP3   OH240100   3.195   2.273   8.840 -0.2841 -0.0000 -0.0163
 5302TIP3    H140101   3.221   2.211   8.772  2.0519  0.0643  0.7583
 5302TIP3    H240102   3.104   2.296   8.818 -0.3655 -1.7632 -1.7333
 5303TIP3   OH240103   5.709   2.833   0.246  0.2040  0.3384  1.0086
 5303TIP3    H140104   5.664   2.882   0.178  0.2269 -0.7505  0.1744
 5303TIP3    H240105   5.761   2.898   0.293  0.3389  1.0782 -0.1422
 5304TIP3   OH240106   6.708   6.345   1.429 -0.4036 -0.4202 -0.3038
 5304TIP3    H140107   6.721   6.388   1.513 -1.0800  0.6462 -0.7297
 5304TIP3    H240108   6.777   6.379   1.372 -0.2553 -0.7604 -0.3347
 5305TIP3   OH240109   2.293   7.070   7.360  0.7733  0.1157 -0.0786
 5305TIP3    H140110   2.311   7.155   7.320  1.4324 -0.5682 -1.2667
 5305TIP3    H240111   2.356   7.064   7.432 -0.8455  1.6304  1.5925
 5306TIP3   OH240112   3.898   4.841   9.437 -0.0341 -0.4153  0.2894
 5306TIP3    H140113   3.883   4.920   9.488  0.5723  1.1528 -1.7929
 5306TIP3    H240114   3.810   4.808   9.418 -0.2980 -0.2447  1.1667
 5307TIP3   OH240115   6.705   2.721   0.000  0.1494  0.7639 -0.6229
 5307TIP3    H140116   6.644   2.697   0.070 -1.0410 -0.5702 -2.0336
 5307TIP3    H240117   6.728   2.812   0.018 -0.9894  0.7999  0.8651
 5308TIP3   OH240118   3.069   3.351   8.326 -0.0761  0.4695 -0.1153
 5308TIP3    H140119   3.024   3.422   8.372  1.1545  1.0317  0.2746
 5308TIP3    H240120   2.999   3.303   8.282 -1.4521 -0.4898  2.8488
 5309TIP3   OH240121   1.776   3.687   0.719  0.4207 -0.1917 -0.0353
 5309TIP3    H140122   1.800   3.739   0.796  1.0024 -0.3429 -0.1095
 5309TIP3    H240123   1.681   3.682   0.722  0.2651  1.7404 -0.5769
 5310TIP3   OH240124   5.867   0.329   8.062 -0.7506 -0.4383 -0.2290
 5310TIP3    H140125   5.830   0.250   8.100  0.8799 -1.3443 -0.4686
 5310TIP3    H240126   5.888   0.385   8.137 -1.4206 -0.4294 -0.0398
 5311TIP3   OH240127   7.274   4.834   9.084  0.0816 -0.0453  0.1236
 5311TIP3    H140128   7.343   4.857   9.145 -0.0636 -0.8424  0.6008
 5311TIP3    H240129   7.283   4.897   9.012  0.0231  1.1308  1.1196
 5312TIP3   OH240130   7.018   4.182   3.296  0.0402 -0.1619  0.2297
 5312TIP3    H140131   7.076   4.160   3.222 -0.2948 -2.8206  0.6854
 5312TIP3    H240132   7.078   4.200   3.368  0.4386 -3.3685  0.8312
 5313TIP3   OH240133   2.773   0.768   7.546  0.4701  0.0377 -0.2708
 5313TIP3    H140134   2.783   0.743   7.454  2.9492 -0.4059  0.0321
 5313TIP3    H240135   2.764   0.863   7.545  2.9168  0.3228 -0.9261
 5314TIP3   OH240136   0.084   6.830   1.249 -0.1648  0.5359 -0.5662
 5314TIP3    H140137   0.041   6.913   1.232 -1.5357 -0.1179 -0.4962
 5314TIP3    H240138   0.012   6.771   1.273  0.8688 -0.4402  0.2287
 5315TIP3   OH240139   1.386   0.849   1.138 -0.6048  0.0977  0.1457
 5315TIP3    H140140   1.406   0.915   1.072 -0.8089 -1.3577 -1.4237
 5315TIP3    H240141   1.327   0.893   1.199  0.6423  1.8764  0.1566
 5316TIP3   OH240142   0.488   1.182   2.257 -0.4569 -0.1228  0.1391
 5316TIP3    H140143   0.551   1.116   2.228 -0.7937 -1.7091  2.7319
 5316TIP3    H240144   0.428   1.135   2.314 -1.9298  2.0582  0.5136
 5317TIP3   OH240145   6.561   2.979   7.443  0.2733  0.4313  0.1886
 5317TIP3    H140146   6.589   2.948   7.356  4.3187 -0.6837  1.6407
 5317TIP3    H240147   6.627   3.045   7.466 -0.2409  0.1627  2.6764
 5318TIP3   OH240148   0.404   0.951   2.405  0.4230 -0.4627  0.8967
 5318TIP3    H140149   0.460   0.889   2.358  0.1506  0.2335 -0.3986
 5318TIP3    H240150   0.320   0.906   2.413  0.0827 -0.1302 -0.4598
 5319TIP3   OH240151   1.449   6.537   0.290 -0.0892 -0.7500 -0.6215
 5319TIP3    H140152   1.481   6.544   0.200 -0.0215  1.1309 -0.4758
 5319TIP3    H240153   1.366   6.583   0.291  0.5646  0.4812  0.5659
 5320TIP3   OH240154   3.919   5.825   0.804 -0.4176 -0.1135 -0.0736
 5320TIP3    H140155   3.982   5.884   0.762  0.1888 -0.9114 -0.3106
 5320TIP3    H240156   3.931   5.841   0.898  0.3092 -0.4146 -0.1079
 5321TIP3   OH240157   1.642   4.189   8.526 -0.1499  0.2399 -0.1282
 5321TIP3    H140158   1.704   4.240   8.474  0.0708  0.1625  0.0544
 5321TIP3    H240159   1.607   4.251   8.590 -1.7004  0.7795 -1.4177
 5322TIP3   OH240160   1.194   4.228   8.426 -0.0435  0.1004  0.1257
 5322TIP3    H140161   1.194   4.318   8.394  0.0006  0.1404  0.2381
 5322TIP3    H240162   1.103   4.199   8.418 -0.2670  0.5059  1.0796
 5323TIP3   OH240163   5.830   4.608   8.165 -0.4307 -0.5262  0.2749
 5323TIP3    H140164   5.847   4.563   8.082 -0.7699 -0.8506  0.3808
 5323TIP3    H240165   5.825   4.538   8.230  0.8669 -0.2054  0.7496
 5324TIP3   OH240166   7.215   4.796   7.981  0.3179  0.0160  0.3231
 5324TIP3    H140167   7.158   4.840   7.919 -1.1161  0.6548  1.9999
 5324TIP3    H240168   7.158   4.733   8.025  0.7351  0.9499  2.3271
 5325TIP3   OH240169   1.815   2.934   0.102 -0.1732 -0.3623 -0.3567
 5325TIP3    H140170   1.870   2.910   0.027 -1.4237  0.0581 -1.4573
 5325TIP3    H240171   1.728   2.951   0.063 -0.7215  0.3814  1.1204
 5326TIP3   OH240172   0.041   1.027   7.970 -0.1192 -0.2803 -0.4805
 5326TIP3    H140173   0.084   0.947   7.941  1.5799  0.8616 -1.3024
 5326TIP3    H240174   0.029   1.078   7.890  1.8447  1.6308  0.3137
 5327TIP3   OH240175   5.701   2.428   6.828  0.2146 -0.0902  0.0459
 5327TIP3    H140176   5.702   2.375   6.907  1.2808  1.3202  1.0178
 5327TIP3    H240177   5.786   2.472   6.827 -0.2442  0.8382 -1.2485
 5328TIP3   OH240178   2.028   5.961   0.037  0.2521  0.5111 -0.5241
 5328TIP3    H140179   2.115   5.985   0.002  0.6916 -0.8390 -0.4078
 5328TIP3    H240180   1.968   5.981  -0.035  0.7750  0.5511 -0.9611
 5329TIP3   OH240181   0.869   2.171   9.649  0.4273  0.4900  0.8378
 5329TIP3    H140182   0.909   2.243   9.602 -1.0248  1.0848  0.4587
 5329TIP3    H240183   0.892   2.093   9.599 -0.6704  1.0601 -0.6305
 5330TIP3   OH240184   2.236   0.154   7.890 -0.8903  0.3815 -0.1467
 5330TIP3    H140185   2.272   0.242   7.904 -0.7526  0.3748 -0.4443
 5330TIP3    H240186   2.262   0.132   7.800  2.5957 -1.6166  1.1518
 5331TIP3   OH240187   3.559   0.344   2.402  0.3967 -1.1874 -0.1546
 5331TIP3    H140188   3.654   0.347   2.395  0.4798 -0.7781  0.9436
 5331TIP3    H240189   3.542   0.308   2.489 -0.3793  2.3122  1.3414
 5332TIP3   OH240190   0.410   2.694   9.723  0.2923 -0.1149 -0.2031
 5332TIP3    H140191   0.440   2.612   9.762 -2.5054 -1.4285 -0.5375
 5332TIP3    H240192   0.411   2.756   9.795  1.0681 -0.8449  0.4336
 5333TIP3   OH240193   2.361   1.909   7.136  0.5969  0.2706  0.2095
 5333TIP3    H140194   2.298   1.974   7.106  0.6966 -0.0251 -0.6815
 5333TIP3    H240195   2.446   1.949   7.119  0.6548  0.4066  0.8080
 5334TIP3   OH240196   1.417   0.207   8.437 -0.0895 -0.4790  0.1752
 5334TIP3    H140197   1.487   0.151   8.403 -0.1129  0.7346 -2.0555
 5334TIP3    H240198   1.359   0.147   8.484  0.6710 -2.0766 -0.8425
 5335TIP3   OH240199   2.095   5.413   7.066 -0.0265 -0.0299 -0.4125
 5335TIP3    H140200   2.055   5.356   7.001 -1.2486  0.7844 -0.4143
 5335TIP3    H240201   2.169   5.452   7.021  0.4071 -1.0636 -0.6311
 5336TIP3   OH240202   6.009   2.470   1.164  0.3057  0.4415  0.4525
 5336TIP3    H140203   5.999   2.421   1.083 -0.8490 -0.7407  1.2723
 5336TIP3    H240204   6.101   2.459   1.188  0.4768  0.1767 -0.2854
 5337TIP3   OH240205   4.795   0.512   9.425  0.5078 -0.0969  0.5108
 5337TIP3    H140206   4.889   0.510   9.442  0.8890 -0.7787 -1.4050
 5337TIP3    H240207   4.774   0.424   9.396 -0.1612  0.7021 -1.6299
 5338TIP3   OH240208   4.288   0.433   1.408 -0.0693 -0.4977 -0.0384
 5338TIP3    H140209   4.338   0.435   1.326  1.3601 -1.3438  0.7641
 5338TIP3    H240210   4.318   0.510   1.456 -0.8065 -0.0769 -0.2327
 5339TIP3   OH240211   3.147   2.565   9.560  0.6891 -0.1309  0.5946
 5339TIP3    H140212   3.230   2.559   9.512  0.3943  0.1257  0.0534
 5339TIP3    H240213   3.112   2.651   9.537  0.1616 -0.3315  0.6452
 5340TIP3   OH240214   2.239   2.783   0.886 -0.0554 -0.7185 -0.2187
 5340TIP3    H140215   2.272   2.752   0.801  0.2665  0.6048 -0.5998
 5340TIP3    H240216   2.170   2.720   0.909  0.1566 -1.3542 -1.2462
 5341TIP3   OH240217   5.743   5.998   8.122  0.3009 -0.0128 -0.1144
 5341TIP3    H140218   5.652   5.969   8.128 -0.6158  2.5149 -0.5733
 5341TIP3    H240219   5.746   6.078   8.175  2.2666 -0.0099 -0.1522
 5342TIP3   OH240220   1.500   1.258   1.900 -0.0952 -0.4219 -0.1054
 5342TIP3    H140221   1.507   1.251   1.804 -1.3558  0.6633 -0.3125
 5342TIP3    H240222   1.567   1.199   1.933  0.0551 -1.1898 -1.6599
 5343TIP3   OH240223   2.658   0.459   8.266  0.3740 -0.5037 -0.2841
 5343TIP3    H140224   2.571   0.419   8.272  0.2733 -0.3233 -0.5151
 5343TIP3    H240225   2.718   0.384   8.264  0.1655 -0.6625 -1.0791
 5344TIP3   OH240226   6.395   0.745   3.003 -0.5262  0.4139 -0.1056
 5344TIP3    H140227   6.361   0.758   3.092  0.2429 -1.0490  0.4433
 5344TIP3    H240228   6.484   0.779   3.006 -0.0090 -0.8882  0.1183
 5345TIP3   OH240229   6.730   2.439   9.465 -0.3128 -0.3321 -0.5432
 5345TIP3    H140230   6.669   2.472   9.399 -3.2193  1.2634  2.6295
 5345TIP3    H240231   6.767   2.518   9.505  0.8671 -1.2188  0.1677
 5346TIP3   OH240232   3.486   1.813   8.874 -0.1477 -0.7516 -0.4711
 5346TIP3    H140233   3.496   1.898   8.831 -0.7126  0.0077  0.8161
 5346TIP3    H240234   3.526   1.825   8.960  1.1860 -2.3042 -0.8254
 5347TIP3   OH240235   1.495   0.193   7.147  0.6581  0.4204  0.2746
 5347TIP3    H140236   1.537   0.116   7.185 -1.1447  0.6901  3.0925
 5347TIP3    H240237   1.406   0.164   7.126  1.3144  0.5318 -3.1990
 5348TIP3   OH240238   2.809   2.000   8.561 -0.4725  0.6646  0.6537
 5348TIP3    H140239   2.722   2.005   8.599 -1.0073  2.2652 -0.6597
 5348TIP3    H240240   2.829   2.090   8.534  0.5028 -0.0925 -1.3761
 5349TIP3   OH240241   7.038   4.703   8.911 -0.2434 -0.1041 -0.1590
 5349TIP3    H140242   7.035   4.610   8.889  1.1452 -0.0818 -0.5238
 5349TIP3    H240243   7.019   4.747   8.828  1.3991 -0.0635 -0.5515
 5350TIP3   OH240244   3.820   1.804   8.199 -0.2076 -0.3761 -0.4848
 5350TIP3    H140245   3.856   1.790   8.287 -1.1294 -2.5427 -0.4087
 5350TIP3    H240246   3.897   1.809   8.142  0.5275  3.1316  0.6045
 5351TIP3   OH240247   6.947   6.460   8.292  0.0084  0.3911 -0.2481
 5351TIP3    H140248   7.002   6.473   8.215  0.6788 -1.5100 -0.1493
 5351TIP3    H240249   6.860   6.445   8.257  0.1136  0.5444 -0.5826
 5352TIP3   OH240250   6.859   7.066   1.232 -0.5269  0.4835  0.2865
 5352TIP3    H140251   6.951   7.065   1.207 -0.9203  1.6155 -1.3215
 5352TIP3    H240252   6.861   7.069   1.328  1.1978  3.7802  0.2839
 5353TIP3   OH240253   3.329   6.547   9.521  0.2812  0.3010 -0.7667
 5353TIP3    H140254   3.314   6.537   9.615 -2.1876 -0.0206 -1.1146
 5353TIP3    H240255   3.396   6.482   9.500 -0.4907 -0.9546  0.4603
 5354TIP3   OH240256   1.417   0.051   7.408 -0.2216 -0.1602 -0.1046
 5354TIP3    H140257   1.491   0.102   7.440  0.5783 -1.9171  0.9899
 5354TIP3    H240258   1.386   0.099   7.331  2.3311  0.3918 -0.8613
 5355TIP3   OH240259   3.554   2.913   8.376 -0.0108 -0.2069  0.8367
 5355TIP3    H140260   3.566   2.929   8.470 -1.9942  0.0154  1.0898
 5355TIP3    H240261   3.468   2.874   8.369 -0.6624  1.3755 -1.0567
 5356TIP3   OH240262   1.010   0.611   8.541  0.0966 -0.0596  0.3771
 5356TIP3    H140263   1.081   0.590   8.481 -0.4321  2.9063 -1.5108
 5356TIP3    H240264   0.941   0.547   8.521  0.0745  0.6404 -2.0069
 5357TIP3   OH240265   2.453   3.211   0.780  0.1057 -0.3265 -0.6873
 5357TIP3    H140266   2.412   3.177   0.860  1.5615  0.0583  0.2576
 5357TIP3    H240267   2.517   3.144   0.756  0.1945 -0.0874 -1.1227
 5358TIP3   OH240268   7.063   3.276   1.222  0.0562 -0.2332  0.1306
 5358TIP3    H140269   7.144   3.232   1.247 -0.8023 -2.2746 -0.4339
 5358TIP3    H240270   7.091   3.361   1.188  1.7714 -0.1145  1.6820
 5359TIP3   OH240271   5.072   0.230   8.512  0.2919 -0.5238  0.0938
 5359TIP3    H140272   5.012   0.256   8.581 -0.1376  0.5630 -0.6716
 5359TIP3    H240273   5.021   0.170   8.457  0.4156 -0.8351  0.3116
 5360TIP3   OH240274   2.099   3.564   0.362 -0.5668 -0.3722  0.1760
 5360TIP3    H140275   2.107   3.641   0.306  2.8011 -0.4414  0.3480
 5360TIP3    H240276   2.125   3.491   0.305 -0.2166 -0.8663  0.9521
 5361TIP3   OH240277   3.626   4.544   1.731  0.1137  0.7095  0.1223
 5361TIP3    H140278   3.662   4.603   1.796  0.1404  0.2507  0.5275
 5361TIP3    H240279   3.700   4.493   1.700  0.0470  0.7097 -0.0422
 5362TIP3   OH240280   4.080   6.696   9.575 -0.1217  0.1384 -0.0888
 5362TIP3    H140281   4.086   6.614   9.526  0.3356  0.1716 -0.0850
 5362TIP3    H240282   4.165   6.706   9.617 -0.3911  0.2849  0.4421
 5363TIP3   OH240283   0.708   0.469   9.776  0.2921 -0.1042 -0.2826
 5363TIP3    H140284   0.774   0.474   9.707  0.6393 -0.3420  0.0324
 5363TIP3    H240285   0.692   0.375   9.787 -0.6859 -0.0332 -0.9136
 5364TIP3   OH240286   1.068   4.620   1.156  0.0451 -0.5034  0.0350
 5364TIP3    H140287   0.993   4.574   1.193  0.5195 -1.3143  0.0137
 5364TIP3    H240288   1.143   4.562   1.173  0.8971  0.8963  1.2405
 5365TIP3   OH240289   2.173   1.357   0.751 -0.3664 -0.1267 -0.5841
 5365TIP3    H140290   2.212   1.429   0.799  0.0473 -0.9158  0.2900
 5365TIP3    H240291   2.092   1.392   0.715 -0.1410  0.7761 -0.2143
 5366TIP3   OH240292   3.473   2.451   9.781 -0.0427  0.0274 -0.3012
 5366TIP3    H140293   3.390   2.444   9.828 -0.9149  1.5206 -1.4996
 5366TIP3    H240294   3.462   2.529   9.726  1.1418 -1.2608 -2.4849
 5367TIP3   OH240295   1.842   2.959   1.680 -0.0622  0.0998 -0.8583
 5367TIP3    H140296   1.911   3.010   1.638 -2.1628  1.0864 -3.4297
 5367TIP3    H240297   1.828   2.885   1.622 -0.5601 -0.5728  0.1022
 5368TIP3   OH240298   5.298   1.086   0.820 -0.3228 -0.3746  0.0807
 5368TIP3    H140299   5.206   1.070   0.842 -0.4742 -1.0596 -0.9726
 5368TIP3    H240300   5.332   1.001   0.792  0.4470  0.0031 -0.1683
 5369TIP3   OH240301   3.263   1.313   1.969  0.0358 -0.5995 -0.1867
 5369TIP3    H140302   3.347   1.295   1.928  0.2263 -1.1257  0.4140
 5369TIP3    H240303   3.285   1.365   2.047 -0.2788  0.0068 -0.4927
 5370TIP3   OH240304   3.648   3.313   1.965 -0.5276 -0.0912  0.2033
 5370TIP3    H140305   3.648   3.258   2.043 -0.8237 -0.6120 -0.1557
 5370TIP3    H240306   3.693   3.393   1.991  1.8373 -1.3220  0.1376
 5371TIP3   OH240307   0.488   0.728   0.060  0.3858 -0.1608  0.2911
 5371TIP3    H140308   0.485   0.822   0.076  0.1997  0.1451 -1.4072
 5371TIP3    H240309   0.402   0.706   0.024  0.8418 -0.7344 -0.4963
 5372TIP3   OH240310   3.807   3.735   8.778  0.3712  0.1429 -0.3747
 5372TIP3    H140311   3.782   3.814   8.730 -1.6040  0.6676  1.3791
 5372TIP3    H240312   3.727   3.708   8.823  1.0191 -2.7802 -0.7441
 5373TIP3   OH240313   4.684   1.372   9.003  0.1590  0.0748 -0.2137
 5373TIP3    H140314   4.647   1.357   9.089 -0.5713 -0.9023 -0.6872
 5373TIP3    H240315   4.628   1.438   8.963  0.6478  0.7183  0.1357
 5374TIP3   OH240316   1.384   2.878   9.689  0.3721  0.1683 -0.8434
 5374TIP3    H140317   1.437   2.907   9.615  1.6442  0.2610  0.0896
 5374TIP3    H240318   1.399   2.943   9.757  0.8504 -1.0054  0.2055
 5375TIP3   OH240319   6.531   0.385   2.321  0.8683  0.1877 -0.3614
 5375TIP3    H140320   6.503   0.294   2.309 -0.0451  0.3849  0.2474
 5375TIP3    H240321   6.486   0.433   2.251  1.6350  0.1301 -0.9109
 5376TIP3   OH240322   5.892   3.228   9.938  0.4653  0.2183  1.0038
 5376TIP3    H140323   5.896   3.205  10.031 -0.2931  1.9730  1.5069
 5376TIP3    H240324   5.963   3.290   9.925  3.3979 -3.1471 -0.6703
 5377TIP3   OH240325   7.205   2.821   9.001 -1.1080 -0.3174 -0.6515
 5377TIP3    H140326   7.192   2.915   9.014  0.4547 -0.1695  0.1239
 5377TIP3    H240327   7.141   2.779   9.058 -0.6271  0.3016  0.3686
 5378TIP3   OH240328   3.681   3.816   9.278  0.4987 -0.1421  0.0328
 5378TIP3    H140329   3.717   3.730   9.253 -0.4555 -0.3939 -0.5652
 5378TIP3    H240330   3.636   3.846   9.199  1.5398  1.3164 -0.0382
 5379TIP3   OH240331   2.072   0.089   8.091  0.1872  0.1866  0.1763
 5379TIP3    H140332   2.104   0.137   8.167  0.9001  0.4620 -0.2842
 5379TIP3    H240333   2.144   0.094   8.028  0.0885 -1.0498 -0.0744
 5380TIP3   OH240334   1.525   1.223   1.308 -0.2523  0.5641 -0.7165
 5380TIP3    H140335   1.521   1.289   1.238 -1.2764  1.1465 -0.1185
 5380TIP3    H240336   1.613   1.233   1.344  1.3630 -1.5477 -3.6102
 5381TIP3   OH240337   0.148   3.329   2.152 -0.1495  0.3273 -0.0260
 5381TIP3    H140338   0.066   3.378   2.150 -0.3087  0.0620 -0.0730
 5381TIP3    H240339   0.122   3.240   2.177  0.0739  0.1435 -0.4487
 5382TIP3   OH240340   1.553   5.305   2.231 -0.3907  0.5245 -0.2522
 5382TIP3    H140341   1.461   5.283   2.214 -0.9185  1.6145  1.0148
 5382TIP3    H240342   1.549   5.390   2.274  1.0382 -0.5091  2.1216
 5383TIP3   OH240343   2.483   6.058   7.647 -0.0972 -0.0196 -0.1310
 5383TIP3    H140344   2.572   6.079   7.620  0.3151 -0.4383  0.8615
 5383TIP3    H240345   2.437   6.042   7.564  0.1476  2.3248 -0.7982
 5384TIP3   OH240346   6.241   3.955   9.599 -0.6083 -0.4603  0.0428
 5384TIP3    H140347   6.331   3.931   9.620 -1.0642 -0.6125  2.0044
 5384TIP3    H240348   6.249   4.012   9.522  1.3369  1.0453  1.2536
 5385TIP3   OH240349   2.981   5.499   1.026  0.3222 -0.8845  0.1083
 5385TIP3    H140350   2.934   5.575   0.990  2.0091  0.1890  0.0471
 5385TIP3    H240351   3.008   5.450   0.949  1.0066 -0.4153  0.0403
 5386TIP3   OH240352   4.914   1.832   6.762 -0.0018 -0.5790  0.4260
 5386TIP3    H140353   4.876   1.876   6.838  0.0587 -1.6091  1.0850
 5386TIP3    H240354   5.008   1.829   6.781 -0.1880 -2.6994  1.3865
 5387TIP3   OH240355   5.579   3.142   0.404  0.2957  0.5907 -0.0579
 5387TIP3    H140356   5.532   3.221   0.430  0.1054 -0.1243  2.0025
 5387TIP3    H240357   5.602   3.156   0.313 -0.1851  2.7940  0.1053
 5388TIP3   OH240358   0.780   3.099   2.502  0.0269 -0.1320 -0.3236
 5388TIP3    H140359   0.813   3.047   2.575 -1.8952  1.1287  1.5311
 5388TIP3    H240360   0.830   3.181   2.507  0.5445 -0.3990 -1.0206
 5389TIP3   OH240361   5.106   5.686   7.265  0.1018  0.3250 -0.1082
 5389TIP3    H140362   5.042   5.657   7.199 -0.1842  0.8206 -0.0581
 5389TIP3    H240363   5.185   5.704   7.215  0.1890 -0.2460 -0.1794
 5390TIP3   OH240364   1.091   3.877   9.927 -0.4439 -0.1648 -0.5228
 5390TIP3    H140365   1.175   3.923   9.930  0.0851 -1.0573 -1.0098
 5390TIP3    H240366   1.104   3.801   9.983 -1.6467  0.7673  1.0951
 5391TIP3   OH240367   6.309   6.770   9.099 -0.2423 -0.3916 -0.4465
 5391TIP3    H140368   6.371   6.769   9.026 -0.8289  0.6822 -0.9749
 5391TIP3    H240369   6.223   6.764   9.058 -0.6236  1.1140  0.0772
 5392TIP3   OH240370   2.589   1.829   0.662  0.1492 -0.4140  0.0886
 5392TIP3    H140371   2.679   1.798   0.669 -0.3427 -1.8138  0.7387
 5392TIP3    H240372   2.576   1.843   0.568  1.0424 -0.1780 -0.0081
 5393TIP3   OH240373   4.110   3.141   2.346  0.3051 -0.2714  0.0034
 5393TIP3    H140374   4.103   3.046   2.362 -0.8099 -0.4127 -1.1657
 5393TIP3    H240375   4.202   3.154   2.324  0.3483 -1.1853 -0.4225
 5394TIP3   OH240376   2.341   3.347   0.549 -0.0093 -0.5028 -0.2013
 5394TIP3    H140377   2.398   3.315   0.619 -0.6498  0.5030  0.8404
 5394TIP3    H240378   2.396   3.405   0.497 -0.2301  1.2741  1.3943
 5395TIP3   OH240379   6.491   1.476   1.141 -0.4961 -0.4248 -0.1088
 5395TIP3    H140380   6.563   1.533   1.115  0.9294 -1.5073  1.2778
 5395TIP3    H240381   6.436   1.470   1.063 -0.6058  2.5975 -0.3804
 5396TIP3   OH240382   0.569   0.053   0.660  0.1259  0.0136 -0.1370
 5396TIP3    H140383   0.478   0.048   0.629 -0.0191 -0.2353  0.3255
 5396TIP3    H240384   0.620   0.070   0.581 -0.2805 -0.2616 -0.4618
 5397TIP3   OH240385   1.099   0.511   1.463  0.1311 -0.0942  0.2774
 5397TIP3    H140386   1.041   0.512   1.387  1.8783  1.0263 -1.1283
 5397TIP3    H240387   1.043   0.535   1.537 -1.4180 -0.2721 -0.7907
 5398TIP3   OH240388   4.220   7.252   8.297 -0.0190 -0.3555 -0.5240
 5398TIP3    H140389   4.182   7.237   8.211  0.5712  0.2205 -0.8996
 5398TIP3    H240390   4.315   7.246   8.283  0.1222  0.6288 -0.1080
 5399TIP3   OH240391   2.096   1.617   9.738  0.3143  0.2068 -0.1293
 5399TIP3    H140392   2.125   1.680   9.804  0.9436 -0.9156  0.7109
 5399TIP3    H240393   2.122   1.532   9.774  2.7754 -0.3183 -2.8364
 5400TIP3   OH240394   2.886   0.549   1.576 -0.0998  0.1457 -0.4657
 5400TIP3    H140395   2.873   0.639   1.606 -1.2684 -0.0923 -0.1819
 5400TIP3    H240396   2.807   0.530   1.524 -0.4528 -1.0934  0.4663
 5401TIP3   OH240397   1.946   2.084   2.350 -0.0623  0.4339  1.7476
 5401TIP3    H140398   1.950   2.159   2.291  1.0875 -1.8082 -1.2978
 5401TIP3    H240399   1.854   2.080   2.378 -1.0344  0.8718 -1.0697
 5402TIP3   OH240400   2.195   0.174   9.834  0.3468  0.6017 -0.8687
 5402TIP3    H140401   2.146   0.256   9.843 -2.8078 -1.0836 -0.9183
 5402TIP3    H240402   2.139   0.120   9.777  0.6299 -2.6692  1.6458
 5403TIP3   OH240403   4.177   0.711   8.792  0.4564  0.1364  0.2405
 5403TIP3    H140404   4.260   0.748   8.822  0.2861  0.0747  0.8037
 5403TIP3    H240405   4.163   0.750   8.706  1.2220 -0.0936  0.0043
 5404TIP3   OH240406   4.070   6.630   2.810 -0.2421  0.2284 -0.0158
 5404TIP3    H140407   3.979   6.634   2.839  0.0114  0.6064  0.7600
 5404TIP3    H240408   4.121   6.650   2.889  0.5364 -0.6514 -0.2768
 5405TIP3   OH240409   5.314   5.307   8.156  0.0098 -0.3896 -0.4739
 5405TIP3    H140410   5.353   5.276   8.239 -0.4192 -0.3529 -0.2573
 5405TIP3    H240411   5.224   5.276   8.159  0.0588 -0.5890 -1.0398
 5406TIP3   OH240412   2.536   4.657   7.716 -0.0835 -0.1429  0.3468
 5406TIP3    H140413   2.451   4.701   7.708  0.6049  1.3655  0.8995
 5406TIP3    H240414   2.541   4.600   7.639 -1.8769 -0.8009  0.6759
 5407TIP3   OH240415   1.114   5.581   0.416 -0.0056  0.2379 -0.6842
 5407TIP3    H140416   1.201   5.566   0.379 -0.8178 -1.2851 -2.1514
 5407TIP3    H240417   1.129   5.637   0.492  2.3936 -0.9846 -0.1454
 5408TIP3   OH240418   2.450   4.441   1.206  0.0281  0.3441  0.8505
 5408TIP3    H140419   2.451   4.354   1.165  1.4371  0.0915  1.3849
 5408TIP3    H240420   2.420   4.499   1.136 -1.9459 -0.6761  0.7709
 5409TIP3   OH240421   3.428   4.501   1.533 -0.0566  0.7796 -0.0602
 5409TIP3    H140422   3.473   4.496   1.617  0.0518 -0.3468 -0.1791
 5409TIP3    H240423   3.487   4.553   1.478  0.7785 -0.0883 -0.0035
 5410TIP3   OH240424   4.390   5.023   8.024 -0.3730  0.2286 -0.2044
 5410TIP3    H140425   4.317   5.082   8.007 -0.2705  1.1128  2.1269
 5410TIP3    H240426   4.367   4.943   7.976 -1.0632  1.6838 -2.4845
 5411TIP3   OH240427   2.833   2.228   1.320 -0.1129  0.4062 -0.1698
 5411TIP3    H140428   2.923   2.230   1.353  1.0705 -0.6623 -3.0011
 5411TIP3    H240429   2.784   2.179   1.385  1.0701  1.9080  1.9609
 5412TIP3   OH240430   5.174   1.291   7.713 -0.0345 -0.1320 -0.2389
 5412TIP3    H140431   5.238   1.220   7.708 -0.4207 -0.4695 -0.4774
 5412TIP3    H240432   5.090   1.247   7.730 -0.1662  0.3236  0.3459
 5413TIP3   OH240433   7.034   2.168   8.560 -0.3207 -0.1792  0.0964
 5413TIP3    H140434   7.012   2.076   8.547 -0.1239 -0.1616 -0.4050
 5413TIP3    H240435   7.122   2.177   8.525 -0.0888  0.0690  0.7239
 5414TIP3   OH240436   3.101   4.843   2.465 -0.3108  0.0390 -0.3786
 5414TIP3    H140437   3.099   4.917   2.405 -1.5567 -1.2587 -2.0319
 5414TIP3    H240438   3.182   4.797   2.445 -0.8707 -0.5685 -1.3779
 5415TIP3   OH240439   4.574   3.973   0.483  0.0631  0.5371  0.3803
 5415TIP3    H140440   4.598   4.016   0.401  0.3733  1.6741  1.0411
 5415TIP3    H240441   4.479   3.977   0.486 -0.1777 -1.9142 -1.1542
 5416TIP3   OH240442   6.310   6.229   9.576 -0.7956  0.1818 -0.3376
 5416TIP3    H140443   6.395   6.208   9.616 -0.3354  1.1186 -0.8077
 5416TIP3    H240444   6.252   6.160   9.607 -0.5237  0.9824  2.1647
 5417TIP3   OH240445   6.224   6.412   6.878 -0.4041  0.5491  0.2743
 5417TIP3    H140446   6.280   6.470   6.827  1.9910  1.0311  3.2017
 5417TIP3    H240447   6.176   6.362   6.812  0.5137  2.8642 -2.3891
 5418TIP3   OH240448   5.003   2.223   8.341  0.6531 -0.1543  0.3069
 5418TIP3    H140449   5.070   2.177   8.291 -1.4208 -4.6231  1.1163
 5418TIP3    H240450   5.034   2.220   8.432 -0.5091 -2.4648  0.7225
 5419TIP3   OH240451   1.374   2.934   8.150 -0.0125 -0.1538  0.0322
 5419TIP3    H140452   1.425   2.891   8.081 -0.4584 -1.1096  0.2953
 5419TIP3    H240453   1.293   2.961   8.107 -0.3836 -0.9453  0.2341
 5420TIP3   OH240454   0.189   7.179   1.055  0.1805  0.1016  0.1072
 5420TIP3    H140455   0.277   7.214   1.038 -0.1709  1.3912  0.8359
 5420TIP3    H240456   0.179   7.186   1.150 -0.9484  0.5289 -0.0383
 5421TIP3   OH240457   6.046   2.245   8.260 -0.7156  0.0648  0.1954
 5421TIP3    H140458   5.965   2.195   8.272  0.1890 -1.5178  0.0390
 5421TIP3    H240459   6.096   2.195   8.196  0.4048  1.0004  0.2946
 5422TIP3   OH240460   1.868   1.840   9.630 -0.5753  0.3831 -0.1048
 5422TIP3    H140461   1.893   1.804   9.715  1.2513 -2.3502 -1.6701
 5422TIP3    H240462   1.784   1.884   9.647 -0.2387  0.0220  3.0847
 5423TIP3   OH240463   0.979   1.758   1.551 -0.2879 -0.0050  0.2165
 5423TIP3    H140464   1.034   1.832   1.577 -0.0144 -0.0668 -0.1715
 5423TIP3    H240465   0.962   1.712   1.633 -1.8117  1.3688  0.7223
 5424TIP3   OH240466   0.304   6.925   9.118  0.1661 -0.0630  0.1751
 5424TIP3    H140467   0.388   6.884   9.096  0.4952  0.6709  0.0376
 5424TIP3    H240468   0.246   6.898   9.047 -0.3561 -2.3856  1.3779
 5425TIP3   OH240469   3.395   4.416   7.909  0.2996  0.3505 -0.0595
 5425TIP3    H140470   3.379   4.479   7.839  0.8154  0.1681 -0.3404
 5425TIP3    H240471   3.315   4.363   7.912  0.1046  0.6331 -0.2229
 5426TIP3   OH240472   4.689   4.196   8.087 -0.1522  0.1924  0.0403
 5426TIP3    H140473   4.764   4.221   8.033  0.9691  1.2829  1.9852
 5426TIP3    H240474   4.719   4.118   8.134  0.2112  1.2184  1.5873
 5427TIP3   OH240475   5.921   3.754   0.391 -0.9355 -0.3135 -0.1253
 5427TIP3    H140476   5.869   3.799   0.325 -0.9432  0.5237  0.4399
 5427TIP3    H240477   5.878   3.669   0.402 -2.3284  0.4326  0.4855
 5428TIP3   OH240478   3.269   5.829   9.487  0.2064  0.2967 -0.3789
 5428TIP3    H140479   3.201   5.892   9.509  1.1106  0.7104  1.3935
 5428TIP3    H240480   3.221   5.750   9.462 -0.9484  0.4254  1.3109
 5429TIP3   OH240481   6.411   3.232   9.078  0.0222  0.1462 -0.0876
 5429TIP3    H140482   6.321   3.241   9.108 -0.0730  1.9190 -0.7778
 5429TIP3    H240483   6.408   3.258   8.986  0.8724 -1.9928 -0.7875
 5430TIP3   OH240484   5.662   1.531   7.362 -0.5939  0.3243 -0.4978
 5430TIP3    H140485   5.657   1.535   7.267 -2.3067 -0.7429 -0.5167
 5430TIP3    H240486   5.682   1.439   7.381  3.2004  1.1529  0.1736
 5431TIP3   OH240487   4.251   3.561   0.865 -0.1901 -0.2096 -0.3981
 5431TIP3    H140488   4.185   3.501   0.830  0.2385 -0.6388 -0.4839
 5431TIP3    H240489   4.227   3.572   0.957  0.6726 -1.8389  0.0551
 5432TIP3   OH240490   5.132   1.662   1.706  0.4687 -0.2423 -0.2667
 5432TIP3    H140491   5.157   1.694   1.793  1.9185  0.1308 -0.8017
 5432TIP3    H240492   5.190   1.588   1.690 -1.2564 -1.7097 -0.0396
 5433TIP3   OH240493   0.110   6.137   2.050 -0.3389 -0.1542 -0.2247
 5433TIP3    H140494   0.183   6.196   2.028  0.1360 -1.7098 -3.5843
 5433TIP3    H240495   0.032   6.184   2.019 -0.1940 -0.3899 -0.9736
 5434TIP3   OH240496   0.765   7.194   1.128 -0.0471  0.0485  0.4273
 5434TIP3    H140497   0.755   7.281   1.165  0.6727  0.2110  0.2558
 5434TIP3    H240498   0.724   7.199   1.042  2.8720  1.2401 -1.0627
 5435TIP3   OH240499   7.121   0.564   0.315  0.3725  0.2052 -0.3937
 5435TIP3    H140500   7.039   0.589   0.358  1.5628  0.1439  2.0361
 5435TIP3    H240501   7.098   0.485   0.265 -0.9452 -0.0878  0.6175
 5436TIP3   OH240502   1.860   7.089   9.508 -0.5532 -0.3366  0.0612
 5436TIP3    H140503   1.903   7.063   9.589 -0.0444 -2.6040 -0.8713
 5436TIP3    H240504   1.845   7.007   9.461  2.8092  1.0089 -3.9963
 5437TIP3   OH240505   2.956   6.673   8.839  0.2194 -0.1955  0.6596
 5437TIP3    H140506   2.872   6.627   8.839 -0.2239  0.5838 -0.0021
 5437TIP3    H240507   2.983   6.675   8.747 -0.5945  2.2664  0.3967
 5438TIP3   OH240508   4.820   6.904   7.351 -0.2053 -0.2142 -0.0657
 5438TIP3    H140509   4.832   6.810   7.349  1.3165 -0.0472  0.1767
 5438TIP3    H240510   4.845   6.935   7.264  1.5066  0.1790  0.5395
 5439TIP3   OH240511   4.726   6.568   0.001  0.5601 -0.0567  0.1485
 5439TIP3    H140512   4.653   6.622   0.031  0.3066  0.0448 -0.6145
 5439TIP3    H240513   4.788   6.630  -0.038 -0.6448 -0.4345 -2.5792
 5440TIP3   OH240514   0.973   4.355   0.041  0.1538 -0.1645  0.0062
 5440TIP3    H140515   0.998   4.265   0.064 -1.0590 -0.1297  1.5925
 5440TIP3    H240516   0.894   4.344  -0.012  1.4952 -0.1072 -2.1462
 5441TIP3   OH240517   2.563   2.938   8.816  0.4144  0.4825  0.0309
 5441TIP3    H140518   2.477   2.971   8.843  0.1940 -0.6665  0.7763
 5441TIP3    H240519   2.597   3.006   8.758 -1.2613  0.6820 -0.7814
 5442TIP3   OH240520   0.385   2.057   0.811  0.3045 -0.1075  0.3700
 5442TIP3    H140521   0.326   1.985   0.830  2.0192 -1.9857 -1.0272
 5442TIP3    H240522   0.436   2.067   0.891  1.7499 -2.2233 -0.2111
 5443TIP3   OH240523   1.151   4.072   8.954  0.3742  0.1636  0.0033
 5443TIP3    H140524   1.130   4.133   9.025  0.1130  2.6415 -2.0793
 5443TIP3    H240525   1.245   4.081   8.941  0.6127 -1.0967  0.6724
 5444TIP3   OH240526   5.322   1.962   9.443 -0.0676 -0.0603  0.1856
 5444TIP3    H140527   5.306   1.978   9.536  0.0218 -1.4136  0.4507
 5444TIP3    H240528   5.283   1.876   9.426 -0.4301  0.3333 -1.1280
 5445TIP3   OH240529   2.348   6.972   1.832 -0.2918  0.2392  0.1861
 5445TIP3    H140530   2.355   6.913   1.757 -2.3415  0.0805  0.0812
 5445TIP3    H240531   2.268   7.022   1.817 -1.1672 -0.3041  2.5835
 5446TIP3   OH240532   0.197   1.878   1.423  0.2340  0.0176 -0.5545
 5446TIP3    H140533   0.154   1.795   1.444 -0.4264  0.6697  0.7565
 5446TIP3    H240534   0.290   1.856   1.418  0.1022 -0.7467  0.1410
 5447TIP3   OH240535   5.529   1.524   9.515  0.4301 -0.5502 -0.0719
 5447TIP3    H140536   5.438   1.503   9.492  0.3971  0.0779 -0.5424
 5447TIP3    H240537   5.531   1.619   9.519  1.5577 -0.4471 -2.1357
 5448TIP3   OH240538   0.279   2.372   9.859 -0.4117 -0.0384 -0.1850
 5448TIP3    H140539   0.271   2.444   9.921 -0.2661 -0.2894  0.1279
 5448TIP3    H240540   0.357   2.393   9.808  0.7586 -0.9141  1.1681
 5449TIP3   OH240541   5.518   2.355   7.912 -0.4057 -0.0791  0.6700
 5449TIP3    H140542   5.561   2.307   7.841  0.4683  0.4396  0.8324
 5449TIP3    H240543   5.458   2.416   7.867  2.7535  2.9176  0.0398
 5450TIP3   OH240544   7.070   1.445   9.068  0.2366 -0.1009  0.3737
 5450TIP3    H140545   7.083   1.352   9.046 -0.0501 -0.0008 -0.2123
 5450TIP3    H240546   6.986   1.447   9.113 -1.5154  0.3340 -2.6606
 5451TIP3   OH240547   1.137   2.108   7.565 -0.5092 -0.5163  0.3876
 5451TIP3    H140548   1.188   2.027   7.560 -0.6606 -0.5325 -1.9975
 5451TIP3    H240549   1.106   2.122   7.476 -1.4281  1.5954  0.9811
 5452TIP3   OH240550   0.825   2.018   8.656 -0.2576 -0.6804 -0.3809
 5452TIP3    H140551   0.882   1.981   8.589  1.5585 -1.8026  1.6550
 5452TIP3    H240552   0.739   1.980   8.637  0.4076 -1.6888 -1.5312
 5453TIP3   OH240553   0.184   6.874   2.224 -0.2042  0.5741  0.1051
 5453TIP3    H140554   0.109   6.909   2.176 -0.8650  0.7366  1.2320
 5453TIP3    H240555   0.158   6.879   2.316  0.0387 -1.9862  0.3929
 5454TIP3   OH240556   4.782   0.151   6.852 -0.0469  0.7871  0.7868
 5454TIP3    H140557   4.801   0.119   6.940  2.0933  1.7904  0.7510
 5454TIP3    H240558   4.770   0.245   6.863 -0.9789  0.7623  0.1431
 5455TIP3   OH240559   5.487   5.231   9.349 -0.2466 -0.0995  0.3897
 5455TIP3    H140560   5.579   5.242   9.374 -0.5580  1.3537  0.9840
 5455TIP3    H240561   5.489   5.170   9.275  1.1630 -0.3267  0.5941
 5456TIP3   OH240562   3.140   1.657   1.928  0.2282  0.5956  0.1874
 5456TIP3    H140563   3.167   1.593   1.993  1.3207  0.6933 -0.1436
 5456TIP3    H240564   3.046   1.645   1.919  0.4260 -1.0394  0.0533
 5457TIP3   OH240565   4.272   1.548   6.995  0.0600 -0.1948  0.2150
 5457TIP3    H140566   4.242   1.458   6.999  0.3767 -0.3778 -1.0200
 5457TIP3    H240567   4.360   1.543   6.958 -0.1898  0.6564 -0.5430
 5458TIP3   OH240568   2.263   3.579   1.866 -0.5220  0.1179  0.0893
 5458TIP3    H140569   2.185   3.635   1.864  0.2456  1.1926 -0.9498
 5458TIP3    H240570   2.308   3.605   1.947 -1.2087 -0.5108  0.6984
 5459TIP3   OH240571   1.865   3.804   9.235 -0.1461  0.2781 -0.3342
 5459TIP3    H140572   1.776   3.839   9.235  0.1015  1.1824  2.5906
 5459TIP3    H240573   1.861   3.729   9.294  0.8843 -0.2276 -0.8769
 5460TIP3   OH240574   7.008   1.846   9.211 -0.1495  0.1492 -0.8225
 5460TIP3    H140575   6.939   1.813   9.152 -2.1181  1.9289  0.3468
 5460TIP3    H240576   7.037   1.927   9.170  0.5485 -0.0761 -0.7809
 5461TIP3   OH240577   1.289   5.420   9.211  0.1149 -0.5650  0.4185
 5461TIP3    H140578   1.354   5.468   9.159  0.6011 -1.8131 -0.1655
 5461TIP3    H240579   1.299   5.329   9.184 -1.6984 -0.8290  0.5435
 5462TIP3   OH240580   4.855   4.612   0.347 -0.1339  0.0050 -0.6895
 5462TIP3    H140581   4.805   4.562   0.411  2.6357 -3.0403 -0.6143
 5462TIP3    H240582   4.803   4.610   0.267 -1.0504 -1.2221 -0.0820
 5463TIP3   OH240583   2.270   6.790   0.559  0.2886 -0.0285 -0.3845
 5463TIP3    H140584   2.236   6.732   0.627  0.7482  0.2124  0.0639
 5463TIP3    H240585   2.354   6.750   0.535  0.3030  0.0958 -0.5356
 5464TIP3   OH240586   3.789   5.617   9.770  0.0845  0.2728  0.2688
 5464TIP3    H140587   3.867   5.567   9.793 -0.0943 -0.7159 -1.0987
 5464TIP3    H240588   3.742   5.629   9.852  0.2863 -1.6044  0.7047
 5465TIP3   OH240589   7.143   3.994   7.312  0.0246 -0.1665 -0.2917
 5465TIP3    H140590   7.170   4.082   7.284  0.2809  0.7795  2.6168
 5465TIP3    H240591   7.048   3.997   7.309 -0.0663 -1.3289 -4.2505
 5466TIP3   OH240592   4.608   6.905   1.079  0.1559 -0.6250 -0.2720
 5466TIP3    H140593   4.693   6.891   1.039  0.6606 -0.4302  0.7034
 5466TIP3    H240594   4.567   6.819   1.081 -0.0181 -0.5869 -1.4749
 5467TIP3   OH240595   6.812   7.155   3.138  0.4095  0.1929  0.3076
 5467TIP3    H140596   6.826   7.080   3.196 -1.3186 -0.8793 -0.6021
 5467TIP3    H240597   6.721   7.181   3.153  0.7746  1.7099  0.1062
 5468TIP3   OH240598   4.978   3.057   8.940 -0.2684 -0.0432 -0.3839
 5468TIP3    H140599   5.054   3.071   8.884 -0.9875 -1.6819 -1.8824
 5468TIP3    H240600   4.983   3.126   9.006  1.8169  0.6346 -1.1725
 5469TIP3   OH240601   1.777   6.382   1.007  0.4404 -0.2209  0.2321
 5469TIP3    H140602   1.840   6.335   0.953 -0.3252 -0.7742 -0.2075
 5469TIP3    H240603   1.799   6.474   0.997  2.2648 -0.4625  1.4659
 5470TIP3   OH240604   6.671   3.166   1.834 -0.3046  0.2914 -0.2690
 5470TIP3    H140605   6.587   3.122   1.847 -0.2253  0.4622  1.0175
 5470TIP3    H240606   6.735   3.107   1.875 -0.0700  1.1071  0.5583
 5471TIP3   OH240607   2.814   5.651   3.153 -0.3650 -0.2826  0.1598
 5471TIP3    H140608   2.824   5.700   3.071  0.0647 -0.6291  0.0048
 5471TIP3    H240609   2.859   5.705   3.218  1.7837 -1.3560 -0.3519
 5472TIP3   OH240610   4.984   4.160   6.639  0.3133  0.5368 -0.5079
 5472TIP3    H140611   4.916   4.158   6.571 -0.4168 -0.6988  0.2229
 5472TIP3    H240612   5.066   4.153   6.590 -0.1362  0.7988 -1.3245
 5473TIP3   OH240613   0.004   2.636   1.904  0.8497  0.6628  0.7310
 5473TIP3    H140614  -0.039   2.645   1.989 -0.5061 -3.1049  0.6190
 5473TIP3    H240615  -0.060   2.671   1.842 -0.3937 -1.1633  0.9193
 5474TIP3   OH240616   3.252   4.700   9.381  0.1708  0.0120  0.4895
 5474TIP3    H140617   3.282   4.620   9.337  0.0519  0.4673 -0.4596
 5474TIP3    H240618   3.199   4.670   9.454 -0.7188 -0.7855 -0.4569
 5475TIP3   OH240619   2.858   1.006   9.251 -0.0264 -0.2721  0.1171
 5475TIP3    H140620   2.904   1.034   9.172 -1.7658  0.9236 -0.5409
 5475TIP3    H240621   2.775   0.970   9.219  0.3716 -2.3800  1.2580
 5476TIP3   OH240622   5.065   0.201   0.589 -0.1175  0.7917 -0.2315
 5476TIP3    H140623   5.016   0.196   0.507  1.9719  0.0216 -1.5222
 5476TIP3    H240624   5.105   0.115   0.598 -0.5918  0.7516  1.8241
 5477TIP3   OH240625   5.118   2.671   1.549  0.2751  1.0032  0.0641
 5477TIP3    H140626   5.095   2.763   1.538  0.7502  1.0360 -0.6837
 5477TIP3    H240627   5.114   2.634   1.461  0.2444  0.3407  0.3371
 5478TIP3   OH240628   4.614   2.366   9.829 -0.1180  0.0639  0.5776
 5478TIP3    H140629   4.534   2.417   9.822  1.1005  2.1501  0.9365
 5478TIP3    H240630   4.633   2.363   9.923 -0.9501 -2.4658  0.7474
 5479TIP3   OH240631   6.521   5.925   0.533 -0.2326  0.0792  0.7331
 5479TIP3    H140632   6.439   5.973   0.523  0.1183  0.1843 -2.4805
 5479TIP3    H240633   6.572   5.946   0.455  2.9829  0.1037  2.6108
 5480TIP3   OH240634   6.452   2.594   0.701  0.3826 -0.2676 -0.2606
 5480TIP3    H140635   6.400   2.584   0.621  0.2276 -1.2653 -0.0480
 5480TIP3    H240636   6.530   2.540   0.686 -0.1407 -1.3397  0.6575
 5481TIP3   OH240637   4.659   0.399   1.614  0.3968  0.3244  0.2597
 5481TIP3    H140638   4.715   0.462   1.568  0.5088 -0.1297 -0.2369
 5481TIP3    H240639   4.609   0.356   1.545  0.1979 -0.0125  0.6071
 5482TIP3   OH240640   7.111   3.578   8.037  0.2664  0.4838  0.8342
 5482TIP3    H140641   7.104   3.512   8.106 -0.0321  1.3983  1.7066
 5482TIP3    H240642   7.204   3.598   8.031  0.1725  1.3932  1.9728
 5483TIP3   OH240643   1.856   2.425   0.225 -0.4247 -0.6118  0.1965
 5483TIP3    H140644   1.923   2.443   0.291  1.8723  2.1027 -2.5744
 5483TIP3    H240645   1.784   2.484   0.247  0.6514  0.8543 -0.0949
 5484TIP3   OH240646   3.602   6.547   6.414 -0.5211 -0.1122 -0.1795
 5484TIP3    H140647   3.555   6.619   6.456 -2.5235 -0.7225 -1.2445
 5484TIP3    H240648   3.651   6.588   6.343 -0.7612  0.3394 -0.0839
 5485TIP3   OH240649   0.341   4.587   7.078  0.9153 -0.3408  0.4524
 5485TIP3    H140650   0.318   4.499   7.046  0.8583  0.0674 -0.6589
 5485TIP3    H240651   0.268   4.642   7.051  1.0184  0.0803  1.0220
 5486TIP3   OH240652   2.908   0.839   7.048  0.0147  0.2279 -0.1049
 5486TIP3    H140653   2.999   0.847   7.019 -0.0038  0.6875 -0.0487
 5486TIP3    H240654   2.866   0.919   7.016 -0.3641  0.0301 -0.1085
 5487TIP3   OH240655   5.769   3.102   0.817  0.0578 -0.2612 -0.3556
 5487TIP3    H140656   5.687   3.059   0.795 -0.4563 -0.3361  1.5017
 5487TIP3    H240657   5.759   3.192   0.784  0.5101 -1.0699 -2.8517
 5488TIP3   OH240658   2.868   1.562   1.927 -0.1078 -0.0071  0.4932
 5488TIP3    H140659   2.847   1.497   1.994 -1.6535 -1.3723 -1.2001
 5488TIP3    H240660   2.805   1.545   1.857  1.5679  1.1965 -1.4135
 5489TIP3   OH240661   0.910   4.952   8.052 -0.0517 -0.0190 -0.3576
 5489TIP3    H140662   0.984   4.922   8.105 -1.3719 -0.8600  1.0986
 5489TIP3    H240663   0.939   4.940   7.962  0.0042 -4.7888  0.0462
 5490TIP3   OH240664   6.317   4.203   9.738 -0.0834  0.2769 -0.4217
 5490TIP3    H140665   6.245   4.140   9.739 -0.9475  1.2387  0.1579
 5490TIP3    H240666   6.363   4.188   9.821 -0.0624  0.1584 -0.4551
 5491TIP3   OH240667   1.000   2.737   9.027  0.3196 -0.2327  0.4256
 5491TIP3    H140668   1.054   2.676   8.975 -0.0316  0.0971 -0.3487
 5491TIP3    H240669   0.948   2.784   8.961 -2.2281 -1.7545  1.1896
 5492TIP3   OH240670   4.627   5.833   8.117  0.2242  0.2177 -0.0454
 5492TIP3    H140671   4.673   5.916   8.134 -1.0299  0.7920  0.7207
 5492TIP3    H240672   4.599   5.803   8.203 -0.1650 -0.5047 -0.4153
 5493TIP3   OH240673   2.376   0.209   1.340 -0.6077 -0.1628 -0.2265
 5493TIP3    H140674   2.425   0.183   1.418 -0.2092  0.2000 -0.3548
 5493TIP3    H240675   2.288   0.230   1.373  0.0443  1.7666  0.4341
 5494TIP3   OH240676   6.056   4.360   8.188  0.3135 -0.4452 -0.0193
 5494TIP3    H140677   6.103   4.402   8.260  2.7254 -2.8183 -0.0292
 5494TIP3    H240678   5.968   4.344   8.222  1.3276 -1.3133  2.3755
 5495TIP3   OH240679   1.484   4.012   2.895 -0.0189  0.3967 -0.4366
 5495TIP3    H140680   1.577   4.029   2.881  0.0798 -0.7012 -1.2282
 5495TIP3    H240681   1.481   3.953   2.970 -0.2094  1.7734  0.6894
 5496TIP3   OH240682   6.502   3.403   1.368  0.8186 -0.0633 -0.0401
 5496TIP3    H140683   6.557   3.328   1.346 -0.2641 -0.4797 -1.4590
 5496TIP3    H240684   6.413   3.375   1.347  0.1803  1.0160  1.0624
 5497TIP3   OH240685   1.387   5.608   0.324 -0.3062  0.0173  0.2048
 5497TIP3    H140686   1.357   5.569   0.241 -0.5604  0.0188  0.2959
 5497TIP3    H240687   1.472   5.569   0.339  1.0126  2.0370 -1.4656
 5498TIP3   OH240688   3.475   0.117   9.810  0.5929 -0.2695  0.6656
 5498TIP3    H140689   3.496   0.082   9.723  1.2374 -1.1440  1.1470
 5498TIP3    H240690   3.526   0.062   9.870  2.1564  1.9208  1.4526
 5499TIP3   OH240691   1.619   0.399   9.484  0.0586 -0.2392  0.1860
 5499TIP3    H140692   1.645   0.443   9.564  2.4133  1.1994 -1.2611
 5499TIP3    H240693   1.539   0.443   9.457  0.4615  0.7715  0.6015
 5500TIP3   OH240694   4.593   1.036   1.490  0.5395 -0.0898 -0.4772
 5500TIP3    H140695   4.512   1.019   1.442  1.3240 -0.8781 -1.5647
 5500TIP3    H240696   4.608   1.130   1.480 -0.2162  0.0558 -0.2889
 5501TIP3   OH240697   0.676   1.656   7.662 -0.1202  0.2242  0.2000
 5501TIP3    H140698   0.734   1.665   7.738 -0.3891 -2.0366  0.7467
 5501TIP3    H240699   0.609   1.594   7.691 -0.0045 -1.0129 -2.0094
 5502TIP3   OH240700   4.307   6.946   9.164 -0.0531 -0.3781  0.3281
 5502TIP3    H140701   4.251   6.870   9.175  2.3791 -2.3461 -0.0421
 5502TIP3    H240702   4.396   6.911   9.160  1.1611  2.4401 -0.3797
 5503TIP3   OH240703   2.130   7.107   8.188 -0.1227  0.0449  0.2285
 5503TIP3    H140704   2.086   7.189   8.166 -0.0943 -0.1988 -0.7976
 5503TIP3    H240705   2.060   7.050   8.220 -0.1930  0.3540  0.6391
 5504TIP3   OH240706   2.432   2.691   7.845 -0.6029 -0.1320  0.1056
 5504TIP3    H140707   2.515   2.694   7.893 -0.3451  0.4542 -0.3659
 5504TIP3    H240708   2.403   2.783   7.841 -0.5282 -0.1486 -1.0161
 5505TIP3   OH240709   0.258   2.496   7.817  0.0744  0.6842 -0.0741
 5505TIP3    H140710   0.291   2.452   7.739 -0.3221 -0.5770  0.4500
 5505TIP3    H240711   0.266   2.431   7.887 -0.7785  1.3488  0.6638
 5506TIP3   OH240712   3.634   1.148   9.744 -0.4766 -0.1082  0.3845
 5506TIP3    H140713   3.578   1.202   9.688  1.2377  0.6186 -0.7083
 5506TIP3    H240714   3.627   1.060   9.707 -0.7346  0.0216  0.1193
 5507TIP3   OH240715   0.493   1.512   7.832 -0.0255 -0.1347 -0.1242
 5507TIP3    H140716   0.534   1.426   7.836 -1.3589 -1.0564 -3.2835
 5507TIP3    H240717   0.401   1.494   7.813 -0.4787  1.9791 -0.1945
 5508TIP3   OH240718   2.807   3.646   9.313  0.3694 -0.2336  0.0843
 5508TIP3    H140719   2.762   3.727   9.290  1.0676 -0.3132 -1.6802
 5508TIP3    H240720   2.815   3.650   9.409 -0.1406  1.4823  0.0941
 5509TIP3   OH240721   1.322   3.246   0.134  0.7820 -0.0263 -0.6888
 5509TIP3    H140722   1.392   3.265   0.071 -0.2645  0.6038 -1.6990
 5509TIP3    H240723   1.342   3.159   0.167  2.4523  0.4265 -0.3931
 5510TIP3   OH240724   3.457   4.822   8.327 -0.4802  0.6943  0.4222
 5510TIP3    H140725   3.479   4.773   8.248 -1.7424 -0.5051  0.7812
 5510TIP3    H240726   3.392   4.768   8.371 -2.9659  3.3087  0.2045
 5511TIP3   OH240727   0.885   3.999   2.251  0.3410 -0.1464 -0.1834
 5511TIP3    H140728   0.922   4.049   2.178  0.6184  0.1771  0.1752
 5511TIP3    H240729   0.824   4.059   2.293  1.8574  0.4949  1.2316
 5512TIP3   OH240730   4.035   0.151   7.494  0.1608 -0.6362  0.0706
 5512TIP3    H140731   4.077   0.191   7.417  0.7984  0.5991  1.0316
 5512TIP3    H240732   3.942   0.158   7.476  0.2974 -1.1625 -0.9708
 5513TIP3   OH240733   6.825   5.574   8.005 -0.1425 -0.0752 -0.3217
 5513TIP3    H140734   6.799   5.664   8.025 -0.4406 -0.1406 -0.4075
 5513TIP3    H240735   6.767   5.549   7.933  0.5340 -0.0341 -0.8828
 5514TIP3   OH240736   5.066   4.172   8.922  0.6002 -0.1537 -0.1477
 5514TIP3    H140737   5.075   4.105   8.990  1.0400  0.1145  0.0582
 5514TIP3    H240738   5.113   4.248   8.956  0.3615  0.1608 -0.5156
 5515TIP3   OH240739   3.604   0.419   9.597  0.1193 -0.0949  0.1757
 5515TIP3    H140740   3.519   0.434   9.556 -1.0160 -0.5666  2.2050
 5515TIP3    H240741   3.654   0.499   9.580 -1.2929  0.8311  0.2560
 5516TIP3   OH240742   0.647   3.728   7.666  0.4433 -0.0745 -0.1756
 5516TIP3    H140743   0.728   3.684   7.640  1.9461  2.1812  0.3782
 5516TIP3    H240744   0.653   3.814   7.624 -1.0869  0.5924  0.9018
 5517TIP3   OH240745   5.959   4.967   9.604 -0.0318  0.0303 -0.4049
 5517TIP3    H140746   5.909   4.925   9.534  0.0933 -1.9131  0.6097
 5517TIP3    H240747   5.911   4.946   9.684  0.4217  1.3002  0.2387
 5518TIP3   OH240748   2.822   6.884   1.855  0.0298 -0.1752  0.3301
 5518TIP3    H140749   2.747   6.926   1.896  0.0841 -0.8580  1.1633
 5518TIP3    H240750   2.854   6.823   1.922  2.4064  1.3423  0.6997
 5519TIP3   OH240751   1.864   6.797   2.239  0.1044  0.0212 -0.0395
 5519TIP3    H140752   1.781   6.840   2.260 -0.9896 -0.7260 -2.4898
 5519TIP3    H240753   1.863   6.716   2.290 -0.0716  0.5911  0.8883
 5520TIP3   OH240754   3.998   0.078   1.660  0.1276 -0.2234  0.3232
 5520TIP3    H140755   4.040   0.149   1.612 -0.5452 -0.6088 -0.8820
 5520TIP3    H240756   4.053   0.065   1.737  1.4977  0.1302 -0.5541
 5521TIP3   OH240757   4.545   1.369   8.491 -0.1761 -0.3303 -0.3758
 5521TIP3    H140758   4.590   1.348   8.409  0.1055  3.3022 -1.3712
 5521TIP3    H240759   4.463   1.411   8.462 -0.6793 -0.1416  1.2394
 5522TIP3   OH240760   2.071   6.958   8.587  0.3885  0.3394  0.4096
 5522TIP3    H140761   2.046   7.000   8.670  2.3180  1.1464  0.6255
 5522TIP3    H240762   2.125   7.023   8.543 -0.7185 -0.0284 -1.6022
 5523TIP3   OH240763   3.109   3.387   8.850  0.0880  0.3675  0.2805
 5523TIP3    H140764   3.076   3.329   8.918  1.3602 -0.7451 -0.0161
 5523TIP3    H240765   3.116   3.331   8.772  3.9853  0.0471  0.6450
 5524TIP3   OH240766   1.786   5.170   1.357  0.1956  0.1528 -0.8668
 5524TIP3    H140767   1.710   5.152   1.413  1.1513 -0.1808  0.3830
 5524TIP3    H240768   1.778   5.263   1.336  0.7509  0.7857  1.3937
 5525TIP3   OH240769   4.351   3.794   9.072  0.2815 -0.2831  0.2111
 5525TIP3    H140770   4.330   3.712   9.118  0.0178 -1.9648 -2.6599
 5525TIP3    H240771   4.443   3.784   9.046 -0.1807 -0.4314 -1.4922
 5526TIP3   OH240772   4.432   3.664   1.239  0.0433 -0.3341 -0.2869
 5526TIP3    H140773   4.457   3.603   1.309  1.7630 -1.5040 -1.8354
 5526TIP3    H240774   4.357   3.623   1.197 -0.7150  0.1512  0.5756
 5527TIP3   OH240775   1.702   4.726   2.193  0.1070  0.6344 -0.6393
 5527TIP3    H140776   1.689   4.631   2.196  1.5150  0.3430 -2.4686
 5527TIP3    H240777   1.750   4.746   2.274 -0.8436 -0.0765  0.1192
 5528TIP3   OH240778   2.861   4.942   8.874 -0.4321 -0.8992  0.6332
 5528TIP3    H140779   2.829   4.994   8.801 -0.1352 -0.2448  0.9621
 5528TIP3    H240780   2.813   4.975   8.950  0.3758 -0.5067  0.9818
 5529TIP3   OH240781   5.713   5.884   9.976 -0.2904 -0.1125 -0.2488
 5529TIP3    H140782   5.678   5.796   9.990 -0.8382  0.1491  0.0628
 5529TIP3    H240783   5.775   5.897  10.048 -1.5069  0.4116  0.7337
 5530TIP3   OH240784   3.644   2.242   8.339 -0.8146 -0.3385 -0.1604
 5530TIP3    H140785   3.646   2.180   8.412  0.3851 -0.3636 -0.1939
 5530TIP3    H240786   3.579   2.308   8.366  0.0790  0.0165  1.2454
 5531TIP3   OH240787   1.549   4.584   9.355 -0.1778  0.1114  0.1290
 5531TIP3    H140788   1.526   4.534   9.434 -1.8534  0.9320  0.2119
 5531TIP3    H240789   1.466   4.594   9.308  0.4473  1.2280 -0.7996
 5532TIP3   OH240790   2.710   1.729   0.187  0.6456  0.7531 -0.4363
 5532TIP3    H140791   2.802   1.748   0.203  0.4673  1.1639  0.1110
 5532TIP3    H240792   2.701   1.636   0.206  1.0496  0.5926 -0.9882
 5533TIP3   OH240793   3.603   0.946   2.211 -0.0957  0.0768  0.1278
 5533TIP3    H140794   3.673   0.930   2.148  1.1495  1.2510  1.1554
 5533TIP3    H240795   3.640   0.923   2.296 -0.5816  1.6657  0.8131
 5534TIP3   OH240796   4.578   4.819   1.571  0.5297 -0.1279 -0.3410
 5534TIP3    H140797   4.588   4.775   1.487 -0.4478 -0.9729 -0.0271
 5534TIP3    H240798   4.494   4.864   1.565  1.1404  1.0433 -0.3525
 5535TIP3   OH240799   3.234   5.723   6.829  0.0428  0.3255  0.4305
 5535TIP3    H140800   3.154   5.686   6.791 -0.1895  0.4149  0.8205
 5535TIP3    H240801   3.224   5.817   6.818  0.4086  0.3049 -0.1226
 5536TIP3   OH240802   5.834   3.485   7.658  0.2066  0.0935 -0.2399
 5536TIP3    H140803   5.745   3.508   7.687  0.1764 -2.2632  1.9549
 5536TIP3    H240804   5.862   3.417   7.720  3.1468 -0.0123 -1.5276
 5537TIP3   OH240805   0.801   0.541   2.271 -0.6100  0.3238 -0.5403
 5537TIP3    H140806   0.897   0.537   2.271 -0.5539  0.4983  1.7819
 5537TIP3    H240807   0.781   0.633   2.250 -0.2018  0.6752  0.5527
 5538TIP3   OH240808   0.053   3.670   9.548 -0.2683 -0.4011 -0.2524
 5538TIP3    H140809  -0.038   3.646   9.566 -0.1211 -0.2942  0.7019
 5538TIP3    H240810   0.071   3.635   9.461 -0.8702 -1.4145  0.0155
 5539TIP3   OH240811   3.107   4.182   9.588 -0.6182  0.7199 -0.1640
 5539TIP3    H140812   3.112   4.179   9.493  0.6965 -1.3455 -0.0852
 5539TIP3    H240813   3.158   4.259   9.613 -0.6413  1.0504 -1.1041
 5540TIP3   OH240814   5.901   2.745   1.503  0.0899  0.2051  0.6203
 5540TIP3    H140815   5.971   2.714   1.445  0.9243  1.1551  1.0922
 5540TIP3    H240816   5.822   2.741   1.449  0.9192  1.4788 -0.7605
 5541TIP3   OH240817   3.775   2.302   7.362  0.3040 -0.2685 -0.0763
 5541TIP3    H140818   3.753   2.395   7.357 -0.4834 -0.2802  1.9629
 5541TIP3    H240819   3.731   2.262   7.288 -1.2744  0.6711  0.3175
 5542TIP3   OH240820   4.146   3.270   0.400 -0.1367  0.7922 -0.3496
 5542TIP3    H140821   4.101   3.188   0.423  1.5636  0.6554  3.1314
 5542TIP3    H240822   4.236   3.244   0.383 -0.0852  1.7006 -1.5408
 5543TIP3   OH240823   5.492   5.545   0.344  0.0136  0.5603 -0.6078
 5543TIP3    H140824   5.558   5.476   0.342 -0.8340 -0.3338  0.6566
 5543TIP3    H240825   5.526   5.609   0.406 -0.5986 -0.2456  0.5938
 5544TIP3   OH240826   2.147   0.960   9.645 -0.0850  0.0152 -0.1659
 5544TIP3    H140827   2.076   0.899   9.667 -0.4501 -0.1395 -1.6760
 5544TIP3    H240828   2.181   0.927   9.562 -1.4958  2.8536 -2.0259
 5545TIP3   OH240829   1.768   3.937   2.223  0.1075  0.1636 -0.0995
 5545TIP3    H140830   1.822   4.009   2.254 -1.6072  1.0249  1.0361
 5545TIP3    H240831   1.768   3.874   2.296 -3.2885  1.8369  1.5799
 5546TIP3   OH240832   0.517   6.980   9.925  0.1281  0.6877 -0.3602
 5546TIP3    H140833   0.517   6.957   9.832 -2.4612 -0.2398 -0.2190
 5546TIP3    H240834   0.461   7.057   9.932 -0.3306  0.2951  0.5105
 5547TIP3   OH240835   5.030   1.312   1.606  0.3072  0.1244  0.7625
 5547TIP3    H140836   5.097   1.365   1.561 -0.9966  1.5638  0.4196
 5547TIP3    H240837   4.947   1.346   1.573 -0.6603 -0.1531  2.7569
 5548TIP3   OH240838   7.069   5.857   1.398  0.1460 -0.4497 -0.2331
 5548TIP3    H140839   7.049   5.950   1.411  2.1159 -0.0016 -0.1084
 5548TIP3    H240840   6.987   5.812   1.417 -0.2470  1.0658  2.0542
 5549TIP3   OH240841   5.125   0.770   8.950  0.6198 -0.4855  0.0762
 5549TIP3    H140842   5.205   0.764   8.897 -0.4120  0.5918 -1.6851
 5549TIP3    H240843   5.077   0.689   8.931  0.9717 -0.8253  0.6146
 5550TIP3   OH240844   7.023   0.194   0.912 -0.3368 -0.2367 -0.1857
 5550TIP3    H140845   6.980   0.151   0.838  0.3122 -0.9188 -0.1765
 5550TIP3    H240846   7.102   0.234   0.874 -0.3244 -0.0539  0.0291
 5551TIP3   OH240847   0.266   2.034   1.826 -0.2273 -0.3421  0.0922
 5551TIP3    H140848   0.286   1.942   1.840  0.6974 -0.1891 -0.1931
 5551TIP3    H240849   0.321   2.081   1.888  2.7725  0.2532 -2.7060
 5552TIP3   OH240850   3.364   6.845   9.608  0.2097 -0.8590 -0.1172
 5552TIP3    H140851   3.454   6.820   9.629  0.7102  1.0559  0.2091
 5552TIP3    H240852   3.330   6.881   9.690 -0.4778 -0.5365 -0.5364
 5553TIP3   OH240853   3.903   4.910   8.595 -0.0215 -0.3007 -0.2269
 5553TIP3    H140854   3.946   4.830   8.626 -0.2831 -0.4194 -0.1726
 5553TIP3    H240855   3.827   4.920   8.652  0.6529  0.6311  0.5394
 5554TIP3   OH240856   4.850   6.970   7.086 -0.1082  0.0893  0.1440
 5554TIP3    H140857   4.790   7.018   7.028 -0.5155 -0.6523 -0.0732
 5554TIP3    H240858   4.864   6.887   7.041 -1.4745 -1.0555  1.7132
 5555TIP3   OH240859   5.919   1.828   8.454 -0.7759  0.1378 -0.4336
 5555TIP3    H140860   5.979   1.810   8.526 -1.3260  0.8297  0.2170
 5555TIP3    H240861   5.886   1.916   8.472 -2.0115 -0.2392 -0.7493
 5556TIP3   OH240862   1.505   3.756   1.653  0.5039 -0.1047 -0.2735
 5556TIP3    H140863   1.422   3.760   1.699 -0.1200 -0.1883 -1.3491
 5556TIP3    H240864   1.551   3.681   1.692  0.9806  1.1696  1.7435
 5557TIP3   OH240865   0.168   5.732   2.308 -0.1143 -0.5874 -0.0120
 5557TIP3    H140866   0.122   5.808   2.273  0.5302  0.6022  1.6115
 5557TIP3    H240867   0.259   5.745   2.282  0.1431 -0.3485  0.9635
 5558TIP3   OH240868   1.083   1.791   6.549  0.0722 -0.1737 -0.6164
 5558TIP3    H140869   1.026   1.833   6.485  0.9838  1.3482 -0.4905
 5558TIP3    H240870   1.159   1.849   6.555  0.6428 -1.0066  0.8143
 5559TIP3   OH240871   4.033   2.073   9.548 -0.3324  0.0543  0.1740
 5559TIP3    H140872   4.106   2.015   9.569 -2.0974 -2.3692  0.1172
 5559TIP3    H240873   4.044   2.094   9.456 -0.0011 -0.8134  0.0018
 5560TIP3   OH240874   0.097   3.828   0.068  0.4603 -0.4444  0.5639
 5560TIP3    H140875   0.008   3.844   0.101  1.2447 -0.6208  2.9181
 5560TIP3    H240876   0.083   3.783  -0.016 -1.6695  1.9047 -0.5034
 5561TIP3   OH240877   6.293   4.221   0.409 -0.1985  0.2614  0.1991
 5561TIP3    H140878   6.265   4.130   0.410  0.1130  0.1404 -0.8828
 5561TIP3    H240879   6.300   4.243   0.316 -1.7929  1.8493  0.3883
 5562TIP3   OH240880   3.168   3.393   1.281 -0.0835 -0.2662  0.3146
 5562TIP3    H140881   3.132   3.437   1.358  0.4900  0.4585  0.1845
 5562TIP3    H240882   3.096   3.397   1.217  0.1036  0.9466  0.1414
 5563TIP3   OH240883   1.077   5.806   2.004  0.4083 -0.0780 -0.0910
 5563TIP3    H140884   1.106   5.715   1.994  2.4149  0.3964  1.0273
 5563TIP3    H240885   1.039   5.810   2.092 -1.2802 -0.1869 -0.7673
 5564TIP3   OH240886   4.530   3.106   8.829  0.2279 -0.1944  0.2437
 5564TIP3    H140887   4.557   3.098   8.920 -0.4492 -0.2628  0.4453
 5564TIP3    H240888   4.608   3.135   8.783  0.2043  1.2605  1.0785
 5565TIP3   OH240889   0.736   3.098   0.554 -0.1848 -0.1762 -0.9125
 5565TIP3    H140890   0.755   3.004   0.549 -0.7000 -0.4828  1.7273
 5565TIP3    H240891   0.642   3.103   0.566 -0.4530  0.8454 -2.9110
 5566TIP3   OH240892   1.684   6.773   2.738 -0.3172 -0.1146 -0.0521
 5566TIP3    H140893   1.659   6.839   2.673 -1.7424  0.9329  1.4475
 5566TIP3    H240894   1.653   6.690   2.702 -3.3186  0.7439  0.2759
 5567TIP3   OH240895   3.938   6.383   7.852  0.0820 -0.3261 -0.4345
 5567TIP3    H140896   3.999   6.457   7.857  0.0644 -0.2947 -0.7112
 5567TIP3    H240897   3.856   6.422   7.822 -0.6100 -0.0387  1.6180
 5568TIP3   OH240898   2.702   0.010   0.208 -0.7453 -0.0272  0.9550
 5568TIP3    H140899   2.620  -0.028   0.241 -0.8317 -1.0230 -0.3056
 5568TIP3    H240900   2.743  -0.061   0.159  1.1202  0.3278  1.9306
 5569TIP3   OH240901   3.775   0.560   0.127 -0.2134  0.5885 -0.5378
 5569TIP3    H140902   3.745   0.469   0.121  0.2096  0.4073  0.1110
 5569TIP3    H240903   3.870   0.554   0.135 -0.3601  0.9602  2.2079
 5570TIP3   OH240904   4.239   6.222   2.998  0.2329  0.1728 -0.2435
 5570TIP3    H140905   4.300   6.160   2.959  0.6102 -0.6095  1.4870
 5570TIP3    H240906   4.258   6.219   3.092 -0.8781  1.6758  0.0750
 5571TIP3   OH240907   1.279   4.624   7.672  0.0359  0.1470  0.3887
 5571TIP3    H140908   1.228   4.689   7.624  0.2096  0.2292  0.3141
 5571TIP3    H240909   1.216   4.582   7.730 -0.5858 -1.1975 -1.1731
 5572TIP3   OH240910   7.118   2.393   9.609 -0.0939  0.1140  1.3453
 5572TIP3    H140911   7.047   2.370   9.668 -1.7015 -0.6047 -0.7468
 5572TIP3    H240912   7.078   2.392   9.522  2.5891 -0.8691  0.0164
 5573TIP3   OH240913   3.208   3.708   1.101 -0.1111  0.1131  0.1653
 5573TIP3    H140914   3.122   3.700   1.142 -0.1663  1.4935  0.3623
 5573TIP3    H240915   3.199   3.664   1.017 -0.6782 -0.7070  0.6390
 5574TIP3   OH240916   5.166   5.432   2.555 -0.1393  0.3837  0.3157
 5574TIP3    H140917   5.160   5.433   2.651 -0.4250 -0.3197  0.3112
 5574TIP3    H240918   5.078   5.455   2.525 -0.8351 -2.0970  0.2425
 5575TIP3   OH240919   0.806   6.735   1.943  0.1696  0.0817  0.3485
 5575TIP3    H140920   0.719   6.730   1.904 -0.3409  1.0448  1.3188
 5575TIP3    H240921   0.810   6.822   1.984  1.8512  0.3534 -0.2856
 5576TIP3   OH240922   2.252   0.224   1.854 -0.2446  0.6895 -0.3341
 5576TIP3    H140923   2.292   0.286   1.915 -0.1467  0.8195 -0.5318
 5576TIP3    H240924   2.292   0.140   1.876  0.2196  0.8364 -0.6003
 5577TIP3   OH240925   0.554   2.855   1.410 -0.5199 -0.5911 -0.0319
 5577TIP3    H140926   0.598   2.862   1.495  2.0459 -0.3566 -1.2940
 5577TIP3    H240927   0.499   2.933   1.405  1.7622  1.1452  0.1498
 5578TIP3   OH240928   6.050   5.783   0.351  0.0871  0.0215 -0.3784
 5578TIP3    H140929   6.112   5.737   0.407 -0.4537 -0.8560 -0.4814
 5578TIP3    H240930   6.105   5.827   0.286  0.5801 -1.8671 -1.3259
 5579TIP3   OH240931   0.483   2.697   0.535 -0.0392  0.0610 -0.6590
 5579TIP3    H140932   0.508   2.686   0.626  0.1122 -0.6154 -0.7777
 5579TIP3    H240933   0.409   2.757   0.538  0.6919  0.9636 -0.1917
 5580TIP3   OH240934   4.802   1.911   9.659  0.5955 -0.2442 -0.3861
 5580TIP3    H140935   4.890   1.874   9.654  0.5559 -0.8816  2.0635
 5580TIP3    H240936   4.813   2.003   9.636  1.7229 -0.5456 -1.1008
 5581TIP3   OH240937   1.192   1.747   7.983 -0.0980  0.2437 -0.1198
 5581TIP3    H140938   1.254   1.733   8.055 -0.9189 -1.0214  0.3871
 5581TIP3    H240939   1.162   1.659   7.961  1.2198  0.4084 -3.0360
 5582TIP3   OH240940   7.201   4.066   8.419  0.1545 -0.3343  0.0441
 5582TIP3    H140941   7.216   3.995   8.482 -2.0546 -1.4913 -0.6114
 5582TIP3    H240942   7.263   4.134   8.445  1.3401 -1.9065  1.6347
 5583TIP3   OH240943   3.036   6.062   7.330  0.2972  0.5664  0.3196
 5583TIP3    H140944   3.080   6.118   7.393 -1.2440  1.1757  0.8945
 5583TIP3    H240945   3.106   6.027   7.276  1.6155  0.4006  2.0606
 5584TIP3   OH240946   1.945   4.873   0.685  0.3632 -0.1585  0.2656
 5584TIP3    H140947   1.885   4.867   0.759  0.6984 -0.5722  0.5085
 5584TIP3    H240948   1.993   4.955   0.699 -0.1897  0.2132  0.0284
 5585TIP3   OH240949   6.858   0.994   9.417  0.1704 -0.1382  0.0854
 5585TIP3    H140950   6.802   1.006   9.494  0.0555  1.5056 -0.2097
 5585TIP3    H240951   6.859   0.899   9.402 -0.0996 -0.4528  1.8700
 5586TIP3   OH240952   4.596   6.771   9.706  0.2176  0.2906 -0.1290
 5586TIP3    H140953   4.644   6.727   9.636 -0.9721  0.1997 -0.9190
 5586TIP3    H240954   4.640   6.855   9.717  0.6148  0.1681 -0.7640
 5587TIP3   OH240955   0.227   6.395   2.012  0.0785  0.4040 -0.7584
 5587TIP3    H140956   0.203   6.470   2.065 -0.1570  0.5281 -1.0363
 5587TIP3    H240957   0.282   6.431   1.942  1.9434 -0.0138  0.4345
 5588TIP3   OH240958   3.580   5.935   1.883  0.0362 -0.2641 -0.1216
 5588TIP3    H140959   3.524   5.865   1.850 -0.3261  0.5276 -1.2441
 5588TIP3    H240960   3.534   6.016   1.860 -0.2954  0.3620  2.4756
 5589TIP3   OH240961   2.775   2.699   1.142 -0.4767 -0.5374  0.5247
 5589TIP3    H140962   2.809   2.756   1.212 -0.9787 -0.3267  0.5995
 5589TIP3    H240963   2.778   2.611   1.179  0.7854 -0.6452  0.2313
 5590TIP3   OH240964   1.631   0.440   2.786 -0.0372 -0.1757 -0.1393
 5590TIP3    H140965   1.635   0.375   2.856 -0.9019  1.0806  1.1329
 5590TIP3    H240966   1.547   0.483   2.799 -0.3924 -0.1582 -2.2206
 5591TIP3   OH240967   2.250   2.167   1.496  0.1983 -0.2258  0.3048
 5591TIP3    H140968   2.176   2.164   1.557 -1.7213 -0.4464 -1.8634
 5591TIP3    H240969   2.239   2.089   1.441  0.9074  0.7375 -1.2919
 5592TIP3   OH240970   5.172   2.555   9.681  0.1704  0.6633 -0.2312
 5592TIP3    H140971   5.184   2.632   9.625 -0.3369  1.9803  1.3716
 5592TIP3    H240972   5.079   2.555   9.703  0.1039 -0.6192 -0.4727
 5593TIP3   OH240973   1.121   4.779   0.179 -0.3977  0.5091  0.2913
 5593TIP3    H140974   1.146   4.696   0.219 -0.3110  0.5336  0.2903
 5593TIP3    H240975   1.103   4.837   0.253  0.7339  0.8495  0.3243
 5594TIP3   OH240976   5.518   3.400   9.567  0.2394  0.0324  0.3255
 5594TIP3    H140977   5.606   3.364   9.566  0.2787  0.1361  0.0981
 5594TIP3    H240978   5.466   3.336   9.616  0.2768 -0.4095 -0.2016
 5595TIP3   OH240979   6.490   2.833   0.805  0.2435  0.3797 -0.3472
 5595TIP3    H140980   6.481   2.742   0.776  0.9484  0.1741  0.0295
 5595TIP3    H240981   6.484   2.828   0.900  1.0736  0.6082 -0.2684
 5596TIP3   OH240982   0.162   6.109   7.393  0.0784  0.2312  0.1698
 5596TIP3    H140983   0.213   6.174   7.344 -0.1350  0.4576  0.2474
 5596TIP3    H240984   0.172   6.028   7.342  2.2637 -0.2794  1.2908
 5597TIP3   OH240985   0.466   0.579   8.337 -0.4604  0.0139 -1.0556
 5597TIP3    H140986   0.516   0.546   8.411 -2.3594  1.1837  0.9006
 5597TIP3    H240987   0.445   0.502   8.285  1.2501 -0.7920 -0.6175
 5598TIP3   OH240988   0.382   5.819   7.037  0.2079  0.1327 -0.0086
 5598TIP3    H140989   0.370   5.810   6.942 -2.4389 -1.8100  0.3956
 5598TIP3    H240990   0.358   5.911   7.055  1.0360  0.6155 -1.2287
 5599TIP3   OH240991   6.711   4.992   0.097 -0.2306  0.1311  0.3514
 5599TIP3    H140992   6.790   4.977   0.045 -0.3390 -3.1433  0.8811
 5599TIP3    H240993   6.731   5.069   0.151  1.4822  1.0537 -1.4859
 5600TIP3   OH240994   0.427   1.497   1.150 -0.1431  0.3642  0.3896
 5600TIP3    H140995   0.520   1.481   1.167 -0.0205  0.4726 -0.1745
 5600TIP3    H240996   0.391   1.520   1.236  0.4338  0.6958  0.5505
 5601TIP3   OH240997   6.205   4.967   8.060 -0.0886  0.0730  0.1233
 5601TIP3    H140998   6.241   4.883   8.030 -0.6523 -0.8759  1.9405
 5601TIP3    H240999   6.265   4.995   8.129 -0.2442  0.8843 -0.0591
 5602TIP3   OH241000   3.813   2.841   8.757  0.0663 -0.1981 -0.7255
 5602TIP3    H141001   3.903   2.849   8.725 -0.2815  1.3526 -1.3921
 5602TIP3    H241002   3.813   2.890   8.840 -0.0847 -0.4711 -0.5638
 5603TIP3   OH241003   2.786   6.614   2.435  0.1773 -0.2887  0.3218
 5603TIP3    H141004   2.794   6.662   2.517 -0.4776  0.5989 -0.1156
 5603TIP3    H241005   2.720   6.662   2.386  0.5089 -0.8480 -0.6970
 5604TIP3   OH241006   2.583   2.907   9.455  0.3106  0.1526  0.0664
 5604TIP3    H141007   2.650   2.876   9.516 -1.6337 -3.0226  0.7804
 5604TIP3    H241008   2.629   2.916   9.371  2.0835  0.2808  1.0119
 5605TIP3   OH241009   3.029   5.182   0.776 -0.9786  0.1484  0.3640
 5605TIP3    H141010   3.077   5.167   0.694 -0.5338  2.1630  0.2142
 5605TIP3    H241011   3.097   5.202   0.840 -1.4059 -0.4201  1.0127
 5606TIP3   OH241012   1.280   2.091   8.241  0.2430  0.6679  0.9208
 5606TIP3    H141013   1.201   2.095   8.188  0.5688 -1.1826  0.2077
 5606TIP3    H241014   1.267   2.014   8.297  1.1431  0.8889  1.4560
 5607TIP3   OH241015   3.129   4.141   9.268 -0.5857  0.1649  0.0854
 5607TIP3    H141016   3.185   4.106   9.199  1.2686 -2.0758  2.4857
 5607TIP3    H241017   3.040   4.129   9.235  0.1956 -1.5858 -1.6108
 5608TIP3   OH241018   3.804   6.308   0.677  0.4796  0.2486 -0.7202
 5608TIP3    H141019   3.856   6.304   0.757 -0.4052  1.0477 -0.0841
 5608TIP3    H241020   3.809   6.219   0.641  0.1690 -0.3706  0.6948
 5609TIP3   OH241021   4.798   2.067   8.552  0.1041  0.0624 -0.4085
 5609TIP3    H141022   4.808   2.042   8.644 -2.3756 -1.9525 -0.5603
 5609TIP3    H241023   4.883   2.100   8.526  1.2584 -0.5878  2.2463
 5610TIP3   OH241024   5.638   3.192   1.753 -0.4339  0.6717 -0.1833
 5610TIP3    H141025   5.577   3.147   1.812  0.6891  0.9645  1.2569
 5610TIP3    H241026   5.679   3.121   1.704  0.1519  0.2206  0.9218
 5611TIP3   OH241027   1.790   1.316   1.363  0.4519 -0.3087 -0.3811
 5611TIP3    H141028   1.842   1.344   1.437 -0.1751  1.4285 -0.5529
 5611TIP3    H241029   1.842   1.247   1.321  1.9487  0.4208  0.2269
 5612TIP3   OH241030   6.609   3.351   9.217 -0.5209  0.5703  0.4354
 5612TIP3    H141031   6.534   3.295   9.198 -0.4669  0.5403  0.3054
 5612TIP3    H241032   6.662   3.347   9.137  0.5497 -0.8952  1.1583
 5613TIP3   OH241033   2.399   4.673   8.563 -0.7320 -0.3564  0.3495
 5613TIP3    H141034   2.377   4.584   8.536  0.7489 -0.4799 -0.5738
 5613TIP3    H241035   2.463   4.662   8.633 -0.3023 -0.0309  0.0154
 5614TIP3   OH241036   5.843   4.417   8.374  0.1613  0.1526 -0.0722
 5614TIP3    H141037   5.760   4.461   8.393 -1.4414 -2.3474 -0.8453
 5614TIP3    H241038   5.867   4.375   8.456  0.2574  0.2016 -0.0741
 5615TIP3   OH241039   4.899   3.118   9.419 -0.2249  0.4606 -0.6448
 5615TIP3    H141040   4.821   3.172   9.405  0.1592  0.8336 -1.3751
 5615TIP3    H241041   4.872   3.055   9.486 -1.3455  0.2031 -1.3059
 5616TIP3   OH241042   2.790   3.909   0.061 -0.0663 -0.1513 -0.2359
 5616TIP3    H141043   2.742   3.977   0.108 -2.4543 -1.7808 -0.1225
 5616TIP3    H241044   2.804   3.946  -0.026 -0.3683  0.8652  0.1292
 5617TIP3   OH241045   4.201   5.890   2.282  0.1474 -0.2579 -0.1342
 5617TIP3    H141046   4.109   5.903   2.306 -0.0629  1.9128 -1.7422
 5617TIP3    H241047   4.198   5.821   2.216 -0.1800 -0.9589  0.6019
 5618TIP3   OH241048   3.933   2.876   1.626  0.0521 -0.6269 -0.4434
 5618TIP3    H141049   4.019   2.836   1.618  0.8749  0.6453  1.2561
 5618TIP3    H241050   3.950   2.970   1.625 -1.5186 -0.3126 -1.7257
 5619TIP3   OH241051   1.249   1.638   9.128  0.1701  0.3516  0.3799
 5619TIP3    H141052   1.249   1.702   9.199  2.5144 -0.4509  1.2019
 5619TIP3    H241053   1.303   1.566   9.161  2.2674  0.4135 -2.5729
 5620TIP3   OH241054   0.514   4.616   1.804  0.0559 -0.0534 -0.3894
 5620TIP3    H141055   0.579   4.610   1.734  0.2142 -0.6699 -0.1914
 5620TIP3    H241056   0.435   4.576   1.768  0.3717 -1.0989  0.0540
 5621TIP3   OH241057   7.075   2.921   2.725 -0.3568 -0.3633 -0.3948
 5621TIP3    H141058   7.092   2.829   2.745 -1.1809 -0.1992  1.2335
 5621TIP3    H241059   7.149   2.948   2.671  0.2901 -1.7690 -0.2629
 5622TIP3   OH241060   3.997   2.585   0.090 -0.0812  0.4632 -0.1077
 5622TIP3    H141061   3.987   2.614   0.181  0.1987  2.3889 -0.6605
 5622TIP3    H241062   3.911   2.601   0.051  0.5703  2.3280 -0.8728
 5623TIP3   OH241063   7.157   0.627   9.914 -0.3130  0.3834 -0.4780
 5623TIP3    H141064   7.102   0.705   9.915 -0.8055  0.0412  0.5321
 5623TIP3    H241065   7.242   0.657   9.947 -0.6118  0.4264  0.2724
 5624TIP3   OH241066   0.207   3.207   0.909  1.0010 -0.0416  0.1366
 5624TIP3    H141067   0.128   3.234   0.957  0.1494 -2.8538  0.5174
 5624TIP3    H241068   0.256   3.288   0.896 -1.8833  1.8300 -0.0148
 5625TIP3   OH241069   6.998   4.678   8.194  0.3034 -0.3913  0.2228
 5625TIP3    H141070   6.955   4.633   8.121  0.0925 -0.2845  0.2813
 5625TIP3    H241071   6.929   4.687   8.260  0.0115  1.0751 -0.2381
 5626TIP3   OH241072   1.158   1.739   7.334 -0.6726  0.0912 -0.3620
 5626TIP3    H141073   1.171   1.685   7.256  0.9179 -0.4501  0.2375
 5626TIP3    H241074   1.170   1.678   7.407 -1.5075  0.7254  0.3291
 5627TIP3   OH241075   0.439   6.225   2.368  0.9343  0.0036  0.1573
 5627TIP3    H141076   0.449   6.278   2.289 -0.1354  0.2788  0.1920
 5627TIP3    H241077   0.514   6.166   2.367  2.9658  2.3760  0.8170
 5628TIP3   OH241078   4.676   4.441   1.035 -0.7134 -0.7135  0.1412
 5628TIP3    H141079   4.714   4.485   0.959  1.0167 -1.5085  0.5037
 5628TIP3    H241080   4.582   4.439   1.016 -0.4138 -0.2658 -1.6318
 5629TIP3   OH241081   4.648   3.276   0.600  0.4504 -0.1826  0.3589
 5629TIP3    H141082   4.587   3.342   0.634  1.1090 -0.0825  1.3985
 5629TIP3    H241083   4.664   3.303   0.510 -0.0289  0.5393  0.4743
 5630TIP3   OH241084   2.460   2.631   0.171  0.7216  0.0757 -0.3377
 5630TIP3    H141085   2.438   2.587   0.253  2.6985 -1.8958 -0.7825
 5630TIP3    H241086   2.378   2.672   0.143 -1.1536 -2.8829  0.3965
 5631TIP3   OH241087   2.596   0.727   8.240 -0.1259 -0.2663 -0.3965
 5631TIP3    H141088   2.611   0.634   8.257 -1.1938 -0.3643  0.1454
 5631TIP3    H241089   2.646   0.746   8.161  0.4008 -1.2129 -0.3043
 5632TIP3   OH241090   7.253   0.887   9.668  0.0670 -0.1347 -0.3561
 5632TIP3    H141091   7.178   0.836   9.638 -1.5840  1.3766  1.0344
 5632TIP3    H241092   7.272   0.855   9.756 -0.0051  0.6084 -0.0641
 5633TIP3   OH241093   0.173   0.878   9.927 -0.3708  0.6310 -0.0887
 5633TIP3    H141094   0.195   0.924  10.008  2.2414 -0.7739  0.1278
 5633TIP3    H241095   0.234   0.914   9.862  0.1914 -0.8658 -0.4420
 5634TIP3   OH241096   4.459   4.639   9.907 -0.7757  0.3257 -0.1632
 5634TIP3    H141097   4.516   4.621   9.982  1.4639  0.3388 -1.7770
 5634TIP3    H241098   4.457   4.735   9.901 -1.2092  0.3324  0.0528
 5635TIP3   OH241099   4.192   0.219   0.112  0.2119  0.3018 -0.6737
 5635TIP3    H141100   4.284   0.193   0.115  0.1571  0.1176 -0.5202
 5635TIP3    H241101   4.145   0.141   0.141 -0.0617  0.0509 -1.7405
 5636TIP3   OH241102   3.311   5.459   8.043 -0.0757  0.0738  0.5926
 5636TIP3    H141103   3.276   5.380   8.002 -0.8462  0.0854  1.2312
 5636TIP3    H241104   3.405   5.455   8.024 -0.4310  0.2597 -1.4946
 5637TIP3   OH241105   2.653   3.812   9.627 -0.3696  0.4099 -0.0935
 5637TIP3    H141106   2.736   3.828   9.672  0.5544 -0.8885 -1.2874
 5637TIP3    H241107   2.615   3.900   9.615  0.4069  0.9525  1.1991
 5638TIP3   OH241108   0.988   1.463   7.662  0.1503 -0.1303 -0.1079
 5638TIP3    H141109   0.966   1.518   7.737 -0.1274 -0.9784  0.4520
 5638TIP3    H241110   0.907   1.460   7.609 -0.1031 -0.6507  0.2919
 5639TIP3   OH241111   0.804   5.351   1.753 -0.1828  0.0595 -0.4581
 5639TIP3    H141112   0.765   5.429   1.714  0.0446  0.0996 -0.6031
 5639TIP3    H241113   0.886   5.339   1.706 -1.2736 -1.6034 -2.0859
 5640TIP3   OH241114   4.618   4.159   0.255 -0.4120 -0.2110  0.5955
 5640TIP3    H141115   4.595   4.241   0.300  1.7879  0.9465 -0.2283
 5640TIP3    H241116   4.568   4.163   0.173  0.8736  1.1738 -0.1809
 5641TIP3   OH241117   4.518   4.450   7.398  0.5622 -0.4423  0.1939
 5641TIP3    H141118   4.450   4.430   7.334  1.1037 -1.9523  0.0531
 5641TIP3    H241119   4.599   4.449   7.349  0.7874  0.5541  0.5162
 5642TIP3   OH241120   1.409   2.880   0.349 -0.6457  0.0134 -0.1468
 5642TIP3    H141121   1.353   2.827   0.293  0.2186  0.0089 -1.0376
 5642TIP3    H241122   1.499   2.854   0.325 -0.2569 -0.0486  1.3103
 5643TIP3   OH241123   1.216   1.321   2.708  0.2622  0.4184  0.2220
 5643TIP3    H141124   1.277   1.264   2.662  1.9990  1.1566  1.5268
 5643TIP3    H241125   1.132   1.275   2.702  0.7115 -0.2444 -2.2927
 5644TIP3   OH241126   4.627   2.386   8.192  0.2328 -0.0652  0.2180
 5644TIP3    H141127   4.682   2.314   8.222  3.1299  0.9851 -2.0555
 5644TIP3    H241128   4.538   2.351   8.192  0.9719 -2.2436  2.9941
 5645TIP3   OH241129   0.922   2.623   7.497  0.3785  0.0847 -0.1605
 5645TIP3    H141130   0.832   2.649   7.515  1.0086  1.3979  1.4420
 5645TIP3    H241131   0.972   2.704   7.502  1.6836 -0.6428 -0.8024
 5646TIP3   OH241132   6.596   0.574   9.108  0.3553 -0.6104 -0.3687
 5646TIP3    H141133   6.690   0.558   9.100  0.2849 -1.0514 -0.3644
 5646TIP3    H241134   6.565   0.502   9.162  0.3490  0.6798  1.4314
 5647TIP3   OH241135   1.013   3.728   8.199  0.5924 -0.2518  0.5420
 5647TIP3    H141136   0.938   3.677   8.230  0.2075 -0.1914 -0.2613
 5647TIP3    H241137   0.978   3.815   8.182  0.8438 -0.2205  0.1731
 5648TIP3   OH241138   7.170   1.268   0.501 -0.0222  0.5704  0.2856
 5648TIP3    H141139   7.146   1.220   0.580  0.9810 -1.5748 -0.6308
 5648TIP3    H241140   7.263   1.288   0.513 -0.3791  2.1661  0.5618
 5649TIP3   OH241141   1.843   7.003   7.748  0.6160  0.6596  0.9053
 5649TIP3    H141142   1.878   6.923   7.787 -0.4111 -0.2484  0.0388
 5649TIP3    H241143   1.913   7.037   7.693  0.5408 -0.5277  0.0381
 5650TIP3   OH241144   0.176   0.152   9.440 -0.1731 -0.1363 -0.9653
 5650TIP3    H141145   0.223   0.191   9.514  1.3295 -0.3306 -1.7699
 5650TIP3    H241146   0.172   0.059   9.460 -0.0463 -0.1445 -0.9767
 5651TIP3   OH241147   1.494   4.863   1.312 -0.8151  0.5642  0.0556
 5651TIP3    H141148   1.431   4.801   1.275  0.2712 -0.0386 -0.8619
 5651TIP3    H241149   1.479   4.945   1.264  0.0660  0.0005 -1.2539
 5652TIP3   OH241150   5.131   6.825   7.415 -0.2419 -0.1851  0.7758
 5652TIP3    H141151   5.191   6.792   7.483  2.0270  2.0748  0.0301
 5652TIP3    H241152   5.103   6.910   7.448  0.8234  0.9113 -0.9877
 5653TIP3   OH241153   3.616   3.114   1.582  0.4774 -0.0072 -0.5710
 5653TIP3    H141154   3.538   3.098   1.635  0.2205  1.2344 -0.5389
 5653TIP3    H241155   3.657   3.028   1.572  0.1241 -0.3932  1.0057
 5654TIP3   OH241156   1.851   2.912   8.613  0.5932 -0.0231 -0.1320
 5654TIP3    H141157   1.783   2.953   8.666  0.7737 -0.3540  0.3679
 5654TIP3    H241158   1.903   2.984   8.579  0.1043  0.2232 -0.3664
 5655TIP3   OH241159   1.601   6.276   2.107 -0.3434 -0.3402 -0.5685
 5655TIP3    H141160   1.543   6.224   2.051 -0.1156 -0.6659 -0.5066
 5655TIP3    H241161   1.565   6.364   2.103 -0.5835 -0.4488 -0.8848
 5656TIP3   OH241162   6.849   2.826   0.669  0.1535 -0.5301  0.1431
 5656TIP3    H141163   6.836   2.741   0.629  0.2288  0.0170 -1.0704
 5656TIP3    H241164   6.791   2.885   0.622  0.9139  0.3069  0.2223
 5657TIP3   OH241165   0.963   3.406   8.160 -0.0786  0.2268 -0.1425
 5657TIP3    H141166   0.949   3.427   8.068  1.3562  0.1400 -0.4124
 5657TIP3    H241167   1.056   3.426   8.175  0.4768 -2.5067  0.5159
 5658TIP3   OH241168   1.804   4.536   2.629  0.2919 -0.2899  0.2211
 5658TIP3    H141169   1.850   4.570   2.706  1.5599 -0.2101 -0.5578
 5658TIP3    H241170   1.738   4.603   2.609  1.4570  0.7901 -0.1108
 5659TIP3   OH241171   0.243   0.524   0.542  0.8768 -0.9047 -0.3938
 5659TIP3    H141172   0.245   0.607   0.494  0.7860  0.4326  1.7941
 5659TIP3    H241173   0.225   0.458   0.475 -0.8220  1.0259 -1.9595
 5660TIP3   OH241174   4.985   3.664   7.303  0.2368 -0.2602  0.1873
 5660TIP3    H141175   5.033   3.745   7.320 -0.5022  0.1281  0.4635
 5660TIP3    H241176   5.035   3.621   7.234  1.1878 -0.0496  0.7194
 5661TIP3   OH241177   6.664   1.069   8.295  0.1410  0.1577 -0.0694
 5661TIP3    H141178   6.593   1.128   8.319 -0.4661 -0.2616 -0.7789
 5661TIP3    H241179   6.695   1.034   8.378  1.1338  2.1317  0.4636
 5662TIP3   OH241180   0.803   0.762   0.998 -0.2660  0.7255 -0.2772
 5662TIP3    H141181   0.823   0.716   1.079 -2.2084  1.6673  0.8036
 5662TIP3    H241182   0.770   0.694   0.939 -2.2121  0.5233  0.9740
 5663TIP3   OH241183   4.423   3.214   9.764 -0.4318  0.2452  0.6287
 5663TIP3    H141184   4.448   3.234   9.674  0.8662 -1.4582  0.5472
 5663TIP3    H241185   4.499   3.169   9.800 -0.8785  1.0101  2.6421
 5664TIP3   OH241186   6.640   6.604   9.031 -0.4330  0.5736 -0.0838
 5664TIP3    H141187   6.669   6.543   8.963  0.7668  1.1685 -0.1312
 5664TIP3    H241188   6.560   6.564   9.066 -0.6457 -0.1323 -1.3036
 5665TIP3   OH241189   3.206   1.860   1.770  0.0090 -0.1513 -0.2345
 5665TIP3    H141190   3.214   1.832   1.679  2.0947  0.0346 -0.1554
 5665TIP3    H241191   3.198   1.778   1.820  1.7652 -0.4340 -0.3662
 5666TIP3   OH241192   0.736   4.002   7.574  0.2658  0.4406 -0.3356
 5666TIP3    H141193   0.679   4.009   7.497 -0.0884  0.8033 -0.0413
 5666TIP3    H241194   0.794   4.077   7.568  0.6832  0.1047 -0.6021
 5667TIP3   OH241195   4.205   2.198   2.885  0.2628  0.2475  0.0400
 5667TIP3    H141196   4.217   2.292   2.898  0.9397  0.2975 -0.8479
 5667TIP3    H241197   4.232   2.182   2.794  0.6088 -0.8817  0.3218
 5668TIP3   OH241198   6.653   2.102   9.642  0.5395 -0.3670 -0.0411
 5668TIP3    H141199   6.674   2.122   9.550 -1.8946 -0.2378 -0.6235
 5668TIP3    H241200   6.670   2.008   9.650  3.1031  0.0296  0.1270
 5669TIP3   OH241201   1.040   4.894   7.803  0.5685 -0.0337 -0.4216
 5669TIP3    H141202   1.099   4.851   7.864  0.3767 -0.9408 -0.8566
 5669TIP3    H241203   1.086   4.891   7.719  0.1857 -0.1859 -0.6319
 5670TIP3   OH241204   6.959   7.039   7.516  0.8213 -0.2786 -0.0388
 5670TIP3    H141205   7.031   7.102   7.516  0.2535  0.3786 -0.2974
 5670TIP3    H241206   6.891   7.080   7.569  1.4769 -1.9082  2.2343
 5671TIP3   OH241207   5.105   6.109   8.593 -0.1300 -0.7137 -0.1296
 5671TIP3    H141208   5.046   6.049   8.547  0.9460 -2.5252  0.7389
 5671TIP3    H241209   5.098   6.083   8.685  0.1773  0.6994  0.3144
 5672TIP3   OH241210   2.737   0.389   1.345  0.3707 -0.3544 -0.4769
 5672TIP3    H141211   2.652   0.346   1.355  0.1713  0.0563 -0.3948
 5672TIP3    H241212   2.717   0.474   1.307  0.5549  0.4499  1.1330
 5673TIP3   OH241213   0.057   6.832   7.654 -0.1864 -0.0301  0.0019
 5673TIP3    H141214  -0.030   6.853   7.689 -0.6977 -1.7749 -0.1353
 5673TIP3    H241215   0.042   6.756   7.598  1.2745  0.3168 -0.8852
 5674TIP3   OH241216   4.175   1.120   1.172 -0.3204 -0.0153 -0.6550
 5674TIP3    H141217   4.168   1.199   1.226  2.2943 -0.8361  1.0551
 5674TIP3    H241218   4.214   1.151   1.090  4.0268  0.1851  1.2480
 5675TIP3   OH241219   5.806   2.008   1.624  0.5780  0.3243  0.4225
 5675TIP3    H141220   5.900   2.018   1.641  0.8290 -0.1469 -0.6461
 5675TIP3    H241221   5.766   2.009   1.711  1.5475  0.7212  0.8811
 5676TIP3   OH241222   5.468   4.641   9.130 -0.7653  0.0288  0.2762
 5676TIP3    H141223   5.392   4.694   9.152 -1.1030 -0.2113 -0.3052
 5676TIP3    H241224   5.436   4.578   9.066 -0.1333 -0.2304  0.2078
 5677TIP3   OH241225   5.367   3.410   1.127  0.1847 -0.0066 -0.1496
 5677TIP3    H141226   5.460   3.432   1.127 -0.0300  1.0488  1.4380
 5677TIP3    H241227   5.365   3.315   1.116  1.3879  0.0588 -1.1701
 5678TIP3   OH241228   1.172   3.516   2.397  0.4277 -0.2557 -0.6014
 5678TIP3    H141229   1.189   3.535   2.305 -0.2033  0.2133 -0.6231
 5678TIP3    H241230   1.165   3.603   2.438 -1.1489 -0.4401 -0.4547
 5679TIP3   OH241231   4.106   4.495   2.588 -0.0841 -0.2729  0.1635
 5679TIP3    H141232   4.133   4.578   2.627  0.4155 -0.3678  0.0383
 5679TIP3    H241233   4.012   4.491   2.602 -0.0013 -0.0338  0.8306
 5680TIP3   OH241234   2.497   2.074   9.640 -0.2354 -0.1710  0.3191
 5680TIP3    H141235   2.455   2.116   9.715 -0.2500 -0.6733  0.5948
 5680TIP3    H241236   2.470   1.982   9.645 -1.4717  0.0622 -1.1445
 5681TIP3   OH241237   0.138   2.592   1.630  0.1913  0.1060  0.6090
 5681TIP3    H141238   0.094   2.672   1.601 -3.2232 -1.0670  2.1564
 5681TIP3    H241239   0.143   2.537   1.551  1.1866  1.1705 -0.1135
 5682TIP3   OH241240   5.368   0.594   2.320  0.2156 -0.4342 -0.0393
 5682TIP3    H141241   5.309   0.541   2.267  0.3783 -0.6725  0.0126
 5682TIP3    H241242   5.313   0.628   2.390 -0.5478  1.7888 -1.6070
 5683TIP3   OH241243   7.009   1.365   9.546  0.1395 -0.3349 -0.0624
 5683TIP3    H141244   7.076   1.296   9.546  0.9929  0.4558 -1.7222
 5683TIP3    H241245   7.028   1.416   9.625  0.6551 -0.8996  0.1898
 5684TIP3   OH241246   4.916   5.442   9.334 -0.3319  0.0686  0.0692
 5684TIP3    H141247   4.909   5.422   9.241  0.2271 -0.7732  0.1955
 5684TIP3    H241248   4.928   5.357   9.376 -0.6373  0.4349  0.9179
 5685TIP3   OH241249   5.582   1.292   7.748  0.1303  0.1010  0.2193
 5685TIP3    H141250   5.661   1.249   7.716  1.7007  2.4486  0.6660
 5685TIP3    H241251   5.529   1.221   7.783  2.6038 -1.4595  1.0854
 5686TIP3   OH241252   6.396   0.428   2.099  0.1868 -0.0267  0.1519
 5686TIP3    H141253   6.300   0.423   2.095  0.1536  0.2728  0.5651
 5686TIP3    H241254   6.421   0.466   2.015 -0.2813  3.0765  1.2889
 5687TIP3   OH241255   1.438   5.683   7.239 -0.4894 -0.2021 -0.0547
 5687TIP3    H141256   1.428   5.714   7.329 -1.1286  0.3308 -0.3062
 5687TIP3    H241257   1.403   5.594   7.240 -0.2905 -0.2802  0.2665
 5688TIP3   OH241258   5.811   2.946   1.885  0.2608  0.3428  0.4712
 5688TIP3    H141259   5.906   2.961   1.881  0.2233  0.2970 -0.9194
 5688TIP3    H241260   5.802   2.851   1.875  0.0728  0.3050  0.9556
 5689TIP3   OH241261   0.649   5.510   0.769 -0.0587  0.4970  0.6326
 5689TIP3    H141262   0.641   5.605   0.761  1.0084  0.5323 -0.3845
 5689TIP3    H241263   0.710   5.497   0.842  1.5300  0.7096 -0.5864
 5690TIP3   OH241264   5.521   2.237   8.547  0.3933 -0.0265  0.0530
 5690TIP3    H141265   5.454   2.181   8.585  0.6184  0.4796  1.2465
 5690TIP3    H241266   5.472   2.308   8.505  0.0524 -1.6102 -2.4379
 5691TIP3   OH241267   4.211   4.439   1.967 -0.0830 -0.0683  0.3979
 5691TIP3    H141268   4.287   4.415   1.913  0.7750  2.2588  0.4640
 5691TIP3    H241269   4.217   4.380   2.042  1.1435 -0.5353 -0.0275
 5692TIP3   OH241270   1.456   4.078   7.951 -0.6164  0.5638  0.2814
 5692TIP3    H141271   1.474   3.986   7.933  0.0267  0.6127  0.6364
 5692TIP3    H241272   1.487   4.092   8.040  0.1941  1.3416 -0.0965
 5693TIP3   OH241273   4.141   5.456   1.551 -0.2627 -0.3786 -0.2013
 5693TIP3    H141274   4.065   5.397   1.549 -1.0238  0.5745 -0.5535
 5693TIP3    H241275   4.154   5.477   1.643 -2.5107  1.9654 -0.2728
 5694TIP3   OH241276   4.113   1.153   9.843 -0.4024 -0.1011 -0.0885
 5694TIP3    H141277   4.067   1.099   9.779 -0.2348 -0.1137 -0.1982
 5694TIP3    H241278   4.202   1.118   9.844 -0.0514  0.7367 -0.8002
 5695TIP3   OH241279   3.678   5.966   2.399  0.3705 -0.5653  0.0030
 5695TIP3    H141280   3.687   5.971   2.494 -2.3922 -0.7463  0.3512
 5695TIP3    H241281   3.762   5.932   2.368  1.8463  0.8150  2.2088
 5696TIP3   OH241282   3.573   5.391   7.258  0.4511 -0.1847  0.0943
 5696TIP3    H141283   3.619   5.308   7.248  2.4502  0.7836  0.7447
 5696TIP3    H241284   3.620   5.437   7.328 -0.5427  1.5215 -0.2927
 5697TIP3   OH241285   1.047   5.816   9.180 -0.6740  0.1245  0.4844
 5697TIP3    H141286   1.000   5.864   9.248  0.8140  1.3645  0.6889
 5697TIP3    H241287   1.101   5.882   9.137 -0.8632 -0.8094 -1.2882
 5698TIP3   OH241288   1.766   2.634   8.931 -0.4323  0.2933 -0.2470
 5698TIP3    H141289   1.818   2.659   8.855  2.6787  1.9485  2.1996
 5698TIP3    H241290   1.711   2.711   8.948  0.6033  0.9043  0.4725
 5699TIP3   OH241291   0.851   4.359   0.816 -0.3923 -0.4011 -0.4767
 5699TIP3    H141292   0.925   4.418   0.831 -1.4371  0.8914 -0.2774
 5699TIP3    H241293   0.883   4.298   0.750  0.8837  0.0660 -0.3281
 5700TIP3   OH241294   6.423   6.699   9.933  0.1131 -0.2934  0.2824
 5700TIP3    H141295   6.501   6.668   9.887 -0.0015 -1.4632  0.8444
 5700TIP3    H241296   6.358   6.712   9.863  1.1556  1.9207 -0.3417
 5701TIP3   OH241297   0.797   3.977   0.252  0.6284 -0.5308  0.0235
 5701TIP3    H141298   0.768   3.901   0.202 -0.7763  0.2668 -0.4141
 5701TIP3    H241299   0.717   4.018   0.283  1.3595  0.8065  0.2145
 5702TIP3   OH241300   1.148   5.772   1.636  0.3600 -0.6925  0.0169
 5702TIP3    H141301   1.220   5.776   1.699  0.2893 -2.9797  0.3602
 5702TIP3    H241302   1.152   5.682   1.602 -1.3313 -0.3627 -1.1713
 5703TIP3   OH241303   1.455   1.943   2.029 -0.3555  0.2895  0.0954
 5703TIP3    H141304   1.453   1.852   2.000  1.9279 -0.0709  0.9130
 5703TIP3    H241305   1.468   1.993   1.948  2.2481 -0.4400 -0.0175
 5704TIP3   OH241306   6.552   7.056   1.051  0.3363  0.1915 -0.6538
 5704TIP3    H141307   6.629   7.112   1.046  0.4970 -0.0386 -0.8168
 5704TIP3    H241308   6.521   7.066   1.141  1.1838 -0.5175 -0.2592
 5705TIP3   OH241309   6.601   2.180   9.099  0.1450 -0.1962  0.7786
 5705TIP3    H141310   6.524   2.236   9.113 -1.1865 -1.9130  0.5971
 5705TIP3    H241311   6.644   2.217   9.023 -0.1737  1.1290  1.2140
 5706TIP3   OH241312   3.254   4.733   1.908  0.1107 -0.2760 -0.3996
 5706TIP3    H141313   3.327   4.785   1.941  1.4422  0.2255 -3.7867
 5706TIP3    H241314   3.223   4.684   1.984  4.1372 -0.7612  1.1291
 5707TIP3   OH241315   3.750   0.133   8.559  0.5451 -0.1791 -0.4684
 5707TIP3    H141316   3.675   0.143   8.617  0.3085  0.7624 -0.9231
 5707TIP3    H241317   3.825   0.123   8.618  0.2653  0.4492  0.0053
 5708TIP3   OH241318   3.175   5.388   7.772  0.3507 -0.4672 -0.5203
 5708TIP3    H141319   3.218   5.322   7.718 -0.1946 -1.0476 -0.2584
 5708TIP3    H241320   3.135   5.448   7.708 -0.7011 -1.4185 -0.7860
 5709TIP3   OH241321   2.398   6.319   0.525  0.3631 -0.1258  0.6470
 5709TIP3    H141322   2.361   6.242   0.568 -2.1409  0.8874  0.4908
 5709TIP3    H241323   2.435   6.286   0.443 -1.6545 -1.0527  0.0612
 5710TIP3   OH241324   0.567   3.346   9.908 -0.0944 -0.0227 -0.2904
 5710TIP3    H141325   0.603   3.352   9.996  2.5036  2.2065 -1.3748
 5710TIP3    H241326   0.531   3.433   9.891 -0.3118 -0.3336 -1.5211
 5711TIP3   OH241327   6.171   5.422   7.108 -0.1005 -0.2759  0.0858
 5711TIP3    H141328   6.250   5.476   7.101 -1.0530  1.2866  0.8472
 5711TIP3    H241329   6.141   5.411   7.018 -0.0419  0.7426 -0.0724
 5712TIP3   OH241330   1.903   4.924   1.008 -0.0529 -0.3709  0.3695
 5712TIP3    H141331   1.952   5.005   1.018 -0.1847 -0.3564  1.0018
 5712TIP3    H241332   1.885   4.896   1.098 -0.1976 -0.9854  0.1589
 5713TIP3   OH241333   0.769   1.705   9.711 -0.2016 -0.3166 -0.3987
 5713TIP3    H141334   0.735   1.699   9.800 -1.4927 -0.8585 -0.9104
 5713TIP3    H241335   0.714   1.771   9.669  1.0736  0.7125 -0.5249
 5714TIP3   OH241336   7.096   5.035   0.831 -0.2200  0.5146  0.1944
 5714TIP3    H141337   7.049   5.118   0.823  0.3399  0.8056 -0.0713
 5714TIP3    H241338   7.032   4.969   0.802 -0.7096  0.8313  0.5344
 5715TIP3   OH241339   6.611   0.780   0.134 -0.2450  0.9085  0.3072
 5715TIP3    H141340   6.667   0.846   0.175 -0.8164  1.2095  0.6119
 5715TIP3    H241341   6.529   0.825   0.118 -0.4470  0.4296 -0.0154
 5716TIP3   OH241342   5.170   0.226   9.253 -0.2523  0.0736 -0.0113
 5716TIP3    H141343   5.210   0.305   9.289 -0.4942  0.7243 -1.1250
 5716TIP3    H241344   5.157   0.169   9.329 -0.3687  1.2323  0.8709
 5717TIP3   OH241345   4.583   4.336   8.311 -0.6175  0.1310  0.4435
 5717TIP3    H141346   4.609   4.270   8.246  1.6180  0.8288  0.5212
 5717TIP3    H241347   4.629   4.311   8.391  0.6572  1.9502  0.3616
 5718TIP3   OH241348   4.482   7.134   1.170  0.3396 -0.0516 -0.3799
 5718TIP3    H141349   4.523   7.063   1.120  1.8486  0.5892 -0.0920
 5718TIP3    H241350   4.515   7.123   1.259  1.9140  1.9274 -0.6459
 5719TIP3   OH241351   3.758   4.856   0.892  0.0184  0.1465  0.3517
 5719TIP3    H141352   3.786   4.896   0.810 -0.9712 -1.7598 -1.0025
 5719TIP3    H241353   3.692   4.792   0.865 -0.2798 -0.5834  2.6453
 5720TIP3   OH241354   0.442   3.722   0.554  0.0242  0.1446  0.1168
 5720TIP3    H141355   0.369   3.784   0.559 -0.3927 -0.2282 -1.0910
 5720TIP3    H241356   0.517   3.770   0.589 -0.7967  0.5126  1.4648
 5721TIP3   OH241357   3.923   6.872   7.631  0.0565  0.2526  0.1263
 5721TIP3    H141358   3.984   6.862   7.558 -1.7039  0.1161 -1.4082
 5721TIP3    H241359   3.902   6.965   7.632 -1.6087 -0.0683 -1.0415
 5722TIP3   OH241360   5.916   5.402   9.701  0.4329  0.3317 -0.1538
 5722TIP3    H141361   5.956   5.411   9.787 -2.0876  2.5894  0.9465
 5722TIP3    H241362   5.921   5.308   9.681  2.4641 -0.0134  1.7010
 5723TIP3   OH241363   1.617   4.124   1.393  0.1388 -0.1386  0.2303
 5723TIP3    H141364   1.703   4.114   1.352 -0.2674  0.0826 -0.6971
 5723TIP3    H241365   1.558   4.075   1.338 -0.6636  1.3574 -0.2973
 5724TIP3   OH241366   6.794   1.464   9.180  1.2924 -0.5601 -0.4098
 5724TIP3    H141367   6.703   1.439   9.161  0.6982 -0.2648  1.7739
 5724TIP3    H241368   6.789   1.509   9.264  3.5365 -0.8899 -0.0480
 5725TIP3   OH241369   4.972   6.071   9.298  0.2792 -0.2470 -0.5703
 5725TIP3    H141370   4.882   6.103   9.299  0.0229 -0.9429  0.7633
 5725TIP3    H241371   5.025   6.149   9.281 -0.5918  0.0462 -2.1420
 5726TIP3   OH241372   2.711   2.669   0.266 -0.5381 -0.1957  0.0097
 5726TIP3    H141373   2.723   2.574   0.275 -0.9015 -0.1310  1.3387
 5726TIP3    H241374   2.630   2.677   0.215 -0.1184 -0.5846 -0.7456
 5727TIP3   OH241375   3.994   3.273   2.581  0.0036 -0.2088  0.7884
 5727TIP3    H141376   4.031   3.245   2.498  1.9488 -1.1376  1.9007
 5727TIP3    H241377   4.007   3.368   2.583  1.5945 -0.4086  0.7684
 5728TIP3   OH241378   6.228   1.810   7.358  0.6073 -0.1263 -0.0715
 5728TIP3    H141379   6.165   1.866   7.312  1.6554  0.3903 -0.9244
 5728TIP3    H241380   6.270   1.759   7.288  0.5673 -1.0757  0.5711
 5729TIP3   OH241381   6.766   5.337   1.739  0.8381 -0.2771  0.0730
 5729TIP3    H141382   6.682   5.306   1.773  0.6359  0.0155 -0.1636
 5729TIP3    H241383   6.799   5.264   1.686  0.8516 -0.4862  0.3626
 5730TIP3   OH241384   3.889   5.002   8.063 -0.2052 -0.6746  0.1312
 5730TIP3    H141385   3.968   4.949   8.061  0.0690 -0.3217  1.1709
 5730TIP3    H241386   3.850   4.983   8.149  0.7207  1.9563  1.2323
 5731TIP3   OH241387   0.095   1.213   2.128  0.2722 -0.1926 -0.2342
 5731TIP3    H141388   0.065   1.127   2.156 -0.3869 -0.0022 -0.3366
 5731TIP3    H241389   0.129   1.254   2.208 -0.7678  0.0081  0.1104
 5732TIP3   OH241390   4.938   2.007   8.012 -0.0515 -0.2682  0.3629
 5732TIP3    H141391   4.878   1.943   8.049 -0.5430 -0.4733 -0.7567
 5732TIP3    H241392   4.944   1.984   7.919 -0.1194  1.2028 -0.0398
 5733TIP3   OH241393   2.391   2.191   7.874  0.7956 -0.6029  0.4399
 5733TIP3    H141394   2.405   2.267   7.819 -0.9504 -1.2586 -0.9933
 5733TIP3    H241395   2.337   2.223   7.946 -0.1636 -0.5355 -0.3031
 5734TIP3   OH241396   4.358   7.076   8.076 -0.1342 -0.0446 -0.3689
 5734TIP3    H141397   4.407   7.005   8.033  0.4953  0.4258 -0.4333
 5734TIP3    H241398   4.413   7.103   8.148  1.4095  2.8183 -2.4241
 5735TIP3   OH241399   4.382   1.337   1.525 -0.2098 -0.5547 -1.0028
 5735TIP3    H141400   4.379   1.414   1.582 -1.7411 -0.7238 -0.8293
 5735TIP3    H241401   4.474   1.332   1.497 -0.1208  1.4833 -1.2239
 5736TIP3   OH241402   3.884   4.637   7.701  0.0900 -0.4186 -0.5564
 5736TIP3    H141403   3.892   4.728   7.731  1.2263 -0.2116 -1.4137
 5736TIP3    H241404   3.795   4.630   7.668 -1.1120 -0.5369  2.3688
 5737TIP3   OH241405   3.512   5.272   1.728 -0.6133  0.0839 -0.0765
 5737TIP3    H141406   3.511   5.368   1.728 -1.8339  0.1290 -1.7504
 5737TIP3    H241407   3.502   5.249   1.635 -0.0587 -1.6712  0.2761
 5738TIP3   OH241408   2.517   4.068   0.844 -0.4978 -0.3949 -0.0436
 5738TIP3    H141409   2.562   4.045   0.926 -0.7879 -2.1856 -0.3406
 5738TIP3    H241410   2.498   4.161   0.852  1.8497  0.0990  0.7762
 5739TIP3   OH241411   0.337   6.385   7.841 -0.1193  0.5866  0.7340
 5739TIP3    H141412   0.342   6.383   7.746  0.5635 -0.8774  0.7641
 5739TIP3    H241413   0.400   6.452   7.868 -0.5698  1.2500  0.1520
 5740TIP3   OH241414   1.436   4.342   8.183  0.1254 -0.6313 -0.0939
 5740TIP3    H141415   1.452   4.254   8.217  0.7776  0.0255  1.3486
 5740TIP3    H241416   1.345   4.360   8.205 -0.1897 -1.1486 -0.9117
 5741TIP3   OH241417   1.063   2.811   1.986  0.2604  0.0219 -0.6704
 5741TIP3    H141418   1.144   2.842   2.028 -1.1977  1.4118  1.2915
 5741TIP3    H241419   1.029   2.744   2.046 -0.1777 -0.3769 -1.3545
 5742TIP3   OH241420   1.206   5.662   8.418 -0.0470 -0.1184 -0.5718
 5742TIP3    H141421   1.250   5.743   8.444 -0.7842 -0.0061  0.4009
 5742TIP3    H241422   1.205   5.664   8.323 -0.3234  1.1679 -0.5579
 5743TIP3   OH241423   1.633   0.042   8.991 -0.0486 -0.0151 -0.2518
 5743TIP3    H141424   1.676   0.012   8.911  0.0788 -0.3869 -0.0431
 5743TIP3    H241425   1.603  -0.037   9.034  0.6887  0.1074  0.5265
 5744TIP3   OH241426   6.826   2.656   9.598  0.4135  0.1849 -0.2350
 5744TIP3    H141427   6.911   2.694   9.617 -0.5500  0.7900  3.5937
 5744TIP3    H241428   6.783   2.720   9.541  1.5053  1.2392  0.1042
 5745TIP3   OH241429   1.234   1.869   7.669  0.7607  0.3315 -0.7334
 5745TIP3    H141430   1.250   1.776   7.653  0.0752 -0.2789  1.6682
 5745TIP3    H241431   1.320   1.903   7.695  0.8056  0.1310 -0.6107
 5746TIP3   OH241432   1.820   5.351   0.615  0.0681  0.7927 -0.1415
 5746TIP3    H141433   1.846   5.299   0.691  0.9280 -0.0496 -0.9836
 5746TIP3    H241434   1.730   5.322   0.596 -0.1519  1.0087  0.5371
 5747TIP3   OH241435   5.662   5.729   1.260  0.2749 -0.3922 -0.5634
 5747TIP3    H141436   5.719   5.805   1.270  1.5084 -1.2774 -0.6051
 5747TIP3    H241437   5.593   5.758   1.200  0.4408  0.8229 -0.1945
 5748TIP3   OH241438   6.390   1.264   1.889  0.3661 -0.0413  0.1379
 5748TIP3    H141439   6.449   1.258   1.964  1.3596  2.0652 -0.3989
 5748TIP3    H241440   6.315   1.209   1.914  0.2987  1.1407  3.0258
 5749TIP3   OH241441   7.122   5.349   3.242 -0.2348  0.1165  0.0343
 5749TIP3    H141442   7.110   5.379   3.332 -1.4731  1.1762 -0.4432
 5749TIP3    H241443   7.126   5.253   3.248  0.7722  0.2224  1.3051
 5750TIP3   OH241444   6.600   0.371   9.294 -0.2900 -0.1149 -0.1802
 5750TIP3    H141445   6.681   0.399   9.335 -1.3894  1.7995  0.8170
 5750TIP3    H241446   6.627   0.308   9.227  2.2855  2.1509 -1.4837
 5751TIP3   OH241447   0.803   2.057   7.690  0.2852 -0.3262 -0.5599
 5751TIP3    H141448   0.871   2.005   7.734 -0.8900 -1.7548 -0.3411
 5751TIP3    H241449   0.837   2.074   7.603  2.7008  2.5945  0.7698
 5752TIP3   OH241450   1.719   2.075   7.482  0.1586 -0.0476 -0.0953
 5752TIP3    H141451   1.698   2.130   7.407 -1.0756 -1.1253 -0.5776
 5752TIP3    H241452   1.798   2.115   7.520 -0.5400  1.8655 -0.5704
 5753TIP3   OH241453   7.218   3.191   2.614  0.0210  0.3245 -0.3403
 5753TIP3    H141454   7.263   3.209   2.697 -1.3261  1.1852  0.2326
 5753TIP3    H241455   7.217   3.276   2.569 -1.9620  0.6052  0.1481
 5754TIP3   OH241456   4.206   4.475   1.592 -0.0914 -0.4718  0.1060
 5754TIP3    H141457   4.162   4.413   1.651 -1.2138  0.1179 -0.0794
 5754TIP3    H241458   4.213   4.555   1.644 -2.1025  0.4094 -0.8640
 5755TIP3   OH241459   4.265   0.243   0.954 -0.0884  0.4367  0.2008
 5755TIP3    H141460   4.289   0.223   0.864  0.3210  0.7871  0.2313
 5755TIP3    H241461   4.329   0.197   1.008 -1.0060 -0.7119  0.3549
 5756TIP3   OH241462   5.381   6.716   2.812  0.2828  0.0829 -0.4692
 5756TIP3    H141463   5.382   6.775   2.888  1.4317  0.0834 -0.4648
 5756TIP3    H241464   5.442   6.756   2.750 -0.2909 -0.1677 -1.2028
 5757TIP3   OH241465   2.202   3.054   0.866 -0.5964 -0.0520 -0.4995
 5757TIP3    H141466   2.112   3.064   0.896 -0.0911  0.5969  0.8815
 5757TIP3    H241467   2.222   2.961   0.875 -0.4964  0.1057  1.1435
 5758TIP3   OH241468   0.335   5.679   0.975 -0.0947 -0.4088 -0.0981
 5758TIP3    H141469   0.304   5.738   0.906  0.4493  0.7736  0.6209
 5758TIP3    H241470   0.329   5.592   0.937  1.0505  0.2740 -1.9864
 5759TIP3   OH241471   5.727   2.994   1.315  0.1015  0.1333  0.0875
 5759TIP3    H141472   5.804   2.984   1.259  1.8695  1.5312  2.1237
 5759TIP3    H241473   5.658   3.023   1.255  0.8208 -2.0157 -1.9440
 5760TIP3   OH241474   2.679   0.212   8.919  0.5874 -0.4602  0.1452
 5760TIP3    H141475   2.694   0.253   9.004  2.3308 -1.7459  0.5102
 5760TIP3    H241476   2.739   0.137   8.917  0.6406 -0.4408 -2.2336
 5761TIP3   OH241477   2.085   3.783   1.926  0.2625 -0.1446  0.3051
 5761TIP3    H141478   1.991   3.798   1.922  0.2738 -0.2725 -0.6652
 5761TIP3    H241479   2.122   3.869   1.948  0.0223  0.2988 -0.9227
 5762TIP3   OH241480   0.782   3.961   2.591  0.3702  0.2236 -0.1915
 5762TIP3    H141481   0.690   3.975   2.567 -0.0788 -0.7101  0.8973
 5762TIP3    H241482   0.824   3.933   2.510 -0.6605 -0.8750 -0.3806
 5763TIP3   OH241483   5.861   1.124   0.176 -0.2263  0.1034  0.6684
 5763TIP3    H141484   5.940   1.157   0.135 -0.1887  0.2761  0.8821
 5763TIP3    H241485   5.866   1.029   0.164 -0.2473  0.1569  0.2194
 5764TIP3   OH241486   5.364   3.867   8.228  0.1960 -0.2546  0.1830
 5764TIP3    H141487   5.347   3.885   8.320 -0.9663  1.4104 -0.3145
 5764TIP3    H241488   5.459   3.872   8.219  0.2745  0.1878  1.1695
 5765TIP3   OH241489   3.466   6.461   0.127 -0.9723  0.4361 -0.5188
 5765TIP3    H141490   3.556   6.469   0.156 -1.6467  0.6736  1.6849
 5765TIP3    H241491   3.435   6.552   0.120 -1.1520  0.3470 -0.9235
 5766TIP3   OH241492   7.216   3.023   1.880  0.1194  0.1384 -0.5616
 5766TIP3    H141493   7.195   2.933   1.855 -0.2273  0.2193 -0.5610
 5766TIP3    H241494   7.263   3.058   1.804 -1.1968  0.4794 -1.2504
 5767TIP3   OH241495   6.160   6.008   2.332 -0.2466  0.6484  0.3661
 5767TIP3    H141496   6.086   6.016   2.392  0.0301  2.9107  0.5008
 5767TIP3    H241497   6.179   6.098   2.305  0.1805 -0.1993 -2.5025
 5768TIP3   OH241498   4.367   6.555   1.497  0.0689 -0.1327  0.4652
 5768TIP3    H141499   4.343   6.629   1.441  3.1658  0.7824  0.1546
 5768TIP3    H241500   4.384   6.483   1.436  0.1285 -0.1436  0.4940
 5769TIP3   OH241501   4.377   3.910   1.872  0.1644 -0.0739  0.5418
 5769TIP3    H141502   4.406   3.995   1.840  0.8930  0.1582  1.7649
 5769TIP3    H241503   4.282   3.913   1.866  0.1571  0.9784  0.9248
 5770TIP3   OH241504   5.182   1.298   1.177 -0.5132  0.0633  0.2886
 5770TIP3    H141505   5.159   1.265   1.264 -3.2527 -1.0068 -0.7381
 5770TIP3    H241506   5.174   1.222   1.119  2.7448  0.3976 -0.7648
 5771TIP3   OH241507   2.991   3.432   7.911  0.5344 -0.4072  0.2259
 5771TIP3    H141508   2.925   3.477   7.963  1.3164 -0.2401  1.0880
 5771TIP3    H241509   2.976   3.462   7.821  0.5520  0.9546  0.6711
 5772TIP3   OH241510   5.220   1.906   7.190  0.2056  0.3033 -0.3631
 5772TIP3    H141511   5.278   1.958   7.135  1.4413 -0.5132  0.1395
 5772TIP3    H241512   5.224   1.818   7.153  1.4113 -0.3721  1.2388
 5773TIP3   OH241513   2.618   4.620   0.103 -0.1377  0.0447  0.2367
 5773TIP3    H141514   2.560   4.638   0.176 -1.9866  1.3231 -1.4294
 5773TIP3    H241515   2.672   4.699   0.095 -1.9082  1.1649 -1.4413
 5774TIP3   OH241516   7.254   2.107   8.439  0.4187  0.0268 -0.0774
 5774TIP3    H141517   7.332   2.129   8.388  0.1734 -1.7363 -1.3247
 5774TIP3    H241518   7.221   2.028   8.397 -1.8601  0.5470  0.6395
 5775TIP3   OH241519   1.141   7.017   2.538  0.4732 -0.3286  0.0500
 5775TIP3    H141520   1.121   6.971   2.619  2.5951 -0.3294  0.6390
 5775TIP3    H241521   1.127   7.109   2.558  1.7937 -0.2452  0.7428
 5776TIP3   OH241522   3.521   1.418   9.319 -0.0616 -0.5976 -0.5057
 5776TIP3    H141523   3.457   1.482   9.350  0.0185 -1.8027  2.3971
 5776TIP3    H241524   3.488   1.391   9.233 -1.9782  0.7326 -0.2499
 5777TIP3   OH241525   2.434   3.185   7.715  0.1395  0.8007 -0.1873
 5777TIP3    H141526   2.491   3.261   7.730  0.2240  0.7277 -0.1344
 5777TIP3    H241527   2.355   3.222   7.676  0.5538  0.8171 -1.0396
 5778TIP3   OH241528   6.487   1.690   9.364 -0.0818  0.3631 -0.0899
 5778TIP3    H141529   6.544   1.709   9.289  0.4187 -1.2037 -0.1279
 5778TIP3    H241530   6.404   1.733   9.343  0.7165  1.7400 -0.5439
 5779TIP3   OH241531   4.968   3.045   0.017 -0.0527  0.1567  0.5096
 5779TIP3    H141532   5.053   3.005  -0.000 -0.1246  0.0049  0.4997
 5779TIP3    H241533   4.942   3.083  -0.067 -0.1270 -0.0507  0.4396
 5780TIP3   OH241534   6.097   1.587   9.388  0.1705 -0.0573  0.2741
 5780TIP3    H141535   6.175   1.534   9.373 -0.5444 -0.7896 -1.0679
 5780TIP3    H241536   6.118   1.672   9.348  0.1554 -0.3720 -0.4157
 5781TIP3   OH241537   5.185   4.080   8.538  0.5553 -0.4588  0.1640
 5781TIP3    H141538   5.179   4.095   8.633 -0.0588 -1.1938  0.2540
 5781TIP3    H241539   5.251   4.010   8.530 -2.5307 -3.7183  0.4822
 5782TIP3   OH241540   2.059   7.198   0.857 -0.0271 -0.4550  0.7610
 5782TIP3    H141541   2.103   7.178   0.775 -0.3396  3.2412 -0.4915
 5782TIP3    H241542   1.983   7.251   0.832  0.7215  2.1664  3.4174
 5783TIP3   OH241543   4.987   3.488   8.338 -0.5261  0.1643 -0.1805
 5783TIP3    H141544   4.903   3.449   8.314 -0.0376 -0.4352 -0.9787
 5783TIP3    H241545   4.967   3.579   8.357 -1.3515  0.0386 -0.4104
 5784TIP3   OH241546   1.973   2.207   1.245 -0.1405 -0.0230  0.2803
 5784TIP3    H141547   2.053   2.177   1.201 -0.9901 -0.2377 -1.1682
 5784TIP3    H241548   1.979   2.169   1.333  1.1758 -0.3316  0.0781
 5785TIP3   OH241549   7.263   2.654   3.021 -0.4453 -0.0546  0.0161
 5785TIP3    H141550   7.328   2.718   2.993 -1.0836  0.4789 -0.2737
 5785TIP3    H241551   7.238   2.681   3.109 -0.3480 -0.1926  0.0851
 5786TIP3   OH241552   4.800   3.992   1.983 -0.2393 -0.3630 -0.3338
 5786TIP3    H141553   4.885   3.949   1.973  1.2666  1.9372  1.5472
 5786TIP3    H241554   4.756   3.941   2.052  1.0057  0.2926  1.0010
 5787TIP3   OH241555   3.426   6.754   7.683  0.0009  0.0698 -0.5946
 5787TIP3    H141556   3.368   6.787   7.614  1.9792  0.7049 -2.0652
 5787TIP3    H241557   3.435   6.661   7.664 -0.4182 -0.0103 -0.4243
 5788TIP3   OH241558   3.433   0.822   0.617 -0.0148  0.1775  0.4314
 5788TIP3    H141559   3.385   0.740   0.625 -1.5606  0.9632 -0.3126
 5788TIP3    H241560   3.463   0.824   0.526  0.6493  0.1156  0.6437
 5789TIP3   OH241561   6.178   3.898   9.248  0.3222 -0.2549 -0.4264
 5789TIP3    H141562   6.258   3.951   9.254  1.4011 -1.7854 -0.6923
 5789TIP3    H241563   6.207   3.816   9.210 -1.0258 -1.5912  1.2690
 5790TIP3   OH241564   6.501   1.327   2.404 -0.0416 -0.1177 -0.6022
 5790TIP3    H141565   6.590   1.327   2.440 -0.4554  0.3838  0.4504
 5790TIP3    H241566   6.474   1.419   2.408 -0.2534 -0.1122 -1.8350
 5791TIP3   OH241567   6.974   6.833   0.942 -0.4769  0.2584 -0.0216
 5791TIP3    H141568   7.001   6.745   0.916 -0.7015  0.2039 -0.0715
 5791TIP3    H241569   6.913   6.819   1.014 -1.9872  0.2729 -1.2565
 5792TIP3   OH241570   4.648   4.970   1.818 -0.7208  0.1113  0.7230
 5792TIP3    H141571   4.613   4.978   1.730 -1.6664  0.0391  1.0767
 5792TIP3    H241572   4.573   4.989   1.875 -0.4943 -1.2846  1.5210
 5793TIP3   OH241573   4.219   4.570   0.509  0.2003  0.4632 -0.3272
 5793TIP3    H141574   4.212   4.520   0.429 -0.5559  0.4749 -0.2750
 5793TIP3    H241575   4.244   4.658   0.480 -1.0451  0.7271 -0.6423
 5794TIP3   OH241576   5.602   0.024   2.320 -0.1492  0.1721 -0.1053
 5794TIP3    H141577   5.585   0.055   2.231 -0.1737  1.6652  0.3899
 5794TIP3    H241578   5.590  -0.071   2.315  0.6418  0.1263 -1.8660
 5795TIP3   OH241579   3.417   4.776   9.614 -0.1905 -0.8454 -0.4530
 5795TIP3    H141580   3.383   4.690   9.590  0.0687 -1.1281  0.1652
 5795TIP3    H241581   3.338   4.828   9.633 -0.3243 -1.2186  0.0496
 5796TIP3   OH241582   2.518   2.941   2.085 -0.2578  0.2587  0.3003
 5796TIP3    H141583   2.460   2.944   2.161 -1.0580  0.0868 -0.2992
 5796TIP3    H241584   2.557   3.029   2.082 -1.1829  0.6776  0.1698
 5797TIP3   OH241585   1.483   4.050   7.220 -0.1228  0.2208 -0.3556
 5797TIP3    H141586   1.496   3.955   7.225  0.2916  0.3303  0.9549
 5797TIP3    H241587   1.567   4.085   7.192  0.2516  0.3227  0.8389
 5798TIP3   OH241588   6.436   3.971   8.006  0.3684  0.2944  0.6797
 5798TIP3    H141589   6.499   4.021   8.058  0.7868 -1.1193  1.5811
 5798TIP3    H241590   6.456   3.879   8.026 -0.7347 -0.2261 -0.5018
 5799TIP3   OH241591   0.281   6.630   9.689 -0.0514 -0.1991  0.0848
 5799TIP3    H141592   0.218   6.621   9.618 -0.2766  1.4069  0.0396
 5799TIP3    H241593   0.317   6.718   9.678  0.9080 -0.4278  1.1592
 5800TIP3   OH241594   5.586   1.060   0.335 -0.7366 -0.2292  0.2826
 5800TIP3    H141595   5.656   0.995   0.325 -0.2179  0.1799  1.0911
 5800TIP3    H241596   5.556   1.078   0.246  0.5835  0.0172 -0.1350
 5801TIP3   OH241597   0.417   2.850   6.762 -0.6249  0.3997 -0.5497
 5801TIP3    H141598   0.376   2.897   6.835 -0.2883  2.7243 -1.7767
 5801TIP3    H241599   0.405   2.907   6.686  0.4067 -1.2232 -2.0105
 5802TIP3   OH241600   0.670   2.614   9.008 -0.4827  0.6114 -0.3525
 5802TIP3    H141601   0.597   2.641   9.063 -0.9014  0.0201 -0.6013
 5802TIP3    H241602   0.747   2.618   9.065 -0.6632  1.4896 -0.1611
 5803TIP3   OH241603   5.659   5.489   9.743 -0.0498  0.1507  0.4865
 5803TIP3    H141604   5.743   5.447   9.761 -0.9058 -1.5378  0.8438
 5803TIP3    H241605   5.681   5.577   9.714  1.8938 -0.6142 -0.5365
 5804TIP3   OH241606   0.943   1.147   0.596 -0.0826  0.2105  0.5195
 5804TIP3    H141607   0.980   1.155   0.684 -0.8988 -1.1982  1.0256
 5804TIP3    H241608   0.849   1.164   0.608 -0.1294  0.4814 -0.1722
 5805TIP3   OH241609   5.753   0.236   9.983  0.0999 -0.0497 -0.2068
 5805TIP3    H141610   5.722   0.309  10.037 -1.0217 -1.2895  0.9408
 5805TIP3    H241611   5.719   0.254   9.896 -0.9054  0.4033  0.2587
 5806TIP3   OH241612   2.959   2.741   0.716 -0.8173  0.1620 -0.2263
 5806TIP3    H141613   2.927   2.770   0.631 -0.3617 -0.7567 -0.7193
 5806TIP3    H241614   2.895   2.676   0.745 -0.5708 -0.0806 -0.2192
 5807TIP3   OH241615   5.319   5.994   2.472 -0.8269  0.1291  0.3135
 5807TIP3    H141616   5.335   5.943   2.393 -1.8947  2.1973 -1.3454
 5807TIP3    H241617   5.291   5.930   2.537  0.0922 -1.6406 -0.9499
 5808TIP3   OH241618   2.447   5.724   6.415 -0.2129  0.0461 -0.1211
 5808TIP3    H141619   2.541   5.724   6.395 -0.0661  0.0444  0.5592
 5808TIP3    H241620   2.421   5.632   6.408  0.1122 -0.1362  0.9436
 5809TIP3   OH241621   6.735   3.029   0.058  0.0100 -0.0058  0.4570
 5809TIP3    H141622   6.652   2.983   0.069  0.2056 -0.6297 -0.5076
 5809TIP3    H241623   6.724   3.111   0.106 -1.5895  0.4521 -0.6067
 5810TIP3   OH241624   4.587   1.140   0.444  0.2533  0.0073  0.1649
 5810TIP3    H141625   4.527   1.095   0.384  1.8654 -0.2166 -1.3754
 5810TIP3    H241626   4.568   1.233   0.431 -0.1230 -0.0754  0.1047
 5811TIP3   OH241627   6.747   0.265   0.051  0.0376 -0.0784  0.1653
 5811TIP3    H141628   6.806   0.195   0.078 -0.9998 -0.9908  0.1284
 5811TIP3    H241629   6.797   0.317  -0.011  0.8263 -0.7843  0.2021
 5812TIP3   OH241630   5.310   2.925   7.701 -0.6038 -0.5025 -0.0016
 5812TIP3    H141631   5.246   2.872   7.749 -0.7789 -0.0907  0.2286
 5812TIP3    H241632   5.384   2.934   7.762  0.2391 -2.0467 -0.7360
 5813TIP3   OH241633   6.831   2.558   7.840 -0.0401  0.0456  0.6120
 5813TIP3    H141634   6.786   2.534   7.921 -1.8695  1.7024  0.1638
 5813TIP3    H241635   6.832   2.478   7.788 -3.2083  0.0624  0.3549
 5814TIP3   OH241636   2.271   0.932   8.690  0.3228 -0.6624 -0.0446
 5814TIP3    H141637   2.297   0.876   8.764  1.1218 -1.1775 -0.6954
 5814TIP3    H241638   2.177   0.942   8.700  0.0612 -2.5526 -0.1773
 5815TIP3   OH241639   6.942   2.421   7.172  0.6856 -0.0552  0.2415
 5815TIP3    H141640   6.949   2.509   7.134 -1.0521 -0.2659 -0.6384
 5815TIP3    H241641   6.924   2.364   7.097  3.5472 -1.5181  0.4966
 5816TIP3   OH241642   2.294   1.704   0.251  0.1908  0.4202 -0.6200
 5816TIP3    H141643   2.291   1.608   0.246  2.6124  0.1490  1.3782
 5816TIP3    H241644   2.202   1.731   0.245 -0.5084 -1.9685 -1.7401
 5817TIP3   OH241645   3.910   0.434   1.637  0.5049  0.1313 -0.6168
 5817TIP3    H141646   3.973   0.424   1.566  0.7386  0.9012 -0.5175
 5817TIP3    H241647   3.958   0.479   1.706  0.0249  0.1645 -0.3016
 5818TIP3   OH241648   2.579   5.970   7.137  0.3711  0.2672  0.3590
 5818TIP3    H141649   2.533   6.053   7.125  0.4554  0.0667 -1.7674
 5818TIP3    H241650   2.654   5.992   7.193 -1.7452  0.7541  3.2333
 5819TIP3   OH241651   0.859   6.060   9.210 -0.1476  0.5102  0.5813
 5819TIP3    H141652   0.829   6.116   9.282  0.5437 -0.2740  1.5124
 5819TIP3    H241653   0.952   6.081   9.201 -0.1512  0.3511  0.1575
 5820TIP3   OH241654   0.039   1.369   2.586 -0.3756 -0.2021  0.3972
 5820TIP3    H141655   0.111   1.320   2.626  0.1450  0.8750  0.8180
 5820TIP3    H241656   0.010   1.429   2.654 -1.1206 -0.0399 -0.0549
 5821TIP3   OH241657   7.090   1.446   1.533 -0.0949 -0.0692  0.3351
 5821TIP3    H141658   7.011   1.497   1.512  0.2808  1.2836  1.9364
 5821TIP3    H241659   7.088   1.438   1.628  1.8779  0.3223  0.4577
 5822TIP3   OH241660   6.724   5.063   1.685 -0.6592 -0.3185 -0.0263
 5822TIP3    H141661   6.654   5.093   1.742 -0.4733  0.0444  0.0131
 5822TIP3    H241662   6.761   4.987   1.729 -0.7020 -0.2097  0.1952
 5823TIP3   OH241663   4.938   7.128   0.194  0.3737 -0.1756 -0.0308
 5823TIP3    H141664   4.961   7.218   0.218  0.9575  0.4117 -2.5600
 5823TIP3    H241665   5.015   7.095   0.147 -0.8922 -0.9879 -1.6335
 5824TIP3   OH241666   5.134   4.904   0.061 -0.4146 -0.2750 -0.3090
 5824TIP3    H141667   5.130   4.880   0.154  0.1266  0.8743  0.0354
 5824TIP3    H241668   5.223   4.883   0.035 -0.4989 -0.3796 -0.5102
 5825TIP3   OH241669   0.363   5.217   1.004  0.7639 -0.4222 -0.6770
 5825TIP3    H141670   0.309   5.251   1.075  1.5117  1.1626 -0.8348
 5825TIP3    H241671   0.310   5.148   0.964 -0.3924 -0.1124  0.2884
 5826TIP3   OH241672   0.351   3.130   8.784  0.4417 -0.5681 -0.4165
 5826TIP3    H141673   0.432   3.136   8.836  0.6279  0.8976 -0.8413
 5826TIP3    H241674   0.304   3.056   8.822  1.0524 -0.1800  1.1810
 5827TIP3   OH241675   1.016   0.176   0.355  0.2271  0.0819  0.0511
 5827TIP3    H141676   0.991   0.230   0.280 -1.6444 -1.6809 -0.6770
 5827TIP3    H241677   0.961   0.098   0.348  0.6363 -0.5495  2.7732
 5828TIP3   OH241678   5.506   6.350   1.363 -0.6216 -0.3385 -0.2403
 5828TIP3    H141679   5.528   6.409   1.435 -0.5011  0.1847 -0.6987
 5828TIP3    H241680   5.564   6.275   1.375  2.2810  1.4448 -2.0022
 5829TIP3   OH241681   2.402   1.403   8.498 -0.1692 -0.1931  0.3544
 5829TIP3    H141682   2.373   1.323   8.456  0.3076 -1.8885  3.0066
 5829TIP3    H241683   2.323   1.456   8.508 -0.7594 -0.9705 -0.1370
 5830TIP3   OH241684   4.190   1.344   1.326 -0.9760 -0.3952  0.1373
 5830TIP3    H141685   4.118   1.390   1.368 -0.6158 -0.3666  0.7355
 5830TIP3    H241686   4.257   1.338   1.394 -0.2444 -0.0281 -0.5407
 5831TIP3   OH241687   5.117   4.937   1.225  0.0398  0.4754 -0.3727
 5831TIP3    H141688   5.202   4.973   1.249  0.1127  0.2066 -0.2360
 5831TIP3    H241689   5.054   4.992   1.273  0.2097 -0.5793  1.1251
 5832TIP3   OH241690   7.204   4.053   1.693 -0.1134 -0.2206 -0.0142
 5832TIP3    H141691   7.176   4.138   1.727  0.8136  0.2598 -0.4169
 5832TIP3    H241692   7.299   4.058   1.692 -0.0839 -0.6161 -1.6702
 5833TIP3   OH241693   3.880   5.039   9.620  0.0457 -0.2865  0.1365
 5833TIP3    H141694   3.886   5.129   9.588  0.7162  0.8204  3.0467
 5833TIP3    H241695   3.788   5.028   9.645 -0.1810 -0.6874 -0.8102
 5834TIP3   OH241696   4.599   7.209   7.103 -0.0076 -0.0431 -0.7043
 5834TIP3    H141697   4.607   7.149   7.029  0.5074 -0.3533 -0.4013
 5834TIP3    H241698   4.683   7.255   7.106  0.3488 -0.7154  0.2631
 5835TIP3   OH241699   4.247   1.015   8.693  0.2265  0.0225 -0.0849
 5835TIP3    H141700   4.316   0.962   8.652  0.7860  0.5632  0.1429
 5835TIP3    H241701   4.166   0.986   8.651  0.6213 -0.4544 -0.5259
 5836TIP3   OH241702   4.397   1.985   7.588  0.4767 -0.2342  0.0749
 5836TIP3    H141703   4.383   1.985   7.494  1.6933 -2.2981 -0.1574
 5836TIP3    H241704   4.322   1.937   7.624 -0.1505  0.8267  0.2065
 5837TIP3   OH241705   1.235   1.402   1.206 -0.4965 -0.2248  0.1484
 5837TIP3    H141706   1.299   1.456   1.251 -1.4244 -0.4195  1.7595
 5837TIP3    H241707   1.153   1.417   1.253 -1.3755 -0.9371 -1.0892
 5838TIP3   OH241708   2.557   5.485   6.509 -0.1559 -0.1000  0.0975
 5838TIP3    H141709   2.631   5.510   6.564 -0.1380 -1.9763  1.0012
 5838TIP3    H241710   2.480   5.500   6.563 -0.2791 -0.0961 -0.0774
 5839TIP3   OH241711   2.086   3.003   7.820 -0.2330 -0.0731 -0.1504
 5839TIP3    H141712   2.020   3.072   7.823  0.9035  1.0654 -0.1831
 5839TIP3    H241713   2.096   2.984   7.726 -1.5752 -1.3532 -0.0667
 5840TIP3   OH241714   1.333   5.163   7.929  0.0219  0.5989  0.6557
 5840TIP3    H141715   1.399   5.096   7.910 -0.5331  0.6773 -1.8503
 5840TIP3    H241716   1.363   5.240   7.880 -1.0783  1.1340  0.8045
 5841TIP3   OH241717   0.195   1.698   2.102 -0.1300 -0.4757  0.1046
 5841TIP3    H141718   0.220   1.608   2.120 -2.7383 -1.1067  0.9465
 5841TIP3    H241719   0.224   1.747   2.180 -2.1440 -1.3370  1.4605
 5842TIP3   OH241720   0.148   1.331   7.461 -0.1204  0.1404 -0.5280
 5842TIP3    H141721   0.076   1.322   7.399 -0.4129  1.3049 -0.3756
 5842TIP3    H241722   0.226   1.309   7.410 -0.5561 -1.1048 -0.7003
 5843TIP3   OH241723   2.154   5.698   8.655  0.0157 -0.0524 -0.3461
 5843TIP3    H141724   2.085   5.634   8.668  1.8250 -2.4591 -1.6789
 5843TIP3    H241725   2.191   5.713   8.742  0.1116 -1.5117 -0.1247
 5844TIP3   OH241726   5.638   3.844   1.246  0.6594 -0.1324  0.4714
 5844TIP3    H141727   5.565   3.899   1.274 -1.2966 -0.4818 -3.2178
 5844TIP3    H241728   5.695   3.904   1.197 -0.3088 -0.8076 -1.6184
 5845TIP3   OH241729   2.545   4.110   9.490  0.1198 -0.4617 -0.7127
 5845TIP3    H141730   2.468   4.069   9.450 -0.7175 -1.2670  1.5559
 5845TIP3    H241731   2.595   4.144   9.416 -0.3562 -3.4791 -2.5775
 5846TIP3   OH241732   1.565   3.569   7.519 -0.6848  0.2742 -0.0254
 5846TIP3    H141733   1.608   3.568   7.433 -0.7355  0.3033 -0.0518
 5846TIP3    H241734   1.631   3.536   7.579 -0.1785  1.5311  0.1416
 5847TIP3   OH241735   1.923   1.977   9.126  0.2127  0.3679  0.2316
 5847TIP3    H141736   1.970   1.982   9.209 -0.7437  0.5838  0.7798
 5847TIP3    H241737   1.916   1.883   9.108  0.0043  0.2974  0.6573
 5848TIP3   OH241738   4.742   0.157   0.716  0.4130  0.1682  0.0725
 5848TIP3    H141739   4.820   0.131   0.667 -0.7281 -1.4649 -1.0084
 5848TIP3    H241740   4.672   0.159   0.650 -0.8351 -0.3983  1.3212
 5849TIP3   OH241741   3.578   2.438   0.917  0.5433 -0.2731 -0.4863
 5849TIP3    H141742   3.549   2.487   0.840 -0.3101 -0.2018 -0.1376
 5849TIP3    H241743   3.519   2.466   0.987  1.3071 -0.3356  0.2011
 5850TIP3   OH241744   3.993   5.006   0.141  0.1065 -0.0629 -0.3830
 5850TIP3    H141745   3.965   5.058   0.216  1.2789 -1.5081  1.1328
 5850TIP3    H241746   3.958   4.918   0.159 -0.0178 -0.3293 -1.7977
 5851TIP3   OH241747   3.556   6.364   9.373 -0.5534 -0.3660  0.1860
 5851TIP3    H141748   3.641   6.407   9.387 -1.5718  1.8421 -0.0026
 5851TIP3    H241749   3.566   6.315   9.292  0.3380  0.4250 -0.1940
 5852TIP3   OH241750   4.968   0.742   0.138  0.1663 -0.0785 -0.4203
 5852TIP3    H141751   5.012   0.664   0.171  0.9132  0.1553 -0.8308
 5852TIP3    H241752   5.037   0.791   0.092 -0.3738  0.6294 -0.4994
 5853TIP3   OH241753   0.151   5.132   9.959 -0.3442  0.1625  0.0858
 5853TIP3    H141754   0.087   5.194   9.994 -1.0729  1.6104 -3.4139
 5853TIP3    H241755   0.100   5.071   9.907  0.8006 -0.9702  0.2350
 5854TIP3   OH241756   4.846   6.985   9.403  0.2163  0.2598  0.1950
 5854TIP3    H141757   4.787   6.962   9.331 -1.8935  2.0122  1.2343
 5854TIP3    H241758   4.928   7.009   9.360 -0.9822  1.2972 -1.6710
 5855TIP3   OH241759   5.744   1.997   8.756  1.0593 -0.1471 -0.3492
 5855TIP3    H141760   5.722   1.998   8.663 -1.6971  1.7585  0.1912
 5855TIP3    H241761   5.738   1.906   8.782 -3.9306 -0.2611 -0.9852
 5856TIP3   OH241762   2.549   4.373   0.298  0.0201  0.1409  0.4319
 5856TIP3    H141763   2.459   4.405   0.300  0.0429  0.2147  0.2214
 5856TIP3    H241764   2.555   4.321   0.218  0.8232  2.0595 -0.8180
 5857TIP3   OH241765   3.340   4.141   1.823 -0.0373  0.0954  0.4411
 5857TIP3    H141766   3.272   4.121   1.759  0.7027 -0.4050 -0.2187
 5857TIP3    H241767   3.352   4.235   1.816  0.9929 -0.1184 -1.1944
 5858TIP3   OH241768   2.199   4.075   0.354  0.5269  0.0920  0.2275
 5858TIP3    H141769   2.215   4.167   0.378  2.8022  0.3932 -1.9650
 5858TIP3    H241770   2.105   4.071   0.335  0.4786  2.1563 -0.2283
 5859TIP3   OH241771   5.191   6.595   9.718 -0.8024 -0.1214 -0.8970
 5859TIP3    H141772   5.219   6.601   9.809 -2.8240  0.4433 -0.2733
 5859TIP3    H241773   5.098   6.574   9.722 -0.8340 -0.6077 -2.8555
 5860TIP3   OH241774   1.130   2.420   2.012 -0.3513  0.1711  0.0495
 5860TIP3    H141775   1.221   2.393   1.999 -1.0402 -2.1067 -0.3331
 5860TIP3    H241776   1.103   2.453   1.926 -0.1929 -0.0987 -0.1063
 5861TIP3   OH241777   6.746   0.514   2.233 -0.2733 -0.3620  0.1087
 5861TIP3    H141778   6.678   0.462   2.275 -1.0728  0.2066 -0.4414
 5861TIP3    H241779   6.738   0.601   2.272  0.6925 -0.4967  0.6336
 5862TIP3   OH241780   0.704   6.274   8.983 -0.7588 -0.3103 -0.1887
 5862TIP3    H141781   0.642   6.212   8.945 -0.6747 -0.6824  0.2824
 5862TIP3    H241782   0.760   6.299   8.909 -1.0184 -0.5169 -0.4596
 5863TIP3   OH241783   5.213   6.961   8.369  0.0408  0.1473  0.1030
 5863TIP3    H141784   5.243   7.012   8.293  0.0199  0.1940  0.1258
 5863TIP3    H241785   5.294   6.936   8.414  0.0634 -0.1237 -0.0915
 5864TIP3   OH241786   1.117   2.273   0.053  0.0718 -0.0098 -0.1899
 5864TIP3    H141787   1.137   2.359   0.016  0.8091 -0.5937 -1.1945
 5864TIP3    H241788   1.034   2.248   0.013  0.3352 -0.1779 -0.6329
 5865TIP3   OH241789   0.012   7.125   0.210 -0.4863  0.5841  0.3113
 5865TIP3    H141790  -0.024   7.139   0.298 -4.1433  0.1461 -0.9449
 5865TIP3    H241791  -0.018   7.201   0.160  0.0145 -0.0453 -0.9906
 5866TIP3   OH241792   4.138   5.081   9.110  0.0320  0.2491 -0.2470
 5866TIP3    H141793   4.130   5.122   9.024  0.7522  0.2646 -0.3077
 5866TIP3    H241794   4.232   5.079   9.128 -0.0894 -0.0457  0.3993
 5867TIP3   OH241795   2.257   0.285   7.268  0.5911  0.3404 -0.1051
 5867TIP3    H141796   2.349   0.267   7.249  1.0734  1.5481  0.9230
 5867TIP3    H241797   2.256   0.377   7.295 -0.9099  0.3263 -0.0555
 5868TIP3   OH241798   1.916   2.015   9.406  0.2235  1.0477  0.0801
 5868TIP3    H141799   1.829   2.026   9.366 -0.1579  0.1774  0.6260
 5868TIP3    H241800   1.909   1.932   9.454  1.8697  0.0900 -1.2221
 5869TIP3   OH241801   4.898   3.653   1.333  0.3306  0.0475  0.2506
 5869TIP3    H141802   4.836   3.633   1.263 -0.5790  0.7666  0.8363
 5869TIP3    H241803   4.844   3.678   1.407  1.2196 -1.6961  1.5744
 5870TIP3   OH241804   0.977   5.934   0.175 -0.3481 -0.1490 -0.4545
 5870TIP3    H141805   0.942   5.847   0.157  0.0037 -0.0430 -1.7381
 5870TIP3    H241806   0.980   5.939   0.270 -2.4659 -0.7026 -0.2910
 5871TIP3   OH241807   0.885   3.232   1.640  0.0949  0.0194  0.2892
 5871TIP3    H141808   0.910   3.162   1.701 -0.7759 -1.7212 -1.2477
 5871TIP3    H241809   0.795   3.254   1.665 -0.2557 -0.6815 -0.3193
 5872TIP3   OH241810   1.345   6.328   0.478  0.3785  0.3088 -0.0961
 5872TIP3    H141811   1.341   6.236   0.450 -1.4524  0.2227  0.3211
 5872TIP3    H241812   1.390   6.372   0.406 -1.7382 -0.3704 -1.9566
 5873TIP3   OH241813   6.405   6.997   0.521  0.4033  0.0559  0.4031
 5873TIP3    H141814   6.372   7.063   0.582 -0.6703  0.0959 -0.1963
 5873TIP3    H241815   6.489   6.970   0.558  2.8505  4.4354 -1.1602
 5874TIP3   OH241816   6.837   2.501   9.195  0.1238 -0.0963 -0.1130
 5874TIP3    H141817   6.748   2.507   9.160 -0.1924 -1.1050  0.4918
 5874TIP3    H241818   6.893   2.505   9.118 -0.4122  0.9831 -0.4719
 5875TIP3   OH241819   4.515   0.266   9.319 -0.4066 -0.4263 -0.3237
 5875TIP3    H141820   4.586   0.257   9.383 -0.5764 -1.6231 -0.2801
 5875TIP3    H241821   4.558   0.299   9.240 -0.0851  0.4293  0.2067
 5876TIP3   OH241822   7.256   6.974   2.661 -0.0520 -0.6096  0.0296
 5876TIP3    H141823   7.198   7.049   2.650 -0.8873 -1.2369  0.0552
 5876TIP3    H241824   7.336   7.010   2.699  0.3620  0.5937 -1.8496
 5877TIP3   OH241825   4.537   4.297   7.881  0.5136  0.1606 -0.3563
 5877TIP3    H141826   4.554   4.222   7.823  1.5112  0.3584 -0.3405
 5877TIP3    H241827   4.569   4.269   7.967 -1.4139 -0.3182  0.2557
 5878TIP3   OH241828   6.528   7.197   3.108  0.5560  0.0831  0.2120
 5878TIP3    H141829   6.512   7.226   3.018  1.0877  0.6581  0.2946
 5878TIP3    H241830   6.450   7.223   3.156  0.0102 -0.7601 -0.1999
 5879TIP3   OH241831   4.731   4.849   8.269  0.1532  0.0914 -0.4848
 5879TIP3    H141832   4.649   4.898   8.279 -0.0751 -0.6060  1.5436
 5879TIP3    H241833   4.703   4.758   8.264  0.7395 -0.0480 -1.3637
 5880TIP3   OH241834   4.563   4.865   7.650  0.3699  0.1343 -0.0327
 5880TIP3    H141835   4.654   4.854   7.676  0.6455  0.4418 -0.8435
 5880TIP3    H241836   4.555   4.816   7.569  0.1826  1.2486 -0.7079
 5881TIP3   OH241837   2.318   5.127   2.725 -0.6510  0.4412  0.1665
 5881TIP3    H141838   2.371   5.094   2.797 -1.3464 -1.6628 -0.2350
 5881TIP3    H241839   2.377   5.187   2.679  0.6119 -0.0607  1.0543
 5882TIP3   OH241840   3.953   5.921   1.079 -0.6776 -0.7975  0.1090
 5882TIP3    H141841   3.892   5.928   1.152 -0.0386 -0.2585  0.5981
 5882TIP3    H241842   4.030   5.877   1.116  0.4196  1.1525  0.2762
 5883TIP3   OH241843   0.581   3.742   2.338  0.4498  0.2298  0.3513
 5883TIP3    H141844   0.604   3.677   2.272  1.4988  0.8823  0.0467
 5883TIP3    H241845   0.615   3.706   2.420  0.7123  0.2271  0.2426
 5884TIP3   OH241846   3.678   2.005   8.101 -0.0824 -0.0588  0.3023
 5884TIP3    H141847   3.750   1.952   8.135  0.9895  1.0386 -0.1808
 5884TIP3    H241848   3.623   1.943   8.053  1.8665 -0.5814 -1.4182
 5885TIP3   OH241849   5.791   4.832   9.821 -0.1159 -0.5565 -0.3183
 5885TIP3    H141850   5.803   4.738   9.833 -2.1780 -0.8360 -0.0780
 5885TIP3    H241851   5.718   4.840   9.759  0.6503  0.9014 -1.0952
 5886TIP3   OH241852   4.349   5.115   8.555 -0.7012 -0.5094 -0.3909
 5886TIP3    H141853   4.308   5.182   8.499  0.3051  0.4509  0.0002
 5886TIP3    H241854   4.442   5.135   8.551 -0.5487 -0.8604  1.0749
 5887TIP3   OH241855   4.773   0.995   1.942 -0.3190  0.4529 -0.5975
 5887TIP3    H141856   4.818   1.067   1.986 -0.1472 -0.3308  0.5531
 5887TIP3    H241857   4.835   0.966   1.875  0.1086  0.5987 -0.2725
 5888TIP3   OH241858   3.888   6.890   1.045  0.3305 -0.5893  0.2211
 5888TIP3    H141859   3.926   6.954   0.985  0.8960  2.2794  3.3140
 5888TIP3    H241860   3.794   6.892   1.027  0.5614 -0.3655 -1.0201
 5889TIP3   OH241861   1.102   3.125   7.655 -0.5534  0.0924 -0.0837
 5889TIP3    H141862   1.089   3.087   7.742  0.7371  3.1446  1.5995
 5889TIP3    H241863   1.180   3.082   7.621 -1.7922 -2.0595 -0.3951
 5890TIP3   OH241864   2.006   6.374   8.131 -0.4612  0.3073  0.3084
 5890TIP3    H141865   2.066   6.301   8.145 -2.2156 -1.0393  1.2565
 5890TIP3    H241866   2.035   6.442   8.192  0.7845  0.1737 -0.1072
 5891TIP3   OH241867   1.601   7.272   1.098  0.2488  0.5678 -0.1833
 5891TIP3    H141868   1.525   7.239   1.050 -0.7208  0.5546  1.3138
 5891TIP3    H241869   1.674   7.218   1.068 -0.7902 -1.0689  0.1414
 5892TIP3   OH241870   2.102   4.967   2.943  0.1358 -0.1293 -0.7446
 5892TIP3    H141871   2.186   4.921   2.940  0.1402 -0.0711 -1.9595
 5892TIP3    H241872   2.036   4.897   2.945  0.2040 -0.1763  0.4917
 5893TIP3   OH241873   1.919   5.995   1.087 -0.5170 -0.4385  0.1524
 5893TIP3    H141874   1.875   6.073   1.121 -0.8880 -0.3753 -0.4595
 5893TIP3    H241875   1.898   5.994   0.993  0.3105 -0.7219 -0.0421
 5894TIP3   OH241876   3.742   6.345   0.045 -0.6945 -0.0416  0.4739
 5894TIP3    H141877   3.802   6.340   0.119 -0.7486 -1.9752  0.4372
 5894TIP3    H241878   3.744   6.437   0.019  0.8660  0.2838  1.5867
 5895TIP3   OH241879   4.377   3.727   8.705  0.3366 -0.6433 -0.2774
 5895TIP3    H141880   4.466   3.696   8.688  1.0799  0.8374  0.7615
 5895TIP3    H241881   4.354   3.777   8.627 -0.0388 -1.9533 -1.0277
 5896TIP3   OH241882   6.992   2.336   6.749 -0.2874 -0.0626 -0.5269
 5896TIP3    H141883   6.946   2.406   6.704  1.0689  0.9180 -0.4378
 5896TIP3    H241884   7.069   2.378   6.787  0.7607 -1.6637 -0.7864
 5897TIP3   OH241885   2.817   2.199   8.324 -0.4715  0.2567  0.5253
 5897TIP3    H141886   2.727   2.197   8.293  0.0056  1.8736 -1.0634
 5897TIP3    H241887   2.818   2.265   8.393 -0.0507  2.1105 -1.1712
 5898TIP3   OH241888   0.443   6.263   9.225 -0.6552  0.4206  0.0747
 5898TIP3    H141889   0.439   6.204   9.149 -1.4742 -0.1378  0.5328
 5898TIP3    H241890   0.528   6.245   9.264 -1.0973 -0.8910  0.5139
 5899TIP3   OH241891   0.960   6.673   7.228  0.0894 -0.6668  0.2606
 5899TIP3    H141892   0.994   6.614   7.161  0.7216 -1.0666  0.9154
 5899TIP3    H241893   0.944   6.617   7.303  1.7072  0.1241  1.2555
 5900TIP3   OH241894   4.169   2.381   9.991 -0.2323 -0.1995  0.6636
 5900TIP3    H141895   4.112   2.457  10.002  0.0823 -0.1536  2.2300
 5900TIP3    H241896   4.216   2.374  10.074  1.4711 -0.7054 -0.2753
 5901TIP3   OH241897   4.163   4.288   2.209 -0.2733 -0.4638  0.4243
 5901TIP3    H141898   4.179   4.373   2.250 -0.4700  0.4878 -1.3651
 5901TIP3    H241899   4.075   4.264   2.238 -1.3403  1.2831 -1.1091
 5902TIP3   OH241900   6.207   5.028   9.843  0.6201  0.0596 -0.3761
 5902TIP3    H141901   6.288   5.031   9.793  0.2086  0.1407 -1.0460
 5902TIP3    H241902   6.139   5.050   9.780  0.2258  1.6838  0.5345
 5903TIP3   OH241903   5.736   6.075   1.762  0.3753  0.1664  0.2535
 5903TIP3    H141904   5.754   6.124   1.843 -0.1484  0.5586  0.1354
 5903TIP3    H241905   5.644   6.094   1.743  0.9100  1.3434 -1.2949
 5904TIP3   OH241906   3.005   1.269   9.820 -0.2085 -0.3540 -0.4362
 5904TIP3    H141907   2.942   1.216   9.869 -1.7415  0.6449 -1.2346
 5904TIP3    H241908   3.081   1.212   9.808 -1.3077 -1.9284 -0.2001
 5905TIP3   OH241909   5.312   6.463   6.800  0.5213 -0.3190 -0.2133
 5905TIP3    H141910   5.251   6.513   6.854  2.2700  0.3297  1.2312
 5905TIP3    H241911   5.396   6.507   6.810  1.5087 -1.8716 -1.2058
 5906TIP3   OH241912   2.828   4.285   0.453  0.0408 -0.1160 -0.1009
 5906TIP3    H141913   2.826   4.294   0.548 -0.0410  1.2141 -0.2214
 5906TIP3    H241914   2.782   4.362   0.420  0.6132 -0.2449 -1.2409
 5907TIP3   OH241915   3.967   2.309   1.764  0.9674  0.3067  0.3331
 5907TIP3    H141916   3.999   2.225   1.796 -0.3307  0.2159  1.5089
 5907TIP3    H241917   3.969   2.366   1.841 -0.5313  0.6109  0.1841
 5908TIP3   OH241918   2.833   1.325   7.385  0.3090 -0.0733  0.3646
 5908TIP3    H141919   2.742   1.297   7.373 -0.3024  1.2961  1.4818
 5908TIP3    H241920   2.841   1.341   7.479  2.1449 -1.5042  0.5004
 5909TIP3   OH241921   1.793   3.764   0.432  0.2582  0.1461 -0.3233
 5909TIP3    H141922   1.816   3.713   0.510 -0.3652  1.0397  0.4868
 5909TIP3    H241923   1.825   3.852   0.452  1.9103 -0.0247 -1.9659
 5910TIP3   OH241924   0.587   5.220   8.458 -0.1413  0.4314  0.9240
 5910TIP3    H141925   0.565   5.136   8.498  0.2631 -0.2932 -0.3321
 5910TIP3    H241926   0.675   5.207   8.421  1.3689  2.4182  3.4850
 5911TIP3   OH241927   6.446   4.068   2.004  0.0107  0.3700  0.3202
 5911TIP3    H141928   6.480   4.056   2.092 -0.4958  2.1082  0.7842
 5911TIP3    H241929   6.353   4.085   2.015 -0.1758  0.0215 -0.5974
 5912TIP3   OH241930   2.707   0.967   1.408  0.3257  0.0212  0.0396
 5912TIP3    H141931   2.733   1.048   1.451  0.5990 -0.1758  0.2525
 5912TIP3    H241932   2.670   0.994   1.324  1.5589  0.2884 -0.4341
 5913TIP3   OH241933   3.297   5.904   1.765 -0.0747 -0.0443  0.1300
 5913TIP3    H141934   3.304   5.901   1.861  2.3048 -1.3642 -0.0154
 5913TIP3    H241935   3.265   5.992   1.746 -0.8076  0.1700  2.1237
 5914TIP3   OH241936   0.038   4.806   0.794 -0.1665  0.6326  0.2120
 5914TIP3    H141937   0.066   4.834   0.881  0.9866  0.9653 -0.2455
 5914TIP3    H241938   0.119   4.800   0.743 -0.6338 -1.1745 -0.4018
 5915TIP3   OH241939   2.994   0.393   7.899 -0.2160 -0.4106  0.3526
 5915TIP3    H141940   2.990   0.301   7.926  0.3657 -0.4936  0.1718
 5915TIP3    H241941   2.993   0.390   7.804  2.2437 -0.3930  0.2607
 5916TIP3   OH241942   3.628   7.278   0.008  0.7841  0.5644  0.1839
 5916TIP3    H141943   3.641   7.184   0.023 -1.2754 -0.0629 -1.4580
 5916TIP3    H241944   3.693   7.300  -0.059  0.0030 -0.1659 -0.8330
 5917TIP3   OH241945   6.908   6.816   0.612 -0.5335  0.4427 -0.0727
 5917TIP3    H141946   6.980   6.870   0.646 -0.2553 -0.3788  0.6715
 5917TIP3    H241947   6.916   6.733   0.659 -1.4430  0.0316 -0.6237
 5918TIP3   OH241948   1.285   3.574   8.903 -0.3375  0.5196 -0.2616
 5918TIP3    H141949   1.276   3.670   8.909 -1.0039  0.3834  1.2254
 5918TIP3    H241950   1.218   3.549   8.840 -0.8226  0.9471  0.0723
 5919TIP3   OH241951   2.436   0.965   8.260  0.2839  0.2253  0.5570
 5919TIP3    H141952   2.490   0.889   8.240 -0.1798  0.2581 -0.9771
 5919TIP3    H241953   2.369   0.966   8.191 -0.9365  0.8856  1.6991
 5920TIP3   OH241954   5.237   3.102   0.575  0.3487  0.0424 -0.0410
 5920TIP3    H141955   5.226   3.147   0.491 -1.2946 -0.7481 -0.2687
 5920TIP3    H241956   5.215   3.011   0.557  1.3568 -0.4228  0.9479
 5921TIP3   OH241957   4.800   5.073   9.958 -0.2951 -0.8075  0.2780
 5921TIP3    H141958   4.824   5.163   9.977 -1.3451 -0.4279 -0.1554
 5921TIP3    H241959   4.860   5.045   9.889 -1.4416  0.3207 -1.2199
 5922TIP3   OH241960   5.400   5.189   9.609 -0.3519  0.3286 -0.1434
 5922TIP3    H141961   5.350   5.271   9.613 -2.1042 -0.6932 -0.2644
 5922TIP3    H241962   5.437   5.188   9.521 -2.5357 -0.2095 -1.1244
 5923TIP3   OH241963   6.820   3.501   1.644 -0.0096 -0.9201  0.1857
 5923TIP3    H141964   6.737   3.493   1.596 -0.5841  0.0722  0.9626
 5923TIP3    H241965   6.799   3.471   1.733  0.4148 -0.5173  0.4264
 5924TIP3   OH241966   5.824   0.694   0.951 -0.2357 -0.3131 -0.3873
 5924TIP3    H141967   5.780   0.769   0.911 -1.9666 -0.2044  1.5464
 5924TIP3    H241968   5.910   0.728   0.976  0.3588 -0.0051 -2.6101
 5925TIP3   OH241969   4.122   5.606   6.910 -0.1259  0.0314 -0.7136
 5925TIP3    H141970   4.082   5.632   6.827  0.1138 -1.4596 -1.3238
 5925TIP3    H241971   4.198   5.553   6.885 -0.0262 -0.4118  0.4588
 5926TIP3   OH241972   0.357   2.205   3.086  0.3402 -0.5005  0.1278
 5926TIP3    H141973   0.308   2.268   3.140  0.7505  0.9466 -1.0984
 5926TIP3    H241974   0.373   2.131   3.144 -1.3077 -0.0447  1.2475
 5927TIP3   OH241975   2.655   2.780   1.408 -0.3201  0.4620 -0.5760
 5927TIP3    H141976   2.613   2.862   1.379 -1.1750  1.8951  3.9169
 5927TIP3    H241977   2.582   2.725   1.436  0.4280  0.2136  0.9916
 5928TIP3   OH241978   5.146   2.964   9.316  0.7273 -0.8486 -0.0119
 5928TIP3    H141979   5.063   3.000   9.348  1.4362  0.3756  0.4934
 5928TIP3    H241980   5.120   2.908   9.242 -0.6923 -1.7571  1.1167
 5929TIP3   OH241981   4.912   4.488   8.097 -0.1835 -0.0986  0.6813
 5929TIP3    H141982   4.880   4.404   8.063 -0.2143 -0.3947  1.4347
 5929TIP3    H241983   4.983   4.513   8.037  0.8765 -1.4276  1.3218
 5930TIP3   OH241984   0.914   4.073   3.160  0.3691 -0.0863 -0.9173
 5930TIP3    H141985   0.940   4.163   3.139 -0.6827  0.2951 -0.6435
 5930TIP3    H241986   0.888   4.076   3.252  0.2390 -0.6497 -0.9313
 5931TIP3   OH241987   6.312   6.974   8.793  0.6845 -0.5291 -0.3538
 5931TIP3    H141988   6.390   7.010   8.834 -0.3841 -0.4521  1.7597
 5931TIP3    H241989   6.310   6.882   8.820  0.0148 -0.5117 -0.3132
 5932TIP3   OH241990   4.728   6.678   1.923 -0.4001  0.5962  0.1026
 5932TIP3    H141991   4.685   6.600   1.888 -0.7596  0.7961  0.0938
 5932TIP3    H241992   4.666   6.712   1.988 -1.5261  2.4396 -1.8318
 5933TIP3   OH241993   1.675   3.286   7.924  0.1847  0.3945 -0.2077
 5933TIP3    H141994   1.637   3.364   7.883 -1.5958  0.7066  1.8695
 5933TIP3    H241995   1.608   3.256   7.985  1.2342 -2.2001 -0.2013
 5934TIP3   OH241996   1.845   6.008   0.796 -0.4720  0.7182 -0.1726
 5934TIP3    H141997   1.822   6.073   0.730 -1.0104 -0.6126 -1.3369
 5934TIP3    H241998   1.900   5.945   0.750 -0.4667  0.0140  0.7619
 5935TIP3   OH241999   3.449   0.182   9.237  0.2748  0.0059  0.2762
 5935TIP3    H142000   3.402   0.156   9.158  0.2099  0.5279  0.1408
 5935TIP3    H242001   3.506   0.254   9.209  1.4452 -0.8544  0.3497
 5936TIP3   OH242002   1.722   5.081   3.099 -0.3080 -0.0967 -0.4420
 5936TIP3    H142003   1.782   5.017   3.137  0.3353  0.9861  0.4299
 5936TIP3    H242004   1.757   5.166   3.125 -2.6125  0.5776  0.7971
 5937TIP3   OH242005   0.765   5.703   2.104 -0.1091 -0.8594  0.2744
 5937TIP3    H142006   0.776   5.701   2.009  1.7571 -0.6164  0.4373
 5937TIP3    H242007   0.730   5.616   2.126 -2.7971 -0.1511 -0.7934
 5938TIP3   OH242008   3.535   7.182   2.547 -0.0452  0.1214 -0.2018
 5938TIP3    H142009   3.479   7.210   2.620 -0.0223 -2.0003  0.6851
 5938TIP3    H242010   3.622   7.216   2.569 -0.1569 -0.0043  0.4584
 5939TIP3   OH242011   5.922   2.906   2.406 -0.3359  0.4622 -0.3144
 5939TIP3    H142012   5.845   2.851   2.425 -1.1433  1.4044 -0.8102
 5939TIP3    H242013   5.944   2.885   2.315  0.2735 -0.1289 -0.0371
 5940TIP3   OH242014   1.154   6.139   7.931  0.0684  0.1794  0.1227
 5940TIP3    H142015   1.073   6.189   7.944  0.6209  1.0504  0.2611
 5940TIP3    H242016   1.211   6.198   7.880 -0.5029 -1.5707 -2.8046
 5941TIP3   OH242017   6.448   0.819   1.259 -0.3464 -0.1664  0.0248
 5941TIP3    H142018   6.411   0.884   1.199 -0.7525  1.6348  2.0666
 5941TIP3    H242019   6.539   0.809   1.231 -0.8759 -0.4434 -1.6949
 5942TIP3   OH242020   2.882   0.307   7.373  0.1930  0.5044  0.1867
 5942TIP3    H142021   2.949   0.349   7.318  0.2004 -0.0064 -0.1980
 5942TIP3    H242022   2.805   0.300   7.316  0.6187 -1.2724 -0.2131
 5943TIP3   OH242023   7.102   0.860   0.213 -0.3853  0.0231  0.1494
 5943TIP3    H142024   7.148   0.782   0.244  0.9961  0.5614 -0.4659
 5943TIP3    H242025   7.144   0.882   0.130 -1.8802  0.4600 -0.5313
 5944TIP3   OH242026   5.870   2.267   9.875 -0.2279 -0.2410 -0.4283
 5944TIP3    H142027   5.887   2.215   9.954  1.4384 -0.4212 -0.8720
 5944TIP3    H242028   5.925   2.226   9.807 -0.7586  0.6113 -1.4005
 5945TIP3   OH242029   2.073   3.382   1.857  0.3001 -0.7110 -0.0589
 5945TIP3    H142030   2.158   3.426   1.864  0.3573 -0.8398  0.0841
 5945TIP3    H242031   2.045   3.397   1.767 -1.5783  3.0877  0.9513
 5946TIP3   OH242032   3.139   3.178   7.988 -0.1789  0.1511 -0.4726
 5946TIP3    H142033   3.168   3.160   7.899  0.8404 -0.8137  0.0349
 5946TIP3    H242034   3.094   3.262   7.982  1.2947  0.9089 -1.6180
 5947TIP3   OH242035   3.341   3.692   7.523 -0.3083  0.7345 -0.1435
 5947TIP3    H142036   3.391   3.618   7.489  0.3886  1.6616 -1.1819
 5947TIP3    H242037   3.261   3.694   7.471  1.0298  2.5291 -2.2828
 5948TIP3   OH242038   1.957   5.881   8.908 -0.2605  0.0731 -0.1208
 5948TIP3    H142039   1.886   5.830   8.869  0.2561  0.1092 -1.1381
 5948TIP3    H242040   1.951   5.966   8.865  0.0750  0.2532  0.1850
 5949TIP3   OH242041   0.071   2.942   7.523  0.0081  0.0944 -0.4552
 5949TIP3    H142042   0.029   3.027   7.508  1.2230  0.6848 -0.6733
 5949TIP3    H242043  -0.000   2.878   7.520 -0.9058  1.0910 -0.4306
 5950TIP3   OH242044   2.352   3.114   8.131  0.1999  0.1027 -0.4108
 5950TIP3    H142045   2.378   3.048   8.067  0.1810 -1.3275  0.9823
 5950TIP3    H242046   2.261   3.093   8.152  0.4239  0.0841  0.5961
 5951TIP3   OH242047   0.955   2.648   8.036 -0.3731  0.1005  0.4496
 5951TIP3    H142048   1.046   2.616   8.039 -0.3235  0.0662 -0.8704
 5951TIP3    H242049   0.904   2.571   8.012 -0.4491  0.6029 -1.1239
 5952TIP3   OH242050   0.999   2.016   1.263 -0.4554  0.2757 -0.4479
 5952TIP3    H142051   0.926   1.963   1.295 -1.0201  1.1373 -0.2748
 5952TIP3    H242052   1.045   1.959   1.201 -1.0757 -0.3905 -0.3074
 5953TIP3   OH242053   3.099   5.710   8.378  0.2418 -0.3533 -0.4609
 5953TIP3    H142054   3.071   5.655   8.451  0.4159 -2.1802 -1.7052
 5953TIP3    H242055   3.036   5.781   8.376 -1.6360 -1.9274 -0.4076
 5954TIP3   OH242056   6.323   4.294   6.505  0.3937 -0.5354  0.5258
 5954TIP3    H142057   6.387   4.364   6.516 -0.8479  0.3848  2.4991
 5954TIP3    H242058   6.363   4.218   6.547  1.9309 -1.2412 -1.9977
 5955TIP3   OH242059   3.082   6.774   0.060 -0.6383  0.7170 -0.2068
 5955TIP3    H142060   3.126   6.854   0.089  0.7019  0.3975 -1.2799
 5955TIP3    H242061   3.008   6.806   0.007 -0.4153  1.2393 -0.2092
 5956TIP3   OH242062   1.270   5.897   8.519  0.2180 -0.3189 -0.0087
 5956TIP3    H142063   1.335   5.965   8.500  0.0981 -0.2740 -0.2718
 5956TIP3    H242064   1.195   5.919   8.463 -0.0368 -0.3520  0.3175
 5957TIP3   OH242065   2.799   4.960   2.563 -0.0565 -0.5230 -0.6668
 5957TIP3    H142066   2.877   4.933   2.613  0.0603  1.1274  0.0964
 5957TIP3    H242067   2.745   4.881   2.560 -0.4159 -0.5683  2.7337
 5958TIP3   OH242068   0.650   2.787   0.341 -0.2228 -0.2036  0.0960
 5958TIP3    H142069   0.716   2.719   0.349 -1.2216 -1.2653 -0.3997
 5958TIP3    H242070   0.589   2.771   0.413 -1.4247 -0.9724 -1.0363
 5959TIP3   OH242071   5.476   6.180   9.756 -0.1766  0.6385 -0.5883
 5959TIP3    H142072   5.541   6.244   9.726 -0.2823  1.0250 -0.0241
 5959TIP3    H242073   5.392   6.217   9.728 -0.2238  0.6487 -0.4337
 5960TIP3   OH242074   4.978   1.743   0.843  0.3700  0.2796 -0.2647
 5960TIP3    H142075   4.976   1.688   0.765  0.2183 -1.0726  0.6692
 5960TIP3    H242076   5.049   1.707   0.896 -1.5889 -0.9496  1.6781
 5961TIP3   OH242077   5.315   5.540   8.402 -0.3271  0.0418 -0.2494
 5961TIP3    H142078   5.402   5.557   8.366  0.1013 -1.1301  0.1947
 5961TIP3    H242079   5.295   5.450   8.375 -1.3457  0.2490 -0.2343
 5962TIP3   OH242080   5.227   5.502   0.243  0.0169 -0.6353 -0.9465
 5962TIP3    H142081   5.180   5.487   0.324 -0.0560 -0.6740 -0.9961
 5962TIP3    H242082   5.320   5.495   0.267  0.0414  0.6247 -0.6015
 5963TIP3   OH242083   0.007   1.996   9.548  0.3528  0.4533 -0.4648
 5963TIP3    H142084  -0.005   1.913   9.502  1.5458  0.4742 -0.8735
 5963TIP3    H242085  -0.069   2.049   9.523 -2.0464 -1.4840  2.1821
 5964TIP3   OH242086   3.894   4.697   8.165  0.4441 -0.5560 -0.3137
 5964TIP3    H142087   3.825   4.669   8.104  0.5636 -2.5551  0.3719
 5964TIP3    H242088   3.852   4.764   8.219 -1.1481 -1.9844  0.3264
 5965TIP3   OH242089   2.453   0.332   0.596 -0.1860 -0.2685 -0.3263
 5965TIP3    H142090   2.514   0.377   0.537 -0.4818  0.2032 -0.2701
 5965TIP3    H242091   2.370   0.377   0.584 -0.2189 -0.0849  0.5622
 5966TIP3   OH242092   0.950   0.902   8.561  0.1832  0.2445 -0.1506
 5966TIP3    H142093   0.989   0.814   8.564 -0.3475  0.0178  1.5144
 5966TIP3    H242094   0.859   0.887   8.536  0.1303  0.3259 -0.0108
 5967TIP3   OH242095   5.774   7.130   9.621 -0.0010  0.3150  0.1388
 5967TIP3    H142096   5.822   7.050   9.642  0.3525  0.3322 -0.5576
 5967TIP3    H242097   5.742   7.162   9.705  1.0463  0.1893  0.6053
 5968TIP3   OH242098   0.138   1.947   0.647  0.8964 -0.2702  0.3747
 5968TIP3    H142099   0.207   1.971   0.585  0.2647  0.9262  0.1044
 5968TIP3    H242100   0.103   2.030   0.677  0.0226 -0.8555  1.0248
 5969TIP3   OH242101   6.935   2.131   0.104  0.3314 -0.0712 -0.7614
 5969TIP3    H142102   6.960   2.198   0.041  0.8993  0.2918 -0.1627
 5969TIP3    H242103   6.842   2.114   0.087  0.8549 -1.2147 -2.8194
 5970TIP3   OH242104   1.409   4.801   7.490 -0.4225 -0.4002  0.3972
 5970TIP3    H142105   1.493   4.847   7.484  0.6985 -2.3973 -0.3976
 5970TIP3    H242106   1.426   4.731   7.553 -1.9373 -0.0428  1.2384
 5971TIP3   OH242107   6.568   2.268   8.745  0.1887  0.0834  0.5367
 5971TIP3    H142108   6.584   2.195   8.686  0.5060  1.4490 -1.1306
 5971TIP3    H242109   6.649   2.275   8.796  0.7080  0.1536 -0.2859
 5972TIP3   OH242110   1.517   3.782   7.265 -0.1244  0.2349  0.0406
 5972TIP3    H142111   1.592   3.724   7.249 -2.3547 -2.2505 -2.3761
 5972TIP3    H242112   1.441   3.732   7.236 -2.5782  3.3999  0.4279
 5973TIP3   OH242113   0.555   1.462   8.751 -0.1502 -0.4913  0.5315
 5973TIP3    H142114   0.538   1.514   8.830  2.5403  0.1350  0.7899
 5973TIP3    H242115   0.600   1.522   8.692  2.5362 -2.2657  0.6021
 5974TIP3   OH242116   2.227   6.048   8.907 -0.5071 -0.3377 -0.4488
 5974TIP3    H142117   2.157   6.095   8.863  0.0580 -0.8618 -1.9921
 5974TIP3    H242118   2.307   6.095   8.882 -0.1513 -0.7745 -0.1524
 5975TIP3   OH242119   3.782   5.005   0.656  0.0261  0.6686  0.0572
 5975TIP3    H142120   3.845   4.954   0.604 -0.6122  1.2155 -1.2927
 5975TIP3    H242121   3.784   5.093   0.617 -0.3414  1.1556  1.0874
 5976TIP3   OH242122   2.876   0.386   6.744  0.0758 -0.6595  0.4073
 5976TIP3    H142123   2.825   0.315   6.705  1.0287 -0.4972 -1.2004
 5976TIP3    H242124   2.865   0.460   6.684  1.8093 -0.4858  0.2489
 5977TIP3   OH242125   7.128   0.062   1.362 -0.1520  0.5479 -0.4873
 5977TIP3    H142126   7.104  -0.029   1.347  0.7145  0.4335 -1.2845
 5977TIP3    H242127   7.046   0.106   1.384 -0.7751 -0.1889 -1.2806
 5978TIP3   OH242128   2.131   3.532   7.367  0.3682 -0.1357  0.0336
 5978TIP3    H142129   2.142   3.437   7.367 -1.4392 -0.3765 -0.6066
 5978TIP3    H242130   2.219   3.566   7.382  0.8927 -1.9112  1.4027
 5979TIP3   OH242131   1.847   6.614   1.360  0.3614  0.2904  0.3021
 5979TIP3    H142132   1.935   6.589   1.334  0.0420 -1.8513  1.1294
 5979TIP3    H242133   1.790   6.571   1.296 -0.1484  0.7226  0.4565
 5980TIP3   OH242134   5.624   0.909   9.724  0.0994  0.5014  0.2866
 5980TIP3    H142135   5.557   0.882   9.787  0.0207  0.0498  0.0126
 5980TIP3    H242136   5.579   0.969   9.665  0.2415  1.1360  0.8235
 5981TIP3   OH242137   3.278   6.125   0.673  0.0462 -0.7007  0.3443
 5981TIP3    H142138   3.241   6.117   0.585  1.4656 -0.2069 -0.3340
 5981TIP3    H242139   3.357   6.178   0.661  0.5896 -1.1162  1.8315
 5982TIP3   OH242140   7.127   1.295   8.338  0.4974 -0.0037  0.2153
 5982TIP3    H142141   7.112   1.243   8.259  1.7116  1.5608 -1.1345
 5982TIP3    H242142   7.159   1.232   8.403  2.7775 -0.8847 -1.6060
 5983TIP3   OH242143   1.385   5.231   6.840  0.0541 -0.0256 -0.1017
 5983TIP3    H142144   1.304   5.180   6.845 -0.2690  0.5314  0.5099
 5983TIP3    H242145   1.444   5.178   6.786 -0.2661 -1.0595  0.5426
 5984TIP3   OH242146   0.004   5.025   0.610  0.4278  0.3009  0.3147
 5984TIP3    H142147  -0.067   5.058   0.666 -2.0550 -1.4232 -1.6292
 5984TIP3    H242148   0.040   4.951   0.659 -0.9557 -0.4838  0.1889
 5985TIP3   OH242149   7.028   3.548   2.486 -0.1229 -1.0015 -0.0042
 5985TIP3    H142150   7.038   3.523   2.578  0.3363 -1.5520 -0.1966
 5985TIP3    H242151   6.937   3.527   2.465 -0.1451 -1.1534  0.2387
 5986TIP3   OH242152   1.474   5.370   7.761 -0.3653  0.2464 -0.2914
 5986TIP3    H142153   1.568   5.351   7.762 -0.3248  0.2763  2.0832
 5986TIP3    H242154   1.468   5.464   7.777 -0.8063  0.0582  0.7135
 5987TIP3   OH242155   2.510   2.438   2.525  0.6726 -0.1577  0.4068
 5987TIP3    H142156   2.432   2.401   2.482  1.4295 -2.5472  0.9239
 5987TIP3    H242157   2.478   2.468   2.610  0.0541  0.1892  0.0588
 5988TIP3   OH242158   4.922   4.794   1.095  0.3744 -0.0761 -0.0520
 5988TIP3    H142159   4.928   4.727   1.164  3.2646 -0.3545 -0.4494
 5988TIP3    H242160   4.984   4.862   1.123 -0.7634  1.3353 -0.8475
 5989TIP3   OH242161   4.905   5.588   7.068 -0.1287 -0.0795 -0.1520
 5989TIP3    H142162   4.935   5.498   7.082  1.4312  0.4142 -0.0407
 5989TIP3    H242163   4.915   5.602   6.974 -0.2586  0.0072 -0.1519
 5990TIP3   OH242164   0.175   4.603   9.615 -0.6397 -0.4520  0.4800
 5990TIP3    H142165   0.194   4.691   9.582  0.9214 -1.2547 -0.9052
 5990TIP3    H242166   0.097   4.576   9.565 -0.0276 -0.5288 -0.4658
 5991TIP3   OH242167   2.061   4.241   1.990  0.4317  0.2730 -0.3446
 5991TIP3    H142168   2.042   4.176   2.058 -1.4498  0.1771 -0.8952
 5991TIP3    H242169   2.052   4.193   1.908  0.1731  0.9497 -0.7230
 5992TIP3   OH242170   0.944   1.426   8.189  0.3957 -0.4803  0.1789
 5992TIP3    H142171   0.926   1.369   8.263 -0.3851  0.2651  0.5813
 5992TIP3    H242172   1.039   1.432   8.185  0.4363  0.3632  1.8292
 5993TIP3   OH242173   6.976   4.121   1.529 -0.7492  0.4307 -0.1391
 5993TIP3    H142174   7.017   4.045   1.570  1.5583  0.6937 -1.7971
 5993TIP3    H242175   7.021   4.196   1.566 -2.5999  1.0178  1.0301
 5994TIP3   OH242176   0.613   2.228   2.031  0.1701 -0.5407  0.3493
 5994TIP3    H142177   0.682   2.162   2.026  1.7788  1.1413 -0.8496
 5994TIP3    H242178   0.641   2.288   2.100 -0.7167 -0.4750  0.6657
 5995TIP3   OH242179   6.560   2.243   0.924  0.0939  1.2601 -0.0500
 5995TIP3    H142180   6.506   2.173   0.887  2.8830  0.0142 -2.1095
 5995TIP3    H242181   6.615   2.199   0.989 -0.8764  2.3787  1.5847
 5996TIP3   OH242182   5.434   2.814   8.381  0.0579  0.0839  0.2439
 5996TIP3    H142183   5.505   2.870   8.349  0.1397  1.3314  2.3625
 5996TIP3    H242184   5.475   2.758   8.447 -0.5299 -0.6981 -0.0368
 5997TIP3   OH242185   4.538   0.791   8.211  0.0240 -0.1864 -0.3084
 5997TIP3    H142186   4.474   0.720   8.216 -0.5774  0.3476 -0.2482
 5997TIP3    H242187   4.495   0.858   8.158  0.6625  0.0519 -0.5284
 5998TIP3   OH242188   4.774   1.815   8.143  0.2576  0.0761 -0.2146
 5998TIP3    H142189   4.739   1.740   8.191  0.0293  0.1773 -0.2215
 5998TIP3    H242190   4.736   1.891   8.187 -1.0671  0.1512 -1.3928
 5999TIP3   OH242191   5.396   5.135   0.380 -0.1751 -0.5910 -0.1566
 5999TIP3    H142192   5.368   5.191   0.308  0.2207  0.1248  0.2314
 5999TIP3    H242193   5.332   5.064   0.382 -0.7730 -0.0756 -0.5744
 6000TIP3   OH242194   2.294   4.254   0.610  0.2744  0.0233  0.4054
 6000TIP3    H142195   2.282   4.310   0.534  0.6047  2.4341  2.0294
 6000TIP3    H242196   2.381   4.216   0.598 -0.6655 -1.6896 -1.5953
 6001TIP3   OH242197   5.539   5.335   7.693 -0.3449  0.5899  0.4801
 6001TIP3    H142198   5.591   5.264   7.654 -0.3135  0.2736  1.0992
 6001TIP3    H242199   5.553   5.327   7.787 -0.7300  1.1192  0.5868
 6002TIP3   OH242200   2.021   3.078   9.643  0.6590  0.4049  0.0232
 6002TIP3    H142201   2.079   3.039   9.577 -1.8122 -2.4071 -0.7007
 6002TIP3    H242202   2.076   3.089   9.720  2.3698 -1.4054 -0.8409
 6003TIP3   OH242203   1.471   1.738   8.982  0.2270  0.6079 -0.4314
 6003TIP3    H142204   1.387   1.701   9.009  0.9944 -0.1205  1.1183
 6003TIP3    H242205   1.448   1.819   8.936 -1.2833  1.2275  1.2664
 6004TIP3   OH242206   4.218   1.482   2.282 -0.0993  0.2777 -0.2738
 6004TIP3    H142207   4.210   1.387   2.290 -0.7528  0.4347  1.4349
 6004TIP3    H242208   4.282   1.507   2.349 -1.8341  1.2419  1.1442
 6005TIP3   OH242209   2.786   0.620   1.110 -0.0418 -0.3938 -0.2032
 6005TIP3    H142210   2.756   0.625   1.201 -2.0118  1.6162 -0.8582
 6005TIP3    H242211   2.827   0.705   1.093 -3.0459  0.8416 -2.1402
 6006TIP3   OH242212   1.611   6.872   8.569  0.2107 -0.4379  0.4559
 6006TIP3    H142213   1.595   6.931   8.643  0.0708 -0.4480  0.4338
 6006TIP3    H242214   1.527   6.866   8.524  0.9603  1.9328 -1.4581
 6007TIP3   OH242215   6.247   7.242   8.247  0.4360 -0.4072 -0.0942
 6007TIP3    H142216   6.204   7.271   8.166 -0.0955 -0.0639  0.3104
 6007TIP3    H242217   6.337   7.276   8.239  0.1830  0.2547 -0.2163
 6008TIP3   OH242218   6.241   3.645   9.157 -0.4793  0.2362 -0.0835
 6008TIP3    H142219   6.192   3.572   9.196 -0.5298  0.2426 -0.1343
 6008TIP3    H242220   6.259   3.617   9.067 -2.7332  1.3099 -0.9545
 6009TIP3   OH242221   5.917   0.371   1.627  0.4471  0.3145 -0.0147
 6009TIP3    H142222   5.939   0.280   1.646  0.8317  0.1425 -1.1900
 6009TIP3    H242223   5.824   0.369   1.603  0.6524  0.0815 -0.8396
 6010TIP3   OH242224   1.846   0.670   1.013 -0.0415  0.1314  0.4250
 6010TIP3    H142225   1.870   0.590   1.059 -0.3035 -0.2788 -0.1476
 6010TIP3    H242226   1.751   0.664   1.002  0.2883 -1.0432 -2.4724
 6011TIP3   OH242227   6.308   2.617   0.926  0.4413 -0.1763  0.2244
 6011TIP3    H142228   6.350   2.628   0.841 -1.0150 -0.6426 -0.5920
 6011TIP3    H242229   6.341   2.533   0.958  1.0448  0.0327  0.1543
 6012TIP3   OH242230   1.692   6.732   9.543 -0.2134 -0.1154  0.0884
 6012TIP3    H142231   1.749   6.708   9.616  0.4563  0.5666 -0.1944
 6012TIP3    H242232   1.635   6.801   9.579 -0.4012 -0.3202  0.1820
 6013TIP3   OH242233   7.016   2.036   6.763  0.9845  0.1496  0.2941
 6013TIP3    H142234   7.107   2.043   6.733  1.5740  0.7081  2.1350
 6013TIP3    H242235   6.978   2.122   6.745  1.4707  0.6355  1.5405
 6014TIP3   OH242236   0.512   1.585   1.540  0.1519  0.4128 -0.0541
 6014TIP3    H142237   0.436   1.535   1.509 -0.7937  1.3371  0.6888
 6014TIP3    H242238   0.491   1.676   1.518  0.1758  0.9009  1.8119
 6015TIP3   OH242239   4.669   6.879   8.046 -0.1962 -0.0327  0.0593
 6015TIP3    H142240   4.727   6.889   7.971 -2.5375  0.5662 -1.7892
 6015TIP3    H242241   4.603   6.815   8.018 -1.3259  0.4391  1.4724
 6016TIP3   OH242242   6.079   2.406   9.668 -0.8474  0.7534 -0.2430
 6016TIP3    H142243   6.013   2.474   9.671  0.1781  1.8235 -1.0525
 6016TIP3    H242244   6.132   2.420   9.746 -1.9305 -0.5439  0.7920
 6017TIP3   OH242245   5.658   6.836   1.809  0.5571 -0.1544  0.8958
 6017TIP3    H142246   5.573   6.792   1.808  0.7541 -0.5497  1.1442
 6017TIP3    H242247   5.665   6.877   1.723 -0.3410  0.7756  1.2390
 6018TIP3   OH242248   7.108   7.039   1.378  0.2708  0.3478 -0.0193
 6018TIP3    H142249   7.086   6.950   1.408  1.4192  0.4000  1.0804
 6018TIP3    H242250   7.181   7.065   1.434  0.7813  1.5103 -1.1828
 6019TIP3   OH242251   0.260   2.742   7.461 -0.0277  0.2448  0.3094
 6019TIP3    H142252   0.219   2.821   7.496 -0.5304  1.0802 -1.9578
 6019TIP3    H242253   0.273   2.762   7.368 -0.4180 -2.4412 -0.3909
 6020TIP3   OH242254   3.169   2.520   0.858  0.0709  0.6808 -0.7137
 6020TIP3    H142255   3.095   2.486   0.908  1.2933 -0.8678  0.1472
 6020TIP3    H242256   3.229   2.446   0.851  1.7524  2.0072 -0.9631
 6021TIP3   OH242257   5.207   6.269   7.985  0.3540 -0.1719 -0.1533
 6021TIP3    H142258   5.157   6.337   8.029 -2.8377 -0.6695 -2.6215
 6021TIP3    H242259   5.268   6.316   7.928 -2.3846  0.8815 -2.4725
 6022TIP3   OH242260   1.175   4.996   1.532 -0.9559  0.0009  0.1352
 6022TIP3    H142261   1.227   5.051   1.592  0.4257 -2.0291  0.9318
 6022TIP3    H242262   1.165   5.049   1.453  1.6049  0.8587  0.2889
 6023TIP3   OH242263   0.337   1.906   8.370  0.1157 -0.6456  0.1859
 6023TIP3    H142264   0.343   1.972   8.301 -3.9380 -0.1838  0.0197
 6023TIP3    H242265   0.333   1.957   8.451 -1.6333 -0.6795  0.1617
 6024TIP3   OH242266   5.271   3.817   1.753  0.8526 -0.1678 -0.4911
 6024TIP3    H142267   5.245   3.875   1.681  0.2757 -0.0101 -0.1673
 6024TIP3    H242268   5.362   3.794   1.734  0.7771  0.0514 -1.1471
 6025TIP3   OH242269   5.848   4.276   7.184  0.1956 -0.3234  0.1799
 6025TIP3    H142270   5.857   4.319   7.269  2.4650  1.0750 -0.6600
 6025TIP3    H242271   5.829   4.348   7.123  2.3353 -0.6527 -0.9971
 6026TIP3   OH242272   0.761   4.762   9.191 -0.1120  0.3141 -0.1639
 6026TIP3    H142273   0.723   4.849   9.182 -0.3736  0.0763 -1.6103
 6026TIP3    H242274   0.697   4.704   9.149 -0.2591 -0.6759  1.3575
 6027TIP3   OH242275   2.818   2.385   8.532 -0.5913 -0.2472 -0.6432
 6027TIP3    H142276   2.759   2.456   8.557  0.4284 -0.0021  1.2860
 6027TIP3    H242277   2.873   2.422   8.463 -2.7928 -0.5817 -2.7178
 6028TIP3   OH242278   3.889   4.946   1.905  0.1409  0.3017 -0.2003
 6028TIP3    H142279   3.834   4.927   1.981  1.4467 -1.8513  0.2683
 6028TIP3    H242280   3.870   4.875   1.843  2.0755 -0.2648 -0.1893
 6029TIP3   OH242281   0.577   5.185   7.303 -0.3670 -0.0481 -0.1545
 6029TIP3    H142282   0.560   5.249   7.233  0.7930 -0.4882 -0.8738
 6029TIP3    H242283   0.597   5.238   7.380  0.4942  0.4751 -0.7200
 6030TIP3   OH242284   3.369   1.987   1.188  0.1621 -0.1919 -0.7504
 6030TIP3    H142285   3.283   1.984   1.230 -0.2441  1.4630 -1.3598
 6030TIP3    H242286   3.408   2.069   1.220  1.5406 -0.9362 -0.4649
 6031TIP3   OH242287   0.180   4.922   9.541 -0.4359  0.2369 -0.5258
 6031TIP3    H142288   0.092   4.947   9.511 -1.5189 -0.0434  2.1092
 6031TIP3    H242289   0.220   5.005   9.569 -0.1376  0.2667 -1.0312
 6032TIP3   OH242290   5.444   1.107   9.609 -0.0416  0.2729 -0.2169
 6032TIP3    H142291   5.394   1.052   9.549  0.7293 -0.5282 -0.1546
 6032TIP3    H242292   5.378   1.155   9.659 -0.6931  0.6156 -1.3888
 6033TIP3   OH242293   5.961   2.522   7.779  0.0816 -0.3784 -0.1329
 6033TIP3    H142294   6.008   2.572   7.713 -1.0965 -0.5474 -1.1390
 6033TIP3    H242295   5.926   2.588   7.840  1.0252 -0.2136  0.2456
 6034TIP3   OH242296   3.832   0.612   6.661  0.1623 -0.1171  0.4929
 6034TIP3    H142297   3.783   0.692   6.639 -1.0328 -0.8496  0.3911
 6034TIP3    H242298   3.765   0.551   6.692  0.1831 -2.7751 -3.8230
 6035TIP3   OH242299   2.437   0.288   8.200 -0.1399  0.0029  0.6309
 6035TIP3    H142300   2.431   0.198   8.231  0.9850 -0.8845 -1.5292
 6035TIP3    H242301   2.349   0.324   8.211 -1.7360 -2.6574 -2.0770
 6036TIP3   OH242302   1.138   1.697   9.935  0.2628 -0.0124 -0.4186
 6036TIP3    H142303   1.181   1.699  10.021 -0.3881 -0.7720 -0.0644
 6036TIP3    H242304   1.181   1.626   9.888 -0.7316 -0.9176  0.0163
 6037TIP3   OH242305   5.315   3.656   7.612  0.0771 -0.5042  0.7855
 6037TIP3    H142306   5.253   3.716   7.655 -0.7471 -0.7984  0.0493
 6037TIP3    H242307   5.314   3.578   7.666 -0.7114 -0.7514  0.4337
 6038TIP3   OH242308   5.045   5.340   1.953  0.0704  0.6433 -0.3237
 6038TIP3    H142309   4.995   5.263   1.926  1.0747  0.1589 -0.8498
 6038TIP3    H242310   5.090   5.368   1.874  2.3756 -0.2657  0.5779
 6039TIP3   OH242311   0.201   6.407   1.721 -0.3271 -0.2649 -0.3822
 6039TIP3    H142312   0.280   6.365   1.687 -0.1968 -1.0186  0.8020
 6039TIP3    H242313   0.224   6.500   1.727  0.0902 -0.3178 -1.0585
 6040TIP3   OH242314   6.138   1.252   1.026  0.4453  0.3893 -0.6245
 6040TIP3    H142315   6.184   1.326   0.985  1.9924  0.1426  0.5359
 6040TIP3    H242316   6.184   1.175   0.995 -0.4517 -0.0186 -0.9536
 6041TIP3   OH242317   3.362   0.518   8.354  0.7697 -0.3925 -0.5941
 6041TIP3    H142318   3.285   0.531   8.411  0.8671  1.3273 -0.7796
 6041TIP3    H242319   3.393   0.431   8.376 -0.2253 -0.4621  0.7448
 6042TIP3   OH242320   6.279   5.252   0.262 -0.3473 -0.3862  0.1899
 6042TIP3    H142321   6.203   5.220   0.312 -0.7754  1.4513  0.7723
 6042TIP3    H242322   6.255   5.237   0.171 -0.1954 -2.3858  0.4184
 6043TIP3   OH242323   5.166   2.698   0.997  0.6192  0.1379  0.6735
 6043TIP3    H142324   5.077   2.672   1.022 -0.0424  1.5777 -0.0986
 6043TIP3    H242325   5.195   2.631   0.935 -0.1500 -0.0267  0.4913
 6044TIP3   OH242326   0.994   3.426   0.761 -0.4784 -0.0105  0.5523
 6044TIP3    H142327   1.006   3.433   0.856  1.6103  0.3091  0.3017
 6044TIP3    H242328   0.906   3.390   0.751 -1.3052  1.2856  2.5653
 6045TIP3   OH242329   6.963   2.659   7.036 -0.4518 -0.1523  0.0770
 6045TIP3    H142330   7.034   2.675   6.975  0.1472  1.0569  1.0462
 6045TIP3    H242331   6.913   2.741   7.038 -0.6380 -0.2673  0.9615
 6046TIP3   OH242332   5.302   6.762   0.165  0.3625  0.1399 -0.1685
 6046TIP3    H142333   5.281   6.677   0.203 -2.2771  0.1108 -1.4727
 6046TIP3    H242334   5.351   6.807   0.234  0.8150 -1.9723  0.9839
 6047TIP3   OH242335   5.231   5.198   1.034  0.0080  0.4131 -0.3171
 6047TIP3    H142336   5.154   5.147   1.011  0.9208 -1.1212 -0.1326
 6047TIP3    H242337   5.284   5.199   0.955 -0.0972  1.2975 -0.3872
 6048TIP3   OH242338   5.881   3.419   1.998  0.5307 -0.5907 -0.3806
 6048TIP3    H142339   5.812   3.461   1.947  0.7084  0.9382  0.5619
 6048TIP3    H242340   5.835   3.354   2.051 -0.1853  0.2055  0.0153
 6049TIP3   OH242341   2.779   2.677   6.941  0.3923  0.3729  0.9127
 6049TIP3    H142342   2.837   2.739   6.899  0.0677  0.6736  0.9040
 6049TIP3    H242343   2.703   2.729   6.968 -1.0995 -0.4087 -1.3984
 6050TIP3   OH242344   0.025   0.720   0.813 -0.4259 -0.3489 -0.4194
 6050TIP3    H142345  -0.033   0.671   0.755 -0.7953 -2.3152  1.4624
 6050TIP3    H242346   0.106   0.670   0.813 -0.5981 -0.6878  1.0668
 6051TIP3   OH242347   4.459   2.357   0.948  0.2810 -0.5484 -0.2406
 6051TIP3    H142348   4.403   2.311   1.011  0.9619 -1.7232 -0.4513
 6051TIP3    H242349   4.534   2.299   0.936 -0.0602 -0.6174 -2.5276
 6052TIP3   OH242350   5.431   0.799   1.934 -0.3668  0.5432 -0.0192
 6052TIP3    H142351   5.418   0.892   1.912 -1.7251 -0.4782 -4.4851
 6052TIP3    H242352   5.345   0.759   1.921  0.3102 -1.4748  1.2878
 6053TIP3   OH242353   2.932   3.310   0.982 -0.0720 -0.2402  0.4902
 6053TIP3    H142354   2.998   3.242   0.965  0.0549 -0.2879  1.1428
 6053TIP3    H242355   2.960   3.384   0.927 -0.1076 -0.6442 -0.0838
 6054TIP3   OH242356   1.147   5.816   7.567  0.3011  0.8295 -0.0481
 6054TIP3    H142357   1.135   5.807   7.662 -2.0378 -2.1672 -0.4761
 6054TIP3    H242358   1.075   5.872   7.539  0.4632  0.9821 -0.1602
 6055TIP3   OH242359   6.006   2.986   1.559  0.2454 -0.5526  0.2827
 6055TIP3    H142360   6.028   3.004   1.650  0.2825  0.7617  0.0402
 6055TIP3    H242361   5.969   2.898   1.559 -0.2405 -0.3637  1.6457
 6056TIP3   OH242362   1.913   0.564   1.993  0.4130  1.1346 -0.2769
 6056TIP3    H142363   1.958   0.528   1.917 -0.9915  1.2014 -1.1713
 6056TIP3    H242364   1.930   0.501   2.064  0.0245 -0.0053 -1.1768
 6057TIP3   OH242365   5.472   1.520   2.939  0.0669  0.1158 -0.6532
 6057TIP3    H142366   5.407   1.574   2.984 -0.2629 -0.5917 -0.2542
 6057TIP3    H242367   5.500   1.573   2.864 -1.8091  0.0086 -1.4959
 6058TIP3   OH242368   6.432   4.540   0.269  0.5912  0.2854 -0.0234
 6058TIP3    H142369   6.524   4.513   0.263  1.2677  2.1185  1.2253
 6058TIP3    H242370   6.426   4.617   0.212 -0.9265 -1.4247 -2.3514
 6059TIP3   OH242371   5.438   1.882   8.071  0.1322  0.4831  0.2490
 6059TIP3    H142372   5.417   1.789   8.086 -1.0586  0.6784 -0.0827
 6059TIP3    H242373   5.372   1.911   8.008  1.0942  1.3172 -0.3847
 6060TIP3   OH242374   2.862   1.605   9.724 -0.6314 -0.3283  0.2086
 6060TIP3    H142375   2.826   1.557   9.798 -0.0569 -1.3562 -0.1515
 6060TIP3    H242376   2.814   1.573   9.648 -0.1301 -0.4620 -0.0595
 6061TIP3   OH242377   6.721   1.371   3.007 -0.1515 -0.8786  0.6570
 6061TIP3    H142378   6.776   1.296   2.985  0.9570  0.6827 -2.6842
 6061TIP3    H242379   6.637   1.353   2.965 -0.0576 -0.5183  0.3027
 6062TIP3   OH242380   0.408   6.176   0.506 -0.1615 -0.1028  0.2234
 6062TIP3    H142381   0.381   6.168   0.414  0.5957  0.7567 -0.0939
 6062TIP3    H242382   0.442   6.265   0.513  2.3989 -1.0075  0.6058
 6063TIP3   OH242383   2.954   0.099   1.061  0.2795 -0.4245 -0.0314
 6063TIP3    H142384   2.894   0.142   1.122 -1.9297 -1.2034 -1.4871
 6063TIP3    H242385   2.974   0.167   0.996 -0.0617 -0.4867 -0.2085
 6064TIP3   OH242386   6.937   0.111   0.190  0.0236  0.0097 -0.5427
 6064TIP3    H142387   6.970   0.058   0.118  0.5388 -0.7073  0.1956
 6064TIP3    H242388   6.914   0.048   0.258  1.5031  0.7381  0.7109
 6065TIP3   OH242389   2.486   5.053   1.321  0.4153 -0.0985 -0.7866
 6065TIP3    H142390   2.525   4.969   1.346  1.9708  0.7523 -0.1968
 6065TIP3    H242391   2.534   5.078   1.241 -0.7650 -0.2549 -1.5606
 6066TIP3   OH242392   2.310   5.942   9.947  0.1598  0.0759 -0.3987
 6066TIP3    H142393   2.379   6.003   9.974  0.7018 -0.6716 -0.0652
 6066TIP3    H242394   2.327   5.863   9.999 -0.9598 -0.1085 -0.2975
 6067TIP3   OH242395   6.188   4.853   1.010  0.0409 -0.4627 -0.1352
 6067TIP3    H142396   6.189   4.923   1.076  1.3589 -0.9939  0.4199
 6067TIP3    H242397   6.173   4.900   0.928 -1.7439  0.2005  0.5120
 6068TIP3   OH242398   5.875   0.779   2.803 -0.2982  0.4579  0.6250
 6068TIP3    H142399   5.904   0.829   2.726 -0.4176  0.4361  0.5652
 6068TIP3    H242400   5.790   0.818   2.826 -0.8824 -0.3752 -0.0389
 6069TIP3   OH242401   4.216   5.930   2.582  0.2235 -0.6407 -0.7103
 6069TIP3    H142402   4.284   5.863   2.579  0.4781 -0.5497  1.4852
 6069TIP3    H242403   4.134   5.880   2.585  0.2890 -0.7912 -1.3235
 6070TIP3   OH242404   6.390   3.108   0.836  1.3140  0.2985  0.0316
 6070TIP3    H142405   6.423   3.018   0.840 -1.1737 -0.6588  1.2850
 6070TIP3    H242406   6.296   3.098   0.819  0.8533  2.6483  0.8359
 6071TIP3   OH242407   2.085   2.589   0.639 -0.2989 -0.5016 -0.0570
 6071TIP3    H142408   2.065   2.607   0.547  1.1712 -0.2115 -0.3394
 6071TIP3    H242409   2.001   2.596   0.683 -1.4631 -2.7364 -1.6811
 6072TIP3   OH242410   2.314   2.152   0.583  0.3262 -0.4527 -0.2431
 6072TIP3    H142411   2.383   2.133   0.519  0.5931 -2.3470  0.5580
 6072TIP3    H242412   2.360   2.183   0.661  0.2571 -1.4037  0.1820
 6073TIP3   OH242413   3.939   5.155   8.467  0.1178 -0.0421  0.0290
 6073TIP3    H142414   3.908   5.095   8.536  1.1816 -2.1523 -1.2146
 6073TIP3    H242415   3.863   5.166   8.410 -0.1992  0.1027  0.4737
 6074TIP3   OH242416   4.517   6.085   0.369  0.1553  0.5794  0.9783
 6074TIP3    H142417   4.607   6.052   0.379 -0.2540 -0.5272  1.1654
 6074TIP3    H242418   4.502   6.086   0.275  0.1665  0.1864  0.9694
 6075TIP3   OH242419   2.372   5.257   0.702 -0.2483 -0.4454 -0.2489
 6075TIP3    H142420   2.415   5.237   0.784 -0.0736  0.3529 -0.1353
 6075TIP3    H242421   2.424   5.213   0.635 -0.8212 -1.7202  0.1242
 6076TIP3   OH242422   6.474   2.148   8.134 -0.6628 -0.2462 -0.2768
 6076TIP3    H142423   6.413   2.182   8.070 -2.1792 -0.9105  0.7590
 6076TIP3    H242424   6.446   2.058   8.149 -1.8092  0.5128  2.9347
 6077TIP3   OH242425   6.192   3.059   1.366 -0.7647  0.1603 -0.4677
 6077TIP3    H142426   6.113   3.025   1.408 -0.9265  0.3523 -0.6171
 6077TIP3    H242427   6.260   2.996   1.389 -0.8920  0.1633 -0.0731
 6078TIP3   OH242428   2.880   4.089   2.188  0.5938 -0.2673 -0.3773
 6078TIP3    H142429   2.910   4.153   2.253 -0.3798  1.0145 -1.1317
 6078TIP3    H242430   2.885   4.136   2.105 -0.6705 -0.9768 -0.8811
 6079TIP3   OH242431   6.707   4.027   2.558  0.1237  0.1990 -0.7281
 6079TIP3    H142432   6.613   4.019   2.545  0.1452 -0.6863 -0.4251
 6079TIP3    H242433   6.717   4.095   2.625 -0.3796 -0.5472  0.1351
 6080TIP3   OH242434   2.703   5.971   9.748  0.1057  0.5053  0.1094
 6080TIP3    H142435   2.621   5.965   9.797  0.4101  1.1025  0.7245
 6080TIP3    H242436   2.677   5.981   9.657 -0.4710 -2.7831 -0.2116
 6081TIP3   OH242437   2.092   5.692   1.358 -0.6124  0.7852  0.3164
 6081TIP3    H142438   2.077   5.701   1.264 -0.7174 -0.7303  0.1680
 6081TIP3    H242439   2.006   5.674   1.395 -0.3583 -0.0986  0.5007
 6082TIP3   OH242440   6.145   3.520   7.862 -0.0293  0.2066 -0.2156
 6082TIP3    H142441   6.185   3.580   7.924 -0.8199  0.2542  0.2624
 6082TIP3    H242442   6.093   3.460   7.916 -1.4847  0.8250 -0.8753
 6083TIP3   OH242443   0.908   0.517   1.243  0.2259  0.0422 -0.0165
 6083TIP3    H142444   0.830   0.510   1.298  0.5143 -0.5387  0.3266
 6083TIP3    H242445   0.919   0.431   1.204  0.6504  0.1380 -0.1190
 6084TIP3   OH242446   2.882   5.764   7.063 -0.3580 -0.3915 -0.3288
 6084TIP3    H142447   2.974   5.738   7.069 -0.2729 -0.2099 -0.8196
 6084TIP3    H242448   2.877   5.820   6.985 -0.6261  0.6793  0.4266
 6085TIP3   OH242449   6.937   1.414   7.081  0.5982  0.1591  0.8130
 6085TIP3    H142450   6.920   1.320   7.085 -1.1476  0.4658  3.5084
 6085TIP3    H242451   6.866   1.449   7.026 -0.6457  0.1592  2.3454
 6086TIP3   OH242452   3.816   1.761   2.000  0.8539 -0.2385  0.2972
 6086TIP3    H142453   3.784   1.837   1.951  0.0089 -1.0149 -0.4088
 6086TIP3    H242454   3.800   1.783   2.091  0.8134  0.5255  0.1116
 6087TIP3   OH242455   5.628   1.825   2.898 -0.1139 -0.1695 -0.4473
 6087TIP3    H142456   5.624   1.767   2.822  1.0074 -1.0493  0.1307
 6087TIP3    H242457   5.555   1.797   2.953 -0.0994 -0.4451 -0.5690
 6088TIP3   OH242458   3.975   4.770   9.708  0.2461 -0.4092 -0.1212
 6088TIP3    H142459   3.996   4.790   9.616 -1.4803  0.5812 -0.3350
 6088TIP3    H242460   3.880   4.777   9.713  0.2370 -1.2561  1.5823
 6089TIP3   OH242461   6.310   4.907   1.819 -0.0588  0.9756  0.1468
 6089TIP3    H142462   6.395   4.863   1.828 -0.6072 -0.6642 -1.7761
 6089TIP3    H242463   6.272   4.904   1.907  1.7255  1.4964  0.9815
 6090TIP3   OH242464   7.274   7.102   8.037  0.3953  0.0984 -0.4743
 6090TIP3    H142465   7.297   7.039   7.969 -0.5255 -0.5185 -0.2314
 6090TIP3    H242466   7.188   7.134   8.011  0.1001 -0.0395  0.3325
 6091TIP3   OH242467   3.911   2.112   7.496 -0.0410  0.1768  0.5419
 6091TIP3    H142468   3.904   2.125   7.590  1.5159  0.8384  0.6058
 6091TIP3    H242469   3.853   2.177   7.457  0.9113  1.3539  1.0292
 6092TIP3   OH242470   5.516   6.781   0.316  0.3903 -0.1196  0.1653
 6092TIP3    H142471   5.506   6.855   0.376 -2.6845 -0.2848  0.0228
 6092TIP3    H242472   5.566   6.817   0.242  0.0270  1.4935  0.6523
 6093TIP3   OH242473   5.612   4.392   9.394 -0.5306  0.0592 -0.5418
 6093TIP3    H142474   5.599   4.315   9.339  0.3277 -1.2880  1.0398
 6093TIP3    H242475   5.664   4.360   9.468  0.0079  2.2092  0.0821
 6094TIP3   OH242476   5.973   5.085   8.177 -0.3776 -0.1053  0.0279
 6094TIP3    H142477   6.018   5.040   8.106  0.3518  0.7744 -0.0859
 6094TIP3    H242478   5.933   5.162   8.136  1.6688  1.4847  0.8382
 6095TIP3   OH242479   0.076   2.811   8.592 -0.2606  0.6592 -0.2051
 6095TIP3    H142480   0.113   2.788   8.507  0.8422  2.0908 -0.1430
 6095TIP3    H242481   0.132   2.766   8.655 -1.5051 -0.9935 -0.1968
 6096TIP3   OH242482   0.688   5.382   2.562 -0.2385 -0.2362  0.0645
 6096TIP3    H142483   0.599   5.396   2.594 -0.5206  1.0300 -1.1721
 6096TIP3    H242484   0.744   5.413   2.633 -0.8151  0.6443  0.1487
 6097TIP3   OH242485   6.726   3.192   7.426 -0.4713  0.4011 -0.2306
 6097TIP3    H142486   6.771   3.252   7.485  0.2052  1.8227 -2.0946
 6097TIP3    H242487   6.712   3.242   7.346  1.4671 -2.2996 -2.4799
 6098TIP3   OH242488   4.279   1.391   0.352  0.4074  0.3553  0.0783
 6098TIP3    H142489   4.354   1.386   0.411 -0.6032 -0.3845  1.3778
 6098TIP3    H242490   4.208   1.349   0.401 -1.3502  2.6586 -0.3386
 6099TIP3   OH242491   7.267   6.362   8.123  0.2296  0.1506  0.0560
 6099TIP3    H142492   7.257   6.363   8.218 -0.1286 -1.2385  0.0460
 6099TIP3    H242493   7.336   6.298   8.106  2.7725  2.8208 -0.4698
 6100TIP3   OH242494   1.722   2.068   2.487 -0.4634 -0.3104  0.1257
 6100TIP3    H142495   1.726   2.156   2.525 -0.5133  0.7854 -2.1974
 6100TIP3    H242496   1.632   2.059   2.456 -0.4822 -1.2189  0.4372
 6101TIP3   OH242497   4.580   4.983   9.550  0.2241  0.8136 -0.3279
 6101TIP3    H142498   4.630   4.984   9.469  0.7633 -0.0136 -0.0238
 6101TIP3    H242499   4.494   4.948   9.525  0.2251  1.0209 -0.6238
 6102TIP3   OH242500   0.762   5.664   9.346  0.4458  0.5659  0.5150
 6102TIP3    H142501   0.715   5.645   9.428  2.1482 -1.8154  1.0568
 6102TIP3    H242502   0.849   5.692   9.374  0.2551  2.3403 -0.5074
 6103TIP3   OH242503   3.814   4.784   0.167  0.0787  0.5352 -0.1174
 6103TIP3    H142504   3.790   4.703   0.212 -0.6922  0.0287 -1.3859
 6103TIP3    H242505   3.745   4.798   0.103  0.2952  2.1195 -0.0531
 6104TIP3   OH242506   3.035   4.726   0.299  0.3617 -0.2424 -0.0530
 6104TIP3    H142507   3.023   4.729   0.205 -1.9002  0.8523  0.2179
 6104TIP3    H242508   3.130   4.718   0.311  0.8927  1.6143 -2.3893
 6105TIP3   OH242509   3.680   5.045   9.089  0.0804 -0.4993  0.4639
 6105TIP3    H142510   3.761   5.023   9.043  1.2252 -2.3857  3.1343
 6105TIP3    H242511   3.695   5.132   9.126 -0.0341  0.0983 -0.8165
 6106TIP3   OH242512   6.432   3.233   1.104  0.0116  0.8186 -0.2849
 6106TIP3    H142513   6.514   3.189   1.125 -0.1396 -0.2479 -1.7670
 6106TIP3    H242514   6.382   3.170   1.052 -1.5211  1.6463  0.0935
 6107TIP3   OH242515   0.814   2.495   0.346 -0.4750  0.4141  0.1669
 6107TIP3    H142516   0.803   2.401   0.361 -0.2362  0.4272  0.4201
 6107TIP3    H242517   0.798   2.535   0.431  1.9090  0.4082  0.6861
 6108TIP3   OH242518   0.967   5.698   0.857 -0.4412  0.8530  0.6912
 6108TIP3    H142519   0.879   5.725   0.828 -0.3402  1.5482  1.0292
 6108TIP3    H242520   0.951   5.618   0.907 -0.9663  1.3337  1.3165
 6109TIP3   OH242521   7.129   0.292   1.945 -0.7995  0.0786 -0.3217
 6109TIP3    H142522   7.149   0.385   1.957 -2.3466  0.3413  0.4799
 6109TIP3    H242523   7.038   0.291   1.915 -0.8106 -1.1893 -0.3069
 6110TIP3   OH242524   1.504   5.455   6.358 -0.2907 -0.4674  0.6567
 6110TIP3    H142525   1.461   5.537   6.385 -0.5330 -0.5246  0.4511
 6110TIP3    H242526   1.594   5.464   6.389 -0.7346 -0.8380  2.1620
 6111TIP3   OH242527   6.715   4.223   1.575  0.1570 -0.3268 -0.4703
 6111TIP3    H142528   6.720   4.303   1.523 -0.5442 -1.0732 -1.7420
 6111TIP3    H242529   6.795   4.175   1.553 -0.7790 -1.2771 -2.0177
 6112TIP3   OH242530   5.822   0.685   8.879  0.3553 -0.0794  0.2126
 6112TIP3    H142531   5.731   0.691   8.909  0.0341 -1.6304 -0.3418
 6112TIP3    H242532   5.843   0.592   8.886  2.2226  0.3752  1.1745
 6113TIP3   OH242533   6.389   0.039   0.132  0.1572  0.9201 -0.0980
 6113TIP3    H142534   6.345  -0.046   0.141  0.8652  0.6758  1.4375
 6113TIP3    H242535   6.413   0.044   0.040 -0.3322 -0.3409 -0.3103
 6114TIP3   OH242536   1.901   3.034   0.962  0.3804 -0.8505 -0.1453
 6114TIP3    H142537   1.873   3.091   1.034  0.7018 -1.0806  0.1641
 6114TIP3    H242538   1.875   3.081   0.883 -0.2901 -0.7567  0.1260
 6115TIP3   OH242539   2.246   6.825   7.673 -0.0539 -0.7341 -0.1478
 6115TIP3    H142540   2.259   6.842   7.766 -1.3158 -0.7890  0.0612
 6115TIP3    H242541   2.185   6.893   7.644  1.2680  0.0438 -1.2460
 6116TIP3   OH242542   5.588   1.687   8.255 -0.1728  0.4877 -0.2043
 6116TIP3    H142543   5.527   1.624   8.218  0.0368 -0.4587  1.0288
 6116TIP3    H242544   5.533   1.759   8.285 -0.4573  0.6875 -1.1513
 6117TIP3   OH242545   7.273   2.270   9.851 -0.2310  0.4281  0.3860
 6117TIP3    H142546   7.353   2.322   9.848 -1.0771  1.8285  1.0300
 6117TIP3    H242547   7.223   2.300   9.775 -1.1992  1.4002  1.3713
 6118TIP3   OH242548   3.055   3.500   9.324  0.6042 -0.3782 -0.2002
 6118TIP3    H142549   3.089   3.485   9.412  0.8173  0.4293 -0.1364
 6118TIP3    H242550   3.081   3.589   9.303  0.6830 -0.6146 -1.1484
 6119TIP3   OH242551   4.576   3.137   8.037 -0.1612  0.1823  0.6336
 6119TIP3    H142552   4.660   3.114   7.997  0.1203  0.8730  0.8203
 6119TIP3    H242553   4.523   3.058   8.026 -0.5801  0.7487 -2.4027
 6120TIP3   OH242554   4.632   0.337   2.518 -0.2611  0.3999 -0.0661
 6120TIP3    H142555   4.618   0.391   2.440 -0.7759 -0.4975 -0.6090
 6120TIP3    H242556   4.724   0.312   2.514 -0.0978  0.9663  0.0251
 6121TIP3   OH242557   6.738   2.109   2.133 -0.1771 -0.4570  0.7081
 6121TIP3    H142558   6.663   2.051   2.120 -0.4140  0.1260 -0.8769
 6121TIP3    H242559   6.812   2.062   2.094  0.2223 -0.8521  1.8984
 6122TIP3   OH242560   3.027   5.200   7.934  0.1202  0.2010  0.0511
 6122TIP3    H142561   3.001   5.224   8.022 -0.0288  1.4133 -0.3024
 6122TIP3    H242562   3.079   5.275   7.903  1.2387 -0.7467 -0.4384
 6123TIP3   OH242563   2.898   4.792   0.792 -0.0942  0.6069  0.0617
 6123TIP3    H142564   2.806   4.795   0.768  0.0871  0.5837 -0.6472
 6123TIP3    H242565   2.912   4.872   0.844 -0.3107  1.0577 -0.5613
 6124TIP3   OH242566   0.333   1.434   1.407 -0.2136  0.5391  0.5945
 6124TIP3    H142567   0.343   1.348   1.366 -1.0389  1.2113 -1.0782
 6124TIP3    H242568   0.239   1.446   1.418 -0.2006  1.7369 -0.3595
 6125TIP3   OH242569   4.848   2.898   9.196 -0.1933 -0.0553  1.0703
 6125TIP3    H142570   4.888   2.973   9.240  1.4026 -0.7584  0.8577
 6125TIP3    H242571   4.870   2.909   9.104 -1.2026 -0.0428  0.8152
 6126TIP3   OH242572   5.924   5.013   0.612  0.1323  0.3033 -0.6323
 6126TIP3    H142573   5.874   5.051   0.684 -0.0303 -1.1967  0.0688
 6126TIP3    H242574   5.881   5.045   0.533 -0.2119  1.2691 -0.0682
 6127TIP3   OH242575   0.810   3.297   9.235  0.1115 -0.4077  0.3631
 6127TIP3    H142576   0.724   3.291   9.193 -0.5014 -1.1124  1.6792
 6127TIP3    H242577   0.842   3.385   9.211 -0.7695 -0.3011 -0.4846
 6128TIP3   OH242578   3.465   6.070   7.320  0.3385  0.0610 -0.3370
 6128TIP3    H142579   3.391   6.091   7.376  0.4187  1.3409 -0.6792
 6128TIP3    H242580   3.518   6.009   7.372 -1.9264 -2.5686 -0.8632
 6129TIP3   OH242581   1.622   7.253   0.089 -0.5077  0.0636 -0.4819
 6129TIP3    H142582   1.541   7.296   0.062  0.3104  0.9817 -1.6147
 6129TIP3    H242583   1.595   7.167   0.120 -1.9654  0.5479 -0.3335
 6130TIP3   OH242584   6.263   4.601   0.959  0.1466 -0.3191  0.5652
 6130TIP3    H142585   6.225   4.683   0.991  1.8623  0.5095  0.5899
 6130TIP3    H242586   6.262   4.609   0.864  0.4487 -0.2045  0.5715
 6131TIP3   OH242587   6.046   0.066   8.876 -0.5915  0.4099  0.2967
 6131TIP3    H142588   6.054   0.159   8.899  2.0315 -0.0627  1.6935
 6131TIP3    H242589   6.087   0.020   8.949 -1.3464 -1.8363 -0.6277
 6132TIP3   OH242590   5.479   1.789   1.417  0.2220  0.1002  0.4217
 6132TIP3    H142591   5.393   1.803   1.377  0.4819  2.2294  0.4832
 6132TIP3    H242592   5.541   1.801   1.345  0.5354  0.1838  0.7052
 6133TIP3   OH242593   1.294   0.384   9.257 -0.5535  0.0653 -0.4823
 6133TIP3    H142594   1.290   0.466   9.209  0.7214  0.4807  0.0907
 6133TIP3    H242595   1.378   0.345   9.230  0.1177  0.2433  1.2633
 6134TIP3   OH242596   5.113   2.441   8.155  0.2247  0.2807  0.1103
 6134TIP3    H142597   5.043   2.435   8.221  0.7357  1.1199  0.7524
 6134TIP3    H242598   5.076   2.399   8.077  0.5917 -3.3167  1.6767
 6135TIP3   OH242599   5.652   2.446   9.125  0.1669  0.6086  0.1497
 6135TIP3    H142600   5.647   2.371   9.066  1.4908  0.2194  0.5227
 6135TIP3    H242601   5.581   2.503   9.096  0.0941 -0.0915 -1.1021
 6136TIP3   OH242602   0.821   2.669   1.948  0.1512  0.1130  0.2173
 6136TIP3    H142603   0.871   2.587   1.948 -0.2990 -0.1823 -1.1195
 6136TIP3    H242604   0.871   2.728   1.892  0.0655  0.4994  0.5432
 6137TIP3   OH242605   2.263   2.588   1.825 -0.4029  0.0275  0.4991
 6137TIP3    H142606   2.289   2.524   1.758 -2.0814  1.1998 -1.3753
 6137TIP3    H242607   2.345   2.612   1.867  0.4697 -2.1936  0.2078
 6138TIP3   OH242608   0.685   0.476   1.365 -0.4593 -0.4701 -0.0683
 6138TIP3    H142609   0.653   0.566   1.355 -2.9599 -1.3408 -0.7324
 6138TIP3    H242610   0.638   0.442   1.441 -1.3637 -1.8796 -1.1905
 6139TIP3   OH242611   1.140   6.958   0.463 -0.4696 -1.1615  0.0522
 6139TIP3    H142612   1.186   6.974   0.380 -0.9823 -2.4301 -0.5017
 6139TIP3    H242613   1.136   6.863   0.470 -0.0501 -1.0814  1.7719
 6140TIP3   OH242614   1.713   6.349   0.120  0.0377 -0.4186  0.3963
 6140TIP3    H142615   1.665   6.277   0.161 -0.6380 -0.2212 -0.0269
 6140TIP3    H242616   1.746   6.401   0.193 -1.4129  0.1067  0.7125
 6141TIP3   OH242617   2.007   3.380   9.588  0.5131 -0.1573 -0.0357
 6141TIP3    H142618   1.991   3.287   9.602  2.2041 -0.5695 -0.6149
 6141TIP3    H242619   2.090   3.397   9.634  1.4142  0.5080 -1.8168
 6142TIP3   OH242620   2.765   5.644   9.067 -0.5596 -0.0627  0.2567
 6142TIP3    H142621   2.691   5.629   9.008 -0.2689 -0.3816 -0.0278
 6142TIP3    H242622   2.760   5.737   9.089 -0.7721  0.0157 -0.1263
 6143TIP3   OH242623   2.051   5.590   9.702 -0.4617 -0.1936 -0.1996
 6143TIP3    H142624   2.118   5.528   9.673 -0.0200  0.7110 -1.2432
 6143TIP3    H242625   2.087   5.628   9.782 -0.5358 -0.9552  0.2032
 6144TIP3   OH242626   4.525   4.424   9.740  0.2436 -0.3307  0.5931
 6144TIP3    H142627   4.495   4.491   9.801 -0.0075  0.0456  0.0619
 6144TIP3    H242628   4.584   4.471   9.681  0.4175 -0.6755  0.4912
 6145TIP3   OH242629   2.313   6.482   9.517  0.4119 -0.5473 -0.1117
 6145TIP3    H142630   2.346   6.393   9.505 -0.5111 -0.5638 -3.4658
 6145TIP3    H242631   2.219   6.474   9.502 -0.0799  0.6525  2.0478
 6146TIP3   OH242632   3.347   0.401   1.793  0.0677  0.4065  0.1698
 6146TIP3    H142633   3.425   0.417   1.846  0.6885  0.2970 -0.6999
 6146TIP3    H242634   3.355   0.462   1.720  0.4586 -1.1018 -1.0813
 6147TIP3   OH242635   1.019   5.684   7.210 -0.1396 -0.5113 -0.2029
 6147TIP3    H142636   0.939   5.634   7.230  0.2774 -0.7963  0.8322
 6147TIP3    H242637   0.987   5.763   7.166 -0.8467 -1.4492 -1.4143
 6148TIP3   OH242638   0.082   3.193   7.142  0.0466  0.1653 -0.3282
 6148TIP3    H142639   0.028   3.201   7.063 -0.9868  0.1629  0.3651
 6148TIP3    H242640   0.153   3.135   7.116 -1.2616 -1.3088 -0.7637
 6149TIP3   OH242641   4.291   3.473   8.766 -0.4315 -0.4993  0.2673
 6149TIP3    H142642   4.334   3.554   8.738  0.9701 -1.3556 -0.1761
 6149TIP3    H242643   4.207   3.501   8.800 -0.4335  1.0371 -0.8812
 6150TIP3   OH242644   2.579   7.126   6.664 -0.2253  0.3924  0.3793
 6150TIP3    H142645   2.562   7.033   6.648 -2.7011  0.7385  0.6344
 6150TIP3    H242646   2.670   7.128   6.694 -0.2969 -2.0154  1.0219
 6151TIP3   OH242647   3.848   2.464   1.973 -0.1224  0.2696  0.2638
 6151TIP3    H142648   3.877   2.398   2.036 -3.2040  0.4674  2.1108
 6151TIP3    H242649   3.889   2.545   2.002  0.9533 -0.2032  0.0879
 6152TIP3   OH242650   2.904   5.793   0.221 -0.3308  0.6023  0.4949
 6152TIP3    H142651   2.867   5.820   0.138 -1.3266  0.7765  0.9803
 6152TIP3    H242652   2.838   5.735   0.259 -0.1125  0.9192  1.3838
 6153TIP3   OH242653   5.643   4.659   2.255  0.2278  0.3485 -0.5756
 6153TIP3    H142654   5.654   4.737   2.309  0.6572  1.2959 -1.9741
 6153TIP3    H242655   5.607   4.593   2.315  2.7434  0.6131  1.4370
 6154TIP3   OH242656   7.060   0.653   2.245  0.0284  0.4763 -0.9378
 6154TIP3    H142657   6.973   0.691   2.261  0.6993  1.5728  0.3746
 6154TIP3    H242658   7.105   0.662   2.329  0.2296 -3.4475 -0.4758
 6155TIP3   OH242659   1.254   6.665   7.489  0.0170  0.0561 -0.1980
 6155TIP3    H142660   1.167   6.663   7.528 -1.2737 -0.2101 -2.8090
 6155TIP3    H242661   1.304   6.727   7.542 -2.1672  1.1851  0.6285
 6156TIP3   OH242662   4.131   2.358   7.637  0.3320  0.1435  0.0985
 6156TIP3    H142663   4.089   2.291   7.691  0.6122 -0.9340 -0.9593
 6156TIP3    H242664   4.121   2.326   7.548 -0.8020  2.2542 -0.5935
 6157TIP3   OH242665   3.833   3.838   8.046  0.0149  0.1631 -0.2989
 6157TIP3    H142666   3.916   3.813   8.006  1.4430  0.8761  2.0075
 6157TIP3    H242667   3.856   3.907   8.108 -2.4467  0.9312 -0.1250
 6158TIP3   OH242668   7.261   5.969   0.770  0.1322 -0.6641  0.6854
 6158TIP3    H142669   7.202   6.006   0.704  1.1203  0.1331  0.2197
 6158TIP3    H242670   7.349   5.987   0.736  0.6512 -1.0649  1.7769
 6159TIP3   OH242671   6.167   4.423   9.646 -0.4918  0.1296 -0.5053
 6159TIP3    H142672   6.220   4.352   9.682 -0.7524  1.9593  4.3082
 6159TIP3    H242673   6.080   4.408   9.683 -1.8505  0.4543 -3.3407
 6160TIP3   OH242674   3.676   6.948   2.823 -0.0513 -0.3942 -0.2858
 6160TIP3    H142675   3.748   6.886   2.813 -0.2081 -0.9175  1.4698
 6160TIP3    H242676   3.597   6.897   2.803 -0.0669 -0.3610 -0.3088
 6161TIP3   OH242677   6.832   7.057   0.827 -0.2868 -0.3889 -0.3700
 6161TIP3    H142678   6.828   7.122   0.898  0.8776  1.4415 -1.8603
 6161TIP3    H242679   6.888   6.987   0.861  0.2838  0.4706  0.5278
 6162TIP3   OH242680   5.426   5.725   9.233 -0.2930 -0.4703  0.2597
 6162TIP3    H142681   5.332   5.743   9.239  0.1076  1.8301  0.7417
 6162TIP3    H242682   5.444   5.723   9.139 -0.9081 -1.5270  0.1559
 6163TIP3   OH242683   5.966   0.457   8.666  0.4434  0.0591  0.1565
 6163TIP3    H142684   5.942   0.423   8.753  0.2642  0.2792  0.1926
 6163TIP3    H242685   6.061   0.463   8.669  0.3634  1.3000  0.7994
 6164TIP3   OH242686   1.387   6.852   7.654  0.5309  0.7819 -0.2659
 6164TIP3    H142687   1.461   6.912   7.652  0.6787  0.6042 -0.1841
 6164TIP3    H242688   1.367   6.841   7.747  0.2321  1.0354 -0.2983
 6165TIP3   OH242689   5.765   2.514   7.148 -0.0865  0.4674 -0.7319
 6165TIP3    H142690   5.779   2.561   7.066  0.7038 -0.9395 -1.4298
 6165TIP3    H242691   5.779   2.422   7.127  1.9185  0.2023  1.3315
 6166TIP3   OH242692   4.214   4.497   7.417  0.5904 -0.4166 -0.2720
 6166TIP3    H142693   4.181   4.560   7.481 -0.5091  0.0882 -1.2975
 6166TIP3    H242694   4.258   4.551   7.351  1.3328 -0.8972 -0.1921
 6167TIP3   OH242695   0.110   0.514   1.608 -0.3576 -0.0542 -0.0847
 6167TIP3    H142696   0.128   0.515   1.702 -0.8916 -0.2189  0.0245
 6167TIP3    H242697   0.076   0.602   1.589  2.2705  0.9155 -0.6561
 6168TIP3   OH242698   5.841   0.957   2.373 -0.7758  0.1565 -0.2475
 6168TIP3    H142699   5.803   0.995   2.451  0.6106 -0.0308  0.5648
 6168TIP3    H242700   5.839   0.863   2.388  0.8315  0.1695  0.2653
 6169TIP3   OH242701   5.107   4.754   0.338  0.4833 -0.1841  0.0277
 6169TIP3    H142702   5.018   4.726   0.317  1.1963 -2.4810 -0.1786
 6169TIP3    H242703   5.118   4.730   0.430  0.3694  1.6230  0.5410
 6170TIP3   OH242704   3.517   1.080   9.271  0.4472  0.1658  0.3010
 6170TIP3    H142705   3.553   1.099   9.184  0.7696 -0.7536  0.2191
 6170TIP3    H242706   3.435   1.130   9.275  0.3230  0.0548 -0.6115
 6171TIP3   OH242707   5.307   0.457   9.248 -0.0208 -0.1662 -0.5855
 6171TIP3    H142708   5.349   0.418   9.172  1.0714 -2.0860  0.9098
 6171TIP3    H242709   5.368   0.525   9.277  0.3597 -0.5410 -0.4979
 6172TIP3   OH242710   3.104   0.959   1.709 -0.6272 -0.1161 -0.1785
 6172TIP3    H142711   3.105   1.009   1.791 -0.1480  0.3692 -0.4700
 6172TIP3    H242712   3.196   0.942   1.690 -0.7283 -0.1563 -0.6514
 6173TIP3   OH242713   3.102   5.840   9.151 -0.1066  0.3063 -0.0408
 6173TIP3    H142714   3.164   5.849   9.223  0.8756 -0.0800 -0.8269
 6173TIP3    H242715   3.133   5.764   9.101  0.2228  1.5630 -1.8296
 6174TIP3   OH242716   2.161   0.715   2.318 -0.3507  0.1599  0.4867
 6174TIP3    H142717   2.245   0.759   2.335  1.0601 -1.6860 -1.1742
 6174TIP3    H242718   2.139   0.672   2.401  0.7537  0.0496  0.7361
 6175TIP3   OH242719   3.074   3.541   1.504  0.6593  0.0466  0.6759
 6175TIP3    H142720   3.052   3.628   1.539 -2.1207 -0.9502  1.6705
 6175TIP3    H242721   3.150   3.513   1.554  1.8284  1.9968  0.0931
 6176TIP3   OH242722   3.384   4.476   9.492  0.1041 -0.1979  0.5004
 6176TIP3    H142723   3.372   4.438   9.579  1.0247 -0.2910  0.6032
 6176TIP3    H242724   3.455   4.425   9.453 -1.4661 -1.3436 -1.0392
 6177TIP3   OH242725   5.612   2.640   8.030  0.1299 -0.2173 -0.3920
 6177TIP3    H142726   5.527   2.633   7.986 -0.9425 -0.2876  1.5473
 6177TIP3    H242727   5.629   2.552   8.063  1.1479 -0.2798 -1.0357
 6178TIP3   OH242728   3.040   4.124   7.257  0.0872 -0.0662  0.0606
 6178TIP3    H142729   3.080   4.170   7.184 -0.3699  0.4121  0.1035
 6178TIP3    H242730   2.959   4.087   7.221  0.6302 -1.1777 -0.0725
 6179TIP3   OH242731   7.048   6.762   6.682  0.3883 -0.6873  0.1673
 6179TIP3    H142732   6.978   6.713   6.638  1.4063 -1.2938 -0.8247
 6179TIP3    H242733   7.098   6.694   6.728 -0.6745 -0.0692  2.3670
 6180TIP3   OH242734   2.849   5.720   2.030 -0.1523 -0.2884  0.0008
 6180TIP3    H142735   2.853   5.740   1.936  1.1817 -0.5704 -0.0122
 6180TIP3    H242736   2.783   5.781   2.064  0.5450  0.9755 -0.8321
 6181TIP3   OH242737   5.968   4.136   1.634 -0.1598 -0.0504 -0.1554
 6181TIP3    H142738   5.971   4.074   1.561  0.2431 -0.0188 -0.1694
 6181TIP3    H242739   6.038   4.198   1.615 -0.1779  0.0681  0.1629
 6182TIP3   OH242740   1.930   3.779   1.228 -0.1823 -0.1755 -0.3049
 6182TIP3    H142741   1.910   3.697   1.273 -0.1854 -0.0978 -0.1643
 6182TIP3    H242742   1.879   3.775   1.147 -1.0690  0.1867  0.2237
 6183TIP3   OH242743   2.857   1.282   9.291  0.0493 -1.0064  0.8721
 6183TIP3    H142744   2.834   1.192   9.268 -0.0378 -0.9751  0.8341
 6183TIP3    H242745   2.858   1.283   9.387 -0.0320 -1.0276  0.8738
 6184TIP3   OH242746   6.512   0.643   2.488  0.2360  0.1947 -0.2166
 6184TIP3    H142747   6.463   0.674   2.412 -1.0189 -1.0722  0.0374
 6184TIP3    H242748   6.542   0.555   2.465 -0.4323 -0.3355  0.8402
 6185TIP3   OH242749   6.310   2.593   1.537  0.0260  0.0690  0.3902
 6185TIP3    H142750   6.400   2.580   1.507 -0.6673  1.4151 -2.6131
 6185TIP3    H242751   6.312   2.568   1.630  3.7262  1.0962  0.7587
 6186TIP3   OH242752   2.618   4.744   1.022  0.0327 -0.0465  0.0374
 6186TIP3    H142753   2.625   4.734   0.927 -1.4147 -1.1314  0.0160
 6186TIP3    H242754   2.575   4.829   1.033  1.2091  0.6023 -0.2171
 6187TIP3   OH242755   1.101   5.494   1.535 -0.8104 -0.5142 -0.8657
 6187TIP3    H142756   1.151   5.484   1.454  2.6932 -0.0461  1.0476
 6187TIP3    H242757   1.090   5.404   1.567 -0.7922 -0.5935 -1.0802
 6188TIP3   OH242758   4.841   1.228   0.519 -0.2684  0.3938 -0.0565
 6188TIP3    H142759   4.894   1.178   0.456  0.2543  1.9361 -0.8847
 6188TIP3    H242760   4.751   1.203   0.499  0.0426 -1.6523  0.8351
 6189TIP3   OH242761   2.584   5.162   8.524  0.0955  0.2864  0.3142
 6189TIP3    H142762   2.626   5.234   8.477 -0.8454 -1.1743 -3.1056
 6189TIP3    H242763   2.644   5.088   8.511  0.2322 -0.0002  2.3139
 6190TIP3   OH242764   6.461   5.367   9.682  0.4799  0.1171  0.0703
 6190TIP3    H142765   6.422   5.454   9.673 -0.3230 -0.0083  1.9332
 6190TIP3    H242766   6.425   5.333   9.764 -1.2380 -3.0145 -1.7699
 6191TIP3   OH242767   5.192   4.692   0.613 -0.0308 -0.5082  0.1671
 6191TIP3    H142768   5.101   4.712   0.636  0.2057  2.9800 -1.1856
 6191TIP3    H242769   5.244   4.758   0.660  1.4147 -0.3013 -1.5559
 6192TIP3   OH242770   4.968   3.259   8.016  0.5262 -0.1068 -0.1793
 6192TIP3    H142771   4.966   3.210   7.934 -1.8036 -0.0193 -0.2175
 6192TIP3    H242772   4.998   3.346   7.991 -0.4023 -0.0100 -0.9828
 6193TIP3   OH242773   3.303   3.668   0.064  0.2216  0.6985  0.8898
 6193TIP3    H142774   3.370   3.735   0.073  0.4043  0.7665 -0.6621
 6193TIP3    H242775   3.222   3.712   0.089  0.1528  1.9178 -1.2651
 6194TIP3   OH242776   0.862   6.034   8.641  0.4402 -0.1371  0.1643
 6194TIP3    H142777   0.875   6.013   8.733 -0.6378 -1.1378  0.1137
 6194TIP3    H242778   0.950   6.046   8.606  0.8647  0.1085  1.2851
 6195TIP3   OH242779   6.209   3.169   7.900  0.0710  0.2308  0.4514
 6195TIP3    H142780   6.211   3.210   7.813 -1.0135 -2.5083 -0.9852
 6195TIP3    H242781   6.298   3.137   7.913 -0.1466 -0.8501 -0.5043
 6196TIP3   OH242782   0.005   2.194   1.980  0.9124  0.0072  0.2293
 6196TIP3    H142783   0.025   2.287   1.984  0.1387  0.2273 -0.6869
 6196TIP3    H242784  -0.018   2.178   1.888 -2.8829 -0.2313  1.0680
 6197TIP3   OH242785   6.984   1.910   8.464  0.0155  0.2732 -0.2305
 6197TIP3    H142786   7.046   1.898   8.392 -1.3222  0.1163 -1.4009
 6197TIP3    H242787   6.988   1.827   8.511  2.4170  1.0820  1.1925
 6198TIP3   OH242788   6.389   4.982   9.616  0.7822 -0.1669  0.6908
 6198TIP3    H142789   6.347   4.899   9.637 -1.0091 -0.0119 -1.7623
 6198TIP3    H242790   6.482   4.960   9.605  0.1564 -2.2508 -1.3549
 6199TIP3   OH242791   4.403   5.521   1.121 -0.3741  0.0951  0.1526
 6199TIP3    H142792   4.355   5.552   1.044  1.7477  2.2446 -0.4355
 6199TIP3    H242793   4.437   5.601   1.162 -0.2417 -1.0901  2.5485
 6200TIP3   OH242794   1.209   5.958   0.662  0.5768 -0.0919  1.0330
 6200TIP3    H142795   1.279   5.936   0.600  1.7928 -0.7545  2.5746
 6200TIP3    H242796   1.201   6.053   0.656 -0.1622 -0.2230 -0.9532
 6201TIP3   OH242797   6.746   6.654   9.589 -0.4512 -0.0610 -0.2033
 6201TIP3    H142798   6.820   6.595   9.577 -0.4719 -0.0847 -0.2143
 6201TIP3    H242799   6.677   6.617   9.534 -0.8864 -0.7485  0.7813
 6202TIP3   OH242800   7.137   5.651   0.189  0.1858 -0.1497  0.0065
 6202TIP3    H142801   7.065   5.597   0.222 -0.0893  0.9382  1.2543
 6202TIP3    H242802   7.204   5.587   0.162 -0.5507 -1.1311  0.4316
 6203TIP3   OH242803   3.972   0.775   9.197 -0.2710  0.1790 -0.4809
 6203TIP3    H142804   4.016   0.825   9.266  1.2022 -1.0283 -0.4717
 6203TIP3    H242805   4.014   0.805   9.116  0.0282 -0.4260 -0.5539
 6204TIP3   OH242806   5.813   1.087   7.562 -0.2235 -0.5125  0.1280
 6204TIP3    H142807   5.861   1.078   7.644 -1.4763 -1.2526  0.8230
 6204TIP3    H242808   5.865   1.039   7.498 -0.7215 -2.5874  1.1773
 6205TIP3   OH242809   6.538   4.203   0.553  0.5403  0.2404  0.1909
 6205TIP3    H142810   6.515   4.153   0.631 -0.9910  0.7960  0.1346
 6205TIP3    H242811   6.453   4.232   0.517  1.2246  0.3207 -1.4570
 6206TIP3   OH242812   6.186   0.795   2.082  0.7629  0.0874 -0.8544
 6206TIP3    H142813   6.102   0.840   2.096  1.3013  1.2956 -1.3343
 6206TIP3    H242814   6.181   0.716   2.136  0.0077  1.0223  0.4843
 6207TIP3   OH242815   5.645   0.614   2.282 -0.4015  0.2515 -0.4594
 6207TIP3    H142816   5.665   0.565   2.202 -0.5684 -2.0093  0.8031
 6207TIP3    H242817   5.554   0.592   2.301 -0.1848  0.3022  0.6631
 6208TIP3   OH242818   4.239   0.847   9.410  0.2664  0.4755 -0.3038
 6208TIP3    H142819   4.329   0.832   9.440  0.7883  0.1446 -1.9595
 6208TIP3    H242820   4.244   0.928   9.360 -0.2733  0.2307 -0.7551
 6209TIP3   OH242821   3.498   0.075   8.692  0.3375 -0.3978  0.1466
 6209TIP3    H142822   3.577   0.036   8.727  0.4249  0.3268  0.7725
 6209TIP3    H242823   3.433   0.064   8.761  0.3497  0.4953  0.3126
 6210TIP3   OH242824   4.417   6.168   0.835  0.0328  0.2032  0.1532
 6210TIP3    H142825   4.412   6.073   0.840  1.2410  0.1198  0.1488
 6210TIP3    H242826   4.425   6.187   0.741  0.5739  0.2512  0.2055
 6211TIP3   OH242827   2.771   6.412   8.270  0.2541  0.2829  0.4192
 6211TIP3    H142828   2.791   6.350   8.200 -0.5830 -0.4565  0.8174
 6211TIP3    H242829   2.781   6.361   8.350 -2.0297  0.1831  0.6866
 6212TIP3   OH242830   6.120   4.330   9.055  0.0894 -0.0964  0.0863
 6212TIP3    H142831   6.191   4.266   9.060 -1.1816 -1.5344  0.1501
 6212TIP3    H242832   6.043   4.283   9.087 -0.5614  1.9664  1.8089
 6213TIP3   OH242833   6.195   4.433   1.197  0.0335  0.2060  0.3131
 6213TIP3    H142834   6.251   4.464   1.126  0.6055 -0.5737  0.4156
 6213TIP3    H242835   6.112   4.481   1.185  0.3575  0.5843 -0.4622
 6214TIP3   OH242836   5.076   6.489   8.604 -0.3044 -0.0002 -0.1828
 6214TIP3    H142837   5.097   6.564   8.549  2.6929  1.5562  2.7219
 6214TIP3    H242838   5.130   6.418   8.571 -0.8960 -0.0244 -1.1203
 6215TIP3   OH242839   2.191   1.396   9.845  0.2547  0.3620 -0.6680
 6215TIP3    H142840   2.225   1.309   9.823 -0.3640  0.0948 -0.5909
 6215TIP3    H242841   2.173   1.391   9.939 -2.2667 -0.3324 -1.1019
 6216TIP3   OH242842   5.096   0.855   9.208 -0.4762 -0.7803  0.2430
 6216TIP3    H142843   5.000   0.861   9.201 -0.4023 -0.6878 -0.7054
 6216TIP3    H242844   5.127   0.857   9.118  0.6645  3.5557  0.5217
 6217TIP3   OH242845   4.173   1.521   0.870 -0.2804 -0.0528  0.3098
 6217TIP3    H142846   4.148   1.523   0.778  0.5717 -1.1651  0.0355
 6217TIP3    H242847   4.229   1.598   0.882  1.6714 -1.2244 -0.7536
 6218TIP3   OH242848   0.839   2.249   1.864 -0.0681 -0.0658 -0.5116
 6218TIP3    H142849   0.778   2.269   1.936  0.6629 -0.1098  0.1333
 6218TIP3    H242850   0.816   2.311   1.795 -1.0230 -0.2572 -0.3890
 6219TIP3   OH242851   3.977   6.412   7.548 -0.0442 -0.0399  0.0958
 6219TIP3    H142852   4.051   6.448   7.596 -1.6268  0.2894  2.4348
 6219TIP3    H242853   3.978   6.457   7.464  0.3573  2.6057  1.4312
 6220TIP3   OH242854   2.540   1.175   9.887 -0.2364  0.2735  0.1613
 6220TIP3    H142855   2.571   1.172   9.797 -1.1585  0.7060 -0.1723
 6220TIP3    H242856   2.445   1.182   9.881 -0.3791 -0.4291  1.1763
 6221TIP3   OH242857   4.841   5.577   8.455 -0.0138  0.0918 -0.0098
 6221TIP3    H142858   4.825   5.650   8.395 -0.6404  0.5370  0.6803
 6221TIP3    H242859   4.905   5.611   8.518  0.1079 -0.1350 -0.0106
 6222TIP3   OH242860   5.877   6.552   8.998 -0.0913 -0.3033 -0.0204
 6222TIP3    H142861   5.812   6.494   8.958  1.5978 -1.5147 -1.1200
 6222TIP3    H242862   5.877   6.527   9.091  0.3006 -1.8174 -0.3996
 6223TIP3   OH242863   1.054   4.522   0.233 -0.5284 -0.0237 -0.0461
 6223TIP3    H142864   0.981   4.580   0.255  0.1001  1.1853 -1.0143
 6223TIP3    H242865   1.014   4.454   0.178 -0.9948  0.4548 -0.3157
 6224TIP3   OH242866   3.281   4.452   0.463 -0.5555 -0.9344 -0.2434
 6224TIP3    H142867   3.298   4.537   0.424  1.8159 -1.0518  0.3790
 6224TIP3    H242868   3.190   4.433   0.441 -0.9966  1.5235 -0.8003
 6225TIP3   OH242869   2.674   2.707   8.408 -0.7240  0.4793 -0.0318
 6225TIP3    H142870   2.692   2.649   8.483 -0.2729 -0.9233 -1.1647
 6225TIP3    H242871   2.759   2.715   8.364 -1.3999 -0.5872 -1.6333
 6226TIP3   OH242872   5.496   5.233   2.781 -0.7247  0.4194  0.1440
 6226TIP3    H142873   5.409   5.205   2.812 -0.7513  1.3183  0.9210
 6226TIP3    H242874   5.547   5.152   2.778 -1.2897  0.0307  0.6896
 6227TIP3   OH242875   4.155   7.025   2.103 -0.3458 -0.4361 -0.0239
 6227TIP3    H142876   4.110   7.106   2.079  0.6996  0.2952  0.4325
 6227TIP3    H242877   4.160   7.028   2.198  1.2677 -0.1540 -0.0922
 6228TIP3   OH242878   1.444   6.731   9.106  0.1639 -0.1575 -0.0517
 6228TIP3    H142879   1.484   6.817   9.102  0.4475 -0.2717  0.2759
 6228TIP3    H242880   1.380   6.730   9.034 -2.2107  1.5371  1.8513
 6229TIP3   OH242881   2.855   0.424   9.942  0.6882  0.1533 -0.2198
 6229TIP3    H142882   2.760   0.421   9.932  0.3015  1.5588  2.2526
 6229TIP3    H242883   2.877   0.343   9.989  0.6786 -0.0564 -0.5766
 6230TIP3   OH242884   4.607   2.590   0.926  0.1586  0.6158  0.5028
 6230TIP3    H142885   4.537   2.525   0.919  1.0124 -0.2329 -0.4465
 6230TIP3    H242886   4.570   2.660   0.980 -0.9354 -0.4527  1.1751
 6231TIP3   OH242887   4.499   5.337   7.761  0.2727  0.1060 -0.1667
 6231TIP3    H142888   4.545   5.329   7.845  0.4270  1.0155 -0.1619
 6231TIP3    H242889   4.534   5.417   7.721 -0.9861  0.5835 -0.3570
 6232TIP3   OH242890   4.020   6.149   2.181 -0.1548 -0.4191 -0.7604
 6232TIP3    H142891   3.938   6.115   2.218  1.2243 -2.3326  0.7708
 6232TIP3    H242892   4.010   6.244   2.184 -0.3837 -0.3432  4.3792
 6233TIP3   OH242893   6.763   5.256   0.519  0.5487 -0.4327 -0.1349
 6233TIP3    H142894   6.742   5.350   0.514  2.1944  0.0729  1.4739
 6233TIP3    H242895   6.717   5.226   0.597  1.2274 -0.6051  0.2019
 6234TIP3   OH242896   6.805   7.128   8.689 -0.0210 -0.3607  0.3037
 6234TIP3    H142897   6.853   7.071   8.628 -1.2984 -1.2651  0.1027
 6234TIP3    H242898   6.874   7.174   8.736  1.0265 -0.5233 -0.9821
 6235TIP3   OH242899   3.303   3.193   0.480  0.5429 -0.2314  0.5931
 6235TIP3    H142900   3.396   3.174   0.487  0.3740 -1.0781  0.6158
 6235TIP3    H242901   3.264   3.151   0.557 -0.1251 -1.6905 -0.4985
 6236TIP3   OH242902   0.349   0.543   2.363  0.0168  0.1561  0.3481
 6236TIP3    H142903   0.443   0.547   2.381  0.1303 -0.5451 -0.0863
 6236TIP3    H242904   0.309   0.546   2.450  0.2218  4.6513  0.5288
 6237TIP3   OH242905   2.028   5.164   2.766 -0.0259  0.3564 -0.2488
 6237TIP3    H142906   2.120   5.174   2.742 -0.4160 -0.6684 -2.3559
 6237TIP3    H242907   2.029   5.100   2.837  0.8092 -0.5830 -1.0852
 6238TIP3   OH242908   1.879   1.368   8.792  0.4085  0.7075  0.7214
 6238TIP3    H142909   1.821   1.300   8.759 -0.8635  1.6865  0.8596
 6238TIP3    H242910   1.967   1.339   8.767 -0.3429  0.5832 -2.0388
 6239TIP3   OH242911   1.634   6.404   9.643  0.1640  0.3247 -0.5199
 6239TIP3    H142912   1.669   6.372   9.726 -0.0047  0.4227 -0.4089
 6239TIP3    H242913   1.701   6.463   9.609  0.1873  0.3653 -0.4022
 6240TIP3   OH242914   6.139   4.271   7.453  0.3546  0.3966 -0.2514
 6240TIP3    H142915   6.179   4.270   7.366  0.3003  1.1895 -0.2870
 6240TIP3    H242916   6.193   4.209   7.504  2.2179  2.0567 -0.0615
 6241TIP3   OH242917   6.454   2.395   2.802 -0.4430  0.0790  0.2119
 6241TIP3    H142918   6.533   2.438   2.768  1.4595 -1.8649  1.8740
 6241TIP3    H242919   6.427   2.337   2.731  1.7095 -1.7350  0.7686
 6242TIP3   OH242920   0.621   1.869   8.257  0.1944  0.3489  0.2407
 6242TIP3    H142921   0.668   1.788   8.277  0.7646  0.7944  0.7664
 6242TIP3    H242922   0.531   1.852   8.286  0.4957  0.1831  1.1057
 6243TIP3   OH242923   2.534   6.829   6.677 -0.1084  0.1775  0.2242
 6243TIP3    H142924   2.492   6.835   6.763  1.4895 -1.1344  1.1390
 6243TIP3    H242925   2.482   6.765   6.629 -1.3215  1.3010 -0.0267
 6244TIP3   OH242926   6.503   1.911   9.106 -0.0008 -0.0696 -0.4045
 6244TIP3    H142927   6.561   1.980   9.074  2.1289 -1.0422  1.1205
 6244TIP3    H242928   6.437   1.957   9.157  0.9936  0.9310  0.0333
 6245TIP3   OH242929   1.257   5.154   1.892 -0.2697 -0.6335  0.5620
 6245TIP3    H142930   1.316   5.141   1.818 -1.1440  1.4542 -0.6091
 6245TIP3    H242931   1.208   5.073   1.899 -0.4985 -0.7090 -1.4756
 6246TIP3   OH242932   3.731   6.242   8.759 -0.3610  0.0422  0.0872
 6246TIP3    H142933   3.726   6.147   8.767 -1.5726  0.1287  0.6137
 6246TIP3    H242934   3.723   6.259   8.665  0.1348 -0.3880 -0.0336
 6247TIP3   OH242935   5.227   0.778   6.917 -1.2905 -0.3592 -0.2413
 6247TIP3    H142936   5.188   0.846   6.972  0.3276  0.2691  0.1884
 6247TIP3    H242937   5.282   0.728   6.976 -1.0047 -0.8783 -0.9372
 6248TIP3   OH242938   4.274   4.413   0.293  0.2150 -0.4482  0.1588
 6248TIP3    H142939   4.182   4.391   0.275  0.6255 -3.4611  1.1761
 6248TIP3    H242940   4.324   4.349   0.243  2.0722  3.0710 -3.0204
 6249TIP3   OH242941   0.443   2.675   7.663  0.2896  0.7693 -0.7808
 6249TIP3    H142942   0.378   2.688   7.594 -0.6306 -0.4726 -0.1704
 6249TIP3    H242943   0.396   2.632   7.733  1.0736  2.4750  0.8832
 6250TIP3   OH242944   3.471   5.536   2.193 -0.1876  0.4120 -0.3296
 6250TIP3    H142945   3.507   5.623   2.179  1.2305 -0.1595 -0.4044
 6250TIP3    H242946   3.404   5.527   2.125 -2.0114  2.2776  1.1268
 6251TIP3   OH242947   2.250   5.951   0.858 -0.6606 -0.0083  0.3459
 6251TIP3    H142948   2.181   6.003   0.899 -1.0481 -0.3021  0.0783
 6251TIP3    H242949   2.328   6.006   0.864 -0.3767 -0.5536  2.6414
 6252TIP3   OH242950   4.246   3.162   0.916  0.2841  0.1535  0.3888
 6252TIP3    H142951   4.229   3.068   0.904  0.2764 -0.0396  1.7528
 6252TIP3    H242952   4.159   3.202   0.909  0.3515  0.1551 -0.7591
 6253TIP3   OH242953   5.828   2.057   7.725 -0.0378  0.0404 -0.0575
 6253TIP3    H142954   5.843   2.149   7.702 -1.4755  0.0066 -1.3194
 6253TIP3    H242955   5.839   2.054   7.820  0.5928  1.3957 -0.0611
 6254TIP3   OH242956   0.358   7.142   3.073 -1.1261 -0.1200  0.3134
 6254TIP3    H142957   0.405   7.195   3.138 -2.4501 -0.4113  1.5543
 6254TIP3    H242958   0.399   7.166   2.989  1.3264 -0.4965  1.3249
 6255TIP3   OH242959   0.988   3.866   9.665  0.2644 -0.3619  0.0305
 6255TIP3    H142960   0.942   3.782   9.675  1.2812 -0.8622  0.6685
 6255TIP3    H242961   1.039   3.875   9.746  1.0004  0.3576 -0.5031
 6256TIP3   OH242962   5.650   6.707   2.092 -0.1166  0.1997 -0.1277
 6256TIP3    H142963   5.581   6.742   2.149  1.1038  1.7349  0.4876
 6256TIP3    H242964   5.617   6.722   2.003 -1.3826 -0.8464  0.1325
 6257TIP3   OH242965   0.336   3.796   0.258 -0.1149 -0.1504  0.2176
 6257TIP3    H142966   0.324   3.754   0.344 -1.1876  0.3096  0.3076
 6257TIP3    H242967   0.247   3.812   0.227  0.2725  0.1386 -0.7672
 6258TIP3   OH242968   2.230   5.763   8.254 -0.1316  0.2406  0.2604
 6258TIP3    H142969   2.224   5.825   8.182 -0.4966  1.4752  1.3264
 6258TIP3    H242970   2.249   5.679   8.212 -0.1101  0.9740 -1.2406
 6259TIP3   OH242971   1.884   3.439   0.750  0.0089  0.4663  0.5521
 6259TIP3    H142972   1.962   3.486   0.723  0.8799 -0.5698  1.1479
 6259TIP3    H242973   1.813   3.503   0.744  0.6602  1.0622 -1.2657
 6260TIP3   OH242974   0.253   3.969   7.527 -0.7165  0.3763 -0.3886
 6260TIP3    H142975   0.270   4.017   7.609  1.9683 -0.5292 -0.3361
 6260TIP3    H242976   0.311   4.010   7.463  0.4151 -1.6594 -0.7486
 6261TIP3   OH242977   0.865   2.571   8.498 -0.5749  0.3185  0.3821
 6261TIP3    H142978   0.842   2.643   8.439  0.7014  0.4039 -0.0443
 6261TIP3    H242979   0.820   2.592   8.580 -2.0913  0.3783 -0.4367
 6262TIP3   OH242980   7.227   1.744   2.317  0.7510  0.3861 -0.5049
 6262TIP3    H142981   7.245   1.651   2.304 -1.4672 -0.0599 -0.7773
 6262TIP3    H242982   7.248   1.784   2.233  2.0593  0.2253 -0.2804
 6263TIP3   OH242983   4.343   2.084   0.466  0.3979 -0.0725  0.8635
 6263TIP3    H142984   4.286   2.059   0.539  1.3411 -0.3159  1.5343
 6263TIP3    H242985   4.411   2.139   0.506 -0.2839  1.6403 -0.1953
 6264TIP3   OH242986   1.564   6.018   2.475 -0.0787 -0.0831  0.1204
 6264TIP3    H142987   1.550   6.093   2.418 -1.1413 -0.4177 -0.1005
 6264TIP3    H242988   1.475   5.990   2.500  0.1977 -1.9687 -0.7694
 6265TIP3   OH242989   3.030   6.959   9.652  0.3153 -0.9293 -0.2583
 6265TIP3    H142990   3.051   6.889   9.589  0.0368 -0.5081 -0.8183
 6265TIP3    H242991   2.976   7.020   9.604  1.2689  0.1268 -0.0289
 6266TIP3   OH242992   5.133   2.910   0.374 -0.0933 -0.2849 -0.1320
 6266TIP3    H142993   5.108   3.002   0.363 -1.3633 -0.7625 -1.5130
 6266TIP3    H242994   5.050   2.865   0.393  0.4042 -1.2582 -0.2349
 6267TIP3   OH242995   2.919   3.657   0.219 -0.2256 -0.2835  0.7043
 6267TIP3    H142996   2.837   3.707   0.211 -0.5186 -0.8119  0.2959
 6267TIP3    H242997   2.987   3.719   0.196 -0.4911  0.2346  1.2945
 6268TIP3   OH242998   7.178   1.722   1.340 -0.8577 -0.3577 -0.1273
 6268TIP3    H142999   7.186   1.789   1.409 -1.8603  0.4254 -0.7441
 6268TIP3    H243000   7.092   1.682   1.356 -1.2854  0.1275 -1.1775
 6269TIP3   OH243001   3.272   6.051   9.254 -0.1163 -0.6341 -0.2220
 6269TIP3    H143002   3.341   6.007   9.204  1.1680 -1.1343  1.8811
 6269TIP3    H243003   3.312   6.069   9.339 -2.0906  0.5283  0.5174
 6270TIP3   OH243004   4.531   4.391   0.390 -0.6671 -0.2185  0.4377
 6270TIP3    H143005   4.584   4.451   0.442 -2.2413  0.3821  1.4324
 6270TIP3    H243006   4.467   4.448   0.347 -0.5924 -0.9324 -0.6475
 6271TIP3   OH243007   1.024   2.973   1.406 -0.5369  0.0127  0.1641
 6271TIP3    H143008   1.103   2.978   1.352 -0.5659 -2.1703 -0.2038
 6271TIP3    H243009   1.057   2.963   1.495 -0.4888  3.7131  0.6982
 6272TIP3   OH243010   5.788   5.427   7.346 -0.3767  0.0460  0.1585
 6272TIP3    H143011   5.773   5.474   7.428  0.9226  1.5719 -0.4285
 6272TIP3    H243012   5.701   5.420   7.307 -0.6425  1.8559  0.3453
 6273TIP3   OH243013   4.592   7.083   2.640  0.0322  0.3061  0.3081
 6273TIP3    H143014   4.536   7.076   2.563 -0.4053  1.6696  0.4625
 6273TIP3    H243015   4.616   6.993   2.661 -1.0007 -0.2004 -0.5710
 6274TIP3   OH243016   0.812   3.464   9.804  0.0555  0.7005 -0.1082
 6274TIP3    H143017   0.757   3.386   9.810  0.8870  0.1042 -0.2114
 6274TIP3    H243018   0.826   3.476   9.710 -0.4589  1.2527 -0.1192
 6275TIP3   OH243019   6.889   5.741   1.583 -0.3713  0.0107 -0.1014
 6275TIP3    H143020   6.837   5.699   1.652 -0.6246  1.0272  0.3596
 6275TIP3    H243021   6.955   5.791   1.630  0.6376 -0.7478 -0.6700
 6276TIP3   OH243022   4.005   3.358   1.099 -0.2805  0.1397 -0.1168
 6276TIP3    H143023   4.092   3.399   1.102 -0.0921 -0.2887  1.0671
 6276TIP3    H243024   3.947   3.420   1.143  0.0304 -0.8466  1.7903
 6277TIP3   OH243025   4.230   0.271   9.373 -0.4126 -0.4267 -0.2856
 6277TIP3    H143026   4.221   0.358   9.412  0.8415 -0.7318  0.7323
 6277TIP3    H243027   4.324   0.261   9.358 -0.6931 -0.9679 -1.9349
 6278TIP3   OH243028   3.308   0.009   1.523 -0.0785 -0.1188 -0.0225
 6278TIP3    H143029   3.286  -0.058   1.589  0.1680  0.0692  0.2566
 6278TIP3    H243030   3.257   0.086   1.549 -0.5832 -0.2832 -0.5106
 6279TIP3   OH243031   3.791   1.319   8.900  0.5688  0.1712 -0.0967
 6279TIP3    H143032   3.809   1.255   8.831  0.2578  0.2631 -0.2640
 6279TIP3    H243033   3.877   1.352   8.925  0.7185 -0.1710 -0.1444
 6280TIP3   OH243034   0.639   1.353   1.868  0.2662 -0.0080  0.3913
 6280TIP3    H143035   0.681   1.438   1.861  1.7620 -0.5875  1.6691
 6280TIP3    H243036   0.554   1.371   1.909 -0.1056  1.0036 -0.7615
 6281TIP3   OH243037   0.973   7.122   1.485  0.3344  0.0169 -0.8003
 6281TIP3    H143038   1.066   7.119   1.507  0.5338 -0.1790 -1.6389
 6281TIP3    H243039   0.962   7.201   1.434 -0.2746  0.8819  0.5945
 6282TIP3   OH243040   6.081   3.967   2.501 -0.1776  0.1137  0.0423
 6282TIP3    H143041   5.987   3.976   2.516 -0.1389 -0.7384  0.8492
 6282TIP3    H243042   6.104   3.883   2.540  0.6546 -0.4017 -1.4602
 6283TIP3   OH243043   4.906   2.908   1.283  0.2268  0.2925 -0.0626
 6283TIP3    H143044   4.975   2.901   1.350 -1.0253 -1.0069  1.1631
 6283TIP3    H243045   4.907   3.000   1.258  1.4326  0.6047  0.9961
 6284TIP3   OH243046   6.547   4.865   8.676 -0.1843 -0.1472  0.3248
 6284TIP3    H143047   6.497   4.934   8.632  0.4433 -0.9945 -1.8765
 6284TIP3    H243048   6.619   4.846   8.616  0.7050 -1.4516  1.7404
 6285TIP3   OH243049   1.073   4.026   0.437  0.9388  0.3197  0.3627
 6285TIP3    H143050   1.113   3.940   0.438  0.9201  0.2912  2.2667
 6285TIP3    H243051   1.135   4.082   0.392  0.3563 -0.9194 -2.1129
 6286TIP3   OH243052   6.936   0.330   0.365  0.6189 -0.2970  0.7752
 6286TIP3    H143053   6.849   0.345   0.401  0.7535  0.0528  0.9668
 6286TIP3    H243054   6.927   0.254   0.309  0.1694 -0.2061  0.7236
 6287TIP3   OH243055   3.744   5.268   0.551 -0.3368  0.1950  0.0850
 6287TIP3    H143056   3.683   5.270   0.624 -0.8182 -0.7889 -0.2780
 6287TIP3    H243057   3.780   5.357   0.548 -1.1167  0.5521  0.8278
 6288TIP3   OH243058   4.699   7.167   0.548  0.1809  0.3226  0.0026
 6288TIP3    H143059   4.767   7.201   0.607  0.2704  0.4988 -0.2000
 6288TIP3    H243060   4.740   7.168   0.462  0.8064 -1.9274  0.2106
 6289TIP3   OH243061   3.069   5.213   2.645  0.1209  0.0071  0.4251
 6289TIP3    H143062   3.080   5.305   2.671 -2.0235  0.5612 -0.4405
 6289TIP3    H243063   3.017   5.174   2.715 -2.2013  0.4712 -0.9530
 6290TIP3   OH243064   2.682   4.390   8.615  0.2401 -0.5499 -0.3089
 6290TIP3    H143065   2.727   4.409   8.532  1.4001  0.5777  0.5333
 6290TIP3    H243066   2.752   4.364   8.674 -0.3402  0.2537  0.7636
 6291TIP3   OH243067   6.054   1.958   2.037  0.1231 -0.0917  0.2693
 6291TIP3    H143068   6.102   1.877   2.055  0.2115 -0.3755 -1.1259
 6291TIP3    H243069   5.965   1.930   2.015 -0.6539  0.4087  2.4839
 6292TIP3   OH243070   5.850   3.924   1.038 -0.5615 -0.2962  0.1801
 6292TIP3    H143071   5.811   3.992   1.093  1.0778  0.2497  0.7388
 6292TIP3    H243072   5.879   3.971   0.960 -0.1218 -0.4858  0.2254
 6293TIP3   OH243073   3.949   4.226   9.574  0.1216  0.7462 -0.6043
 6293TIP3    H143074   4.035   4.269   9.580  0.9935 -1.0554  0.7207
 6293TIP3    H243075   3.958   4.148   9.628 -2.1043  0.0541 -1.1564
 6294TIP3   OH243076   3.605   6.310   9.804  0.0107 -0.0748 -0.0995
 6294TIP3    H143077   3.559   6.383   9.847 -1.2751 -1.0401  0.2190
 6294TIP3    H243078   3.652   6.267   9.876  1.1836  0.7140 -0.3712
 6295TIP3   OH243079   5.099   0.705   8.617  0.3279 -0.0414 -0.4544
 6295TIP3    H143080   5.077   0.656   8.696 -0.4091  0.7705 -0.1394
 6295TIP3    H243081   5.018   0.751   8.594  0.9573  0.9055 -0.8186
 6296TIP3   OH243082   3.476   1.305   7.120  0.0258  0.0525 -0.1058
 6296TIP3    H143083   3.438   1.219   7.103  0.4570 -0.1316 -0.1560
 6296TIP3    H243084   3.538   1.318   7.048  1.3276 -0.4006  0.9048
 6297TIP3   OH243085   2.365   3.092   8.492 -0.0254 -0.1969 -0.1109
 6297TIP3    H143086   2.371   3.127   8.403  1.4907 -0.5942 -0.2054
 6297TIP3    H243087   2.302   3.148   8.537 -0.6529  0.1302 -1.3791
 6298TIP3   OH243088   7.055   0.770   1.445  0.2266 -0.4617 -0.3387
 6298TIP3    H143089   7.070   0.684   1.406 -1.8860 -0.6296 -0.9188
 6298TIP3    H243090   6.995   0.813   1.384 -1.0661  0.2987  1.4039
 6299TIP3   OH243091   1.724   3.381   1.569 -0.4246 -0.1441  0.3202
 6299TIP3    H143092   1.807   3.339   1.591 -0.3424  0.2960  0.8976
 6299TIP3    H243093   1.702   3.432   1.647 -2.0107 -1.4429  0.7729
 6300TIP3   OH243094   5.983   6.350   1.018 -0.0540 -0.2161 -0.1291
 6300TIP3    H143095   5.924   6.359   0.943 -0.3660 -0.4941  0.0819
 6300TIP3    H243096   5.989   6.439   1.054  1.4243  0.2722 -1.4658
 6301TIP3   OH243097   5.651   1.997   1.852  0.2561 -0.0009 -0.3184
 6301TIP3    H143098   5.695   1.935   1.910 -0.3752  1.5587  1.9679
 6301TIP3    H243099   5.565   1.958   1.838 -0.1963  0.3800  1.2277
 6302TIP3   OH243100   5.655   0.452   1.596  0.1862 -0.5521 -0.1702
 6302TIP3    H143101   5.702   0.529   1.630 -0.9418 -0.1907  0.6026
 6302TIP3    H243102   5.606   0.486   1.521  0.3004 -0.6921 -0.3088
 6303TIP3   OH243103   5.831   1.736   8.813  0.4959  0.1864  0.0083
 6303TIP3    H143104   5.827   1.640   8.822  0.0101  0.2635  0.7104
 6303TIP3    H243105   5.890   1.764   8.883  0.0038  0.4679  0.3119
 6304TIP3   OH243106   4.926   1.490   1.405 -0.1386  0.0039 -0.0906
 6304TIP3    H143107   4.932   1.585   1.417  0.1481 -0.2187  1.7448
 6304TIP3    H243108   4.948   1.476   1.313  0.6067  1.6521 -0.1905
 6305TIP3   OH243109   5.922   1.019   7.807  0.3013  0.3346 -0.3850
 6305TIP3    H143110   5.955   0.930   7.795 -0.1645  0.2985 -1.5903
 6305TIP3    H243111   6.001   1.072   7.819  0.6460 -0.1183 -0.5986
 6306TIP3   OH243112   0.423   3.177   8.204  0.6279  0.1010 -0.1708
 6306TIP3    H143113   0.329   3.195   8.203  0.5611 -0.2070 -1.8373
 6306TIP3    H243114   0.442   3.142   8.117  2.5463  1.4807 -0.3657
 6307TIP3   OH243115   4.143   6.009   9.166 -0.3422 -0.7517  0.3110
 6307TIP3    H143116   4.075   6.013   9.098 -0.4730 -0.8783  0.4352
 6307TIP3    H243117   4.167   5.917   9.170 -0.2964 -0.7353  0.3999
 6308TIP3   OH243118   0.966   0.388   0.852  0.3108  0.0813 -0.3202
 6308TIP3    H143119   1.021   0.325   0.899 -0.0248 -1.1020 -1.4647
 6308TIP3    H243120   0.962   0.355   0.762 -1.1666  0.8687 -0.5843
 6309TIP3   OH243121   2.068   4.639   2.304  0.1378 -0.4839 -0.1483
 6309TIP3    H143122   2.026   4.579   2.242 -0.8301 -1.4145  1.3448
 6309TIP3    H243123   2.000   4.704   2.323  0.9315  0.6896 -1.1752
 6310TIP3   OH243124   0.954   3.942   7.813 -0.4104 -0.1435 -0.0128
 6310TIP3    H143125   0.884   3.938   7.748 -0.4501 -1.1473  0.0733
 6310TIP3    H243126   0.912   3.979   7.891 -1.1603 -1.7630  0.3956
 6311TIP3   OH243127   3.888   4.749   1.705 -0.0261  0.6237  0.4164
 6311TIP3    H143128   3.886   4.654   1.701 -0.6114  0.6140  0.6981
 6311TIP3    H243129   3.978   4.773   1.684 -0.1423  0.0658 -0.7602
 6312TIP3   OH243130   5.469   2.253   1.519  0.2821 -0.0640  0.4887
 6312TIP3    H143131   5.562   2.265   1.539  0.1257  1.7407  0.2696
 6312TIP3    H243132   5.427   2.332   1.552 -0.7203  0.6273 -2.2143
 6313TIP3   OH243133   6.158   6.043   9.698  0.5989  0.0269 -0.0910
 6313TIP3    H143134   6.154   6.079   9.787  0.0914  0.8063 -0.4189
 6313TIP3    H243135   6.081   5.987   9.692  1.5493 -1.4174  0.5226
 6314TIP3   OH243136   7.011   6.170   8.196 -0.3823  0.6322 -0.4373
 6314TIP3    H143137   6.939   6.201   8.142  0.3719  1.1002 -1.2131
 6314TIP3    H243138   7.059   6.249   8.220  0.8382  0.2111 -1.3770
 6315TIP3   OH243139   3.630   3.898   0.323 -0.0566  0.2685  0.5753
 6315TIP3    H143140   3.585   3.825   0.364 -0.1893 -0.6260 -1.0561
 6315TIP3    H243141   3.686   3.857   0.256  1.8974  1.4712  1.3959
 6316TIP3   OH243142   3.752   5.562   7.379 -0.2733  0.0888  0.2429
 6316TIP3    H143143   3.820   5.505   7.414 -1.9203 -2.6846 -0.7745
 6316TIP3    H243144   3.799   5.630   7.331  1.8215 -2.6411 -1.8381
 6317TIP3   OH243145   1.417   5.127   1.682  0.3700  0.0264  0.7634
 6317TIP3    H143146   1.428   5.216   1.648 -3.7685  0.0932 -1.0118
 6317TIP3    H243147   1.478   5.074   1.630 -1.6590  1.0416 -3.0098
 6318TIP3   OH243148   0.211   6.769   6.966 -0.6377 -0.3969 -0.2491
 6318TIP3    H143149   0.184   6.691   6.918 -1.2573 -0.4683  0.2093
 6318TIP3    H243150   0.149   6.836   6.938 -0.6437 -0.2912  0.0216
 6319TIP3   OH243151   3.707   4.290   1.909 -0.1550 -0.3864 -0.1325
 6319TIP3    H143152   3.768   4.345   1.860 -0.1000 -0.4447 -0.1298
 6319TIP3    H243153   3.700   4.331   1.994 -1.6350  0.7417 -0.7505
 6320TIP3   OH243154   3.182   6.933   7.703  0.1939 -0.8720  0.3331
 6320TIP3    H143155   3.125   6.867   7.742 -0.3043 -1.2550 -0.9820
 6320TIP3    H243156   3.196   6.902   7.614  0.5053  0.4579 -0.0972
 6321TIP3   OH243157   2.188   3.259   8.626 -0.1162  0.4160 -0.7657
 6321TIP3    H143158   2.187   3.353   8.646  0.6229  0.3219 -0.2303
 6321TIP3    H243159   2.181   3.216   8.711 -1.6273 -0.0430 -1.0828
 6322TIP3   OH243160   6.361   1.981   1.063 -0.0852  0.4906 -0.2165
 6322TIP3    H143161   6.281   1.932   1.045 -0.7460  0.0200  3.3146
 6322TIP3    H243162   6.331   2.071   1.078 -0.1281  0.2069  1.6583
 6323TIP3   OH243163   1.816   6.144   1.916  0.7936  0.6376  0.3677
 6323TIP3    H143164   1.813   6.194   1.834  4.3374  0.1336 -0.2109
 6323TIP3    H243165   1.791   6.208   1.983 -0.6117  1.4869 -0.8904
 6324TIP3   OH243166   1.128   5.255   7.306  0.2468 -0.3978 -0.4752
 6324TIP3    H143167   1.120   5.345   7.339 -0.2470 -1.3290  2.2330
 6324TIP3    H243168   1.042   5.216   7.323  0.5593 -1.4872 -1.3030
 6325TIP3   OH243169   7.019   3.811   8.476  0.1269  0.0502 -0.2954
 6325TIP3    H143170   6.976   3.726   8.471 -1.3042  0.5840  1.6848
 6325TIP3    H243171   7.105   3.792   8.514  0.9398 -0.7802 -2.3987
 6326TIP3   OH243172   4.281   4.019   9.223  0.9368  0.1620  0.9479
 6326TIP3    H143173   4.344   3.991   9.289  2.1111 -0.7206 -0.4799
 6326TIP3    H243174   4.294   3.958   9.150  0.2207  1.5397 -0.3988
 6327TIP3   OH243175   5.413   0.857   7.965 -0.0451 -0.3155  0.1767
 6327TIP3    H143176   5.466   0.858   8.045  1.1949  0.2953 -0.6080
 6327TIP3    H243177   5.374   0.770   7.963 -0.1464 -0.3176  1.4722
 6328TIP3   OH243178   0.993   5.006   2.667  0.6450 -0.1420  0.0996
 6328TIP3    H143179   1.034   5.077   2.716 -0.0114 -0.9469  1.9307
 6328TIP3    H243180   0.937   5.050   2.603  1.6341  0.9615 -0.0324
 6329TIP3   OH243181   3.780   3.552   1.982  0.1948  0.2092  0.8124
 6329TIP3    H143182   3.811   3.625   1.928 -0.1062 -0.6238 -0.5241
 6329TIP3    H243183   3.817   3.570   2.069  1.2608  1.2362  0.1825
 6330TIP3   OH243184   7.246   1.744   7.084  0.2467  0.1460 -0.0960
 6330TIP3    H143185   7.172   1.798   7.057 -0.2557  0.3875  1.6451
 6330TIP3    H243186   7.207   1.666   7.123  0.8286  0.6015  1.4994
 6331TIP3   OH243187   4.817   6.429   8.391  0.4413  0.2287 -0.1541
 6331TIP3    H143188   4.734   6.383   8.386  0.2931  0.5532 -0.7673
 6331TIP3    H243189   4.824   6.456   8.483 -0.8856  1.5658 -0.4033
 6332TIP3   OH243190   6.322   1.063   0.911  0.3692  0.0391  0.3095
 6332TIP3    H143191   6.301   0.983   0.960  1.2801 -0.5534 -0.2431
 6332TIP3    H243192   6.416   1.060   0.898  0.2656  0.6033 -0.7384
 6333TIP3   OH243193   3.030   6.776   9.452  0.0195 -0.3889 -0.1331
 6333TIP3    H143194   2.951   6.822   9.423  0.0672  0.3092  0.8089
 6333TIP3    H243195   3.010   6.684   9.438 -1.2726 -0.2801  0.7839
 6334TIP3   OH243196   3.076   6.121   8.276  0.3813  0.0781  0.0576
 6334TIP3    H143197   3.127   6.052   8.234 -0.2555 -0.2060 -0.2616
 6334TIP3    H243198   2.993   6.079   8.300  0.3935  0.4600  0.8222
 6335TIP3   OH243199   4.575   6.672   0.736 -0.3638  0.6669 -0.5850
 6335TIP3    H143200   4.608   6.762   0.739  0.7031  0.2610  0.5324
 6335TIP3    H243201   4.494   6.675   0.787 -0.6428  1.1105 -1.0464
 6336TIP3   OH243202   0.879   0.974   0.274  0.1758 -0.4556  0.1947
 6336TIP3    H143203   0.807   0.930   0.318 -0.1674 -0.9547 -0.8404
 6336TIP3    H243204   0.872   1.066   0.302 -1.5185 -0.2707 -0.6951
 6337TIP3   OH243205   3.203   1.003   7.739 -0.3550  0.0815  0.7559
 6337TIP3    H143206   3.249   0.920   7.724  0.2901  0.1429  2.2814
 6337TIP3    H243207   3.258   1.051   7.801 -0.7947  1.6050  0.0226
 6338TIP3   OH243208   0.215   6.717   8.674  0.3605  0.6782 -0.2616
 6338TIP3    H143209   0.237   6.658   8.602 -0.3204  1.0379 -0.7693
 6338TIP3    H243210   0.257   6.800   8.652  2.1958  0.1410  0.9588
 6339TIP3   OH243211   7.277   6.112   1.214 -0.0138 -0.0606  0.0858
 6339TIP3    H143212   7.290   6.024   1.177  0.9151  0.4155 -0.7652
 6339TIP3    H243213   7.362   6.136   1.250 -0.5012  0.1338  1.1549
 6340TIP3   OH243214   0.432   0.697   9.594  0.3124 -0.1425 -0.0569
 6340TIP3    H143215   0.417   0.790   9.611 -0.1878 -0.0157 -1.0908
 6340TIP3    H243216   0.366   0.674   9.527  0.8494 -1.0783 -0.2850
 6341TIP3   OH243217   4.721   6.382   0.364  0.0160 -0.2892 -0.5326
 6341TIP3    H143218   4.657   6.323   0.324  0.5879 -0.9004 -0.5453
 6341TIP3    H243219   4.668   6.453   0.401 -1.0107 -2.2906  2.2072
 6342TIP3   OH243220   2.769   1.042   7.550 -0.1103 -0.3331 -0.5732
 6342TIP3    H143221   2.680   1.071   7.570 -0.2848 -0.9519 -0.4125
 6342TIP3    H243222   2.825   1.094   7.607 -0.6122 -2.3535  2.0015
 6343TIP3   OH243223   3.914   5.902   6.925 -0.7277  0.2825  0.0254
 6343TIP3    H143224   3.878   5.862   7.004  0.5420  0.4801  0.7313
 6343TIP3    H243225   3.920   5.831   6.862 -1.0307 -0.0446  0.3621
 6344TIP3   OH243226   2.573   2.236   9.434 -0.1384  0.3687 -0.4467
 6344TIP3    H143227   2.540   2.176   9.500  0.2852  0.3321 -0.2626
 6344TIP3    H243228   2.604   2.180   9.363 -1.6955  0.4436 -1.2183
 6345TIP3   OH243229   3.646   2.964   9.725 -0.0404 -0.0061  0.3166
 6345TIP3    H143230   3.625   2.887   9.672  0.7266  0.3972 -0.5986
 6345TIP3    H243231   3.598   2.951   9.806 -0.9221 -0.8357 -0.3207
 6346TIP3   OH243232   4.132   1.360   9.323 -0.1883  0.3062  0.6151
 6346TIP3    H143233   4.064   1.379   9.259 -0.0709 -0.8936  0.1141
 6346TIP3    H243234   4.137   1.439   9.377 -0.1988  1.3972 -0.9137
 6347TIP3   OH243235   4.959   5.343   8.838 -0.2045  0.7506 -0.1005
 6347TIP3    H143236   5.018   5.285   8.790 -0.6099  0.3771 -0.1510
 6347TIP3    H243237   4.882   5.289   8.858  0.0657  0.8203  1.2131
 6348TIP3   OH243238   7.128   1.088   8.171  0.0285 -0.1188 -0.6031
 6348TIP3    H143239   7.155   1.028   8.241 -0.7107 -0.5270 -0.6577
 6348TIP3    H243240   7.205   1.095   8.114  0.8068  0.5983  0.4931
 6349TIP3   OH243241   2.155   4.442   2.492 -0.3346 -0.2830 -0.1800
 6349TIP3    H143242   2.177   4.374   2.429 -2.1283 -0.6846 -0.4387
 6349TIP3    H243243   2.130   4.517   2.438 -0.4920 -0.1558  0.0677
 6350TIP3   OH243244   3.439   1.445   2.698 -0.2975 -0.2158 -0.0595
 6350TIP3    H143245   3.350   1.473   2.676 -0.9351 -1.4674  0.7914
 6350TIP3    H243246   3.488   1.527   2.710 -0.8925  0.5008 -2.1062
 6351TIP3   OH243247   1.543   6.975   0.165  0.2295 -0.3370 -0.6178
 6351TIP3    H143248   1.591   6.923   0.230 -1.8198  0.6239  1.8018
 6351TIP3    H243249   1.455   6.937   0.164 -1.2239  2.6583  0.9410
 6352TIP3   OH243250   5.707   5.744   0.831 -0.0133  0.0734 -0.2030
 6352TIP3    H143251   5.721   5.701   0.915 -0.7380  0.1576 -0.0408
 6352TIP3    H243252   5.640   5.691   0.788  0.2221  0.1361 -0.6575
 6353TIP3   OH243253   1.700   3.909   8.947 -0.8225  0.2806 -0.1420
 6353TIP3    H143254   1.616   3.866   8.962 -0.1445 -0.6936  0.9755
 6353TIP3    H243255   1.719   3.955   9.028 -0.6920  1.2639 -0.7073
 6354TIP3   OH243256   1.209   4.818   1.292  0.2055  0.4094  0.3677
 6354TIP3    H143257   1.160   4.849   1.369  0.5296  0.9583  0.3576
 6354TIP3    H243258   1.163   4.738   1.265 -0.7852  0.9913  0.2710
 6355TIP3   OH243259   2.258   0.901   0.889  0.5252  0.0830 -0.4435
 6355TIP3    H143260   2.264   0.953   0.808 -1.9633  0.7993 -0.2665
 6355TIP3    H243261   2.188   0.838   0.871  1.9571 -1.7623  0.1669
 6356TIP3   OH243262   6.003   0.845   0.088 -0.2136  0.4143  0.4426
 6356TIP3    H143263   6.085   0.864   0.043  0.4518 -1.6412  0.6470
 6356TIP3    H243264   5.953   0.793   0.024 -0.1307 -0.7548  1.2983
 6357TIP3   OH243265   0.619   6.550   8.514 -0.1857  0.7122  0.9862
 6357TIP3    H143266   0.687   6.506   8.564  0.4391  0.5418  0.0167
 6357TIP3    H243267   0.654   6.638   8.499  0.9149 -0.0680 -1.4952
 6358TIP3   OH243268   2.778   3.511   1.450 -0.3946 -0.1093 -0.1355
 6358TIP3    H143269   2.775   3.512   1.354  0.3766 -0.8863 -0.1912
 6358TIP3    H243270   2.863   3.549   1.471 -1.7510  2.8939  0.4061
 6359TIP3   OH243271   0.134   7.194   1.336 -0.3712 -0.1093 -0.5788
 6359TIP3    H143272   0.067   7.146   1.384 -0.3062 -1.4682 -1.7627
 6359TIP3    H243273   0.177   7.248   1.402 -1.4433 -0.5629  0.5335
 6360TIP3   OH243274   6.034   4.786   8.244  0.0517 -0.0846 -0.1763
 6360TIP3    H143275   6.077   4.798   8.159 -1.1527 -0.5592 -0.8631
 6360TIP3    H243276   5.954   4.738   8.224 -1.6061  2.0924  0.8582
 6361TIP3   OH243277   1.384   0.198   2.710 -0.1101 -0.5547  0.9700
 6361TIP3    H143278   1.420   0.110   2.712 -1.0741 -1.0227 -0.4808
 6361TIP3    H243279   1.303   0.193   2.760 -2.3637 -1.6499 -2.4165
 6362TIP3   OH243280   0.843   5.154   8.999  0.2080 -0.0815  0.1963
 6362TIP3    H143281   0.830   5.069   8.958  0.1917 -2.0490  3.8569
 6362TIP3    H243282   0.938   5.168   8.999  0.4599 -1.4552  1.8229
 6363TIP3   OH243283   6.764   2.478   1.917 -0.7764  0.0421 -0.6645
 6363TIP3    H143284   6.711   2.463   1.996 -1.1420  1.2898 -0.6502
 6363TIP3    H243285   6.829   2.408   1.918 -0.3404  0.4221  1.1259
 6364TIP3   OH243286   5.325   6.382   9.609 -0.4202  0.3889 -0.0030
 6364TIP3    H143287   5.282   6.461   9.640  0.9259  1.5489 -0.9218
 6364TIP3    H243288   5.398   6.415   9.555 -0.5002 -1.4803 -1.3323
 6365TIP3   OH243289   4.183   1.166   1.985  0.0486 -0.1026 -0.1658
 6365TIP3    H143290   4.238   1.234   1.947  0.8516 -0.6898 -0.0754
 6365TIP3    H243291   4.094   1.199   1.975  0.4183  0.9103 -0.2157
 6366TIP3   OH243292   6.356   0.064   1.259 -0.1942 -0.6767  0.2276
 6366TIP3    H143293   6.365   0.081   1.166  0.9000 -0.5345  0.3378
 6366TIP3    H243294   6.419  -0.006   1.277  0.4474  0.0744  1.0435
 6367TIP3   OH243295   5.294   6.913   8.756 -0.4219  0.4234 -0.2767
 6367TIP3    H143296   5.226   6.971   8.720 -0.3787 -0.1940 -1.3834
 6367TIP3    H243297   5.322   6.957   8.837 -2.6544  0.3406  0.6259
 6368TIP3   OH243298   1.654   6.221   1.523 -0.0413 -0.0438 -0.1226
 6368TIP3    H143299   1.731   6.252   1.571 -1.1036  1.4230  0.6984
 6368TIP3    H243300   1.636   6.290   1.459 -0.1547 -0.8012 -0.9315
 6369TIP3   OH243301   5.550   6.038   1.254  0.2700  0.0739  0.1196
 6369TIP3    H143302   5.553   6.071   1.164 -0.9942  0.5767  0.2309
 6369TIP3    H243303   5.625   6.079   1.298  0.1478  0.8618 -0.3878
 6370TIP3   OH243304   1.437   2.012   0.327  0.4986 -0.0386  0.0036
 6370TIP3    H143305   1.351   2.040   0.296  0.2686 -1.1918 -0.4345
 6370TIP3    H243306   1.498   2.077   0.293 -0.1046  0.3196 -0.3899
 6371TIP3   OH243307   4.412   3.399   1.938 -0.0142 -0.7171 -0.5024
 6371TIP3    H143308   4.503   3.429   1.940 -0.3006  0.1876 -0.3495
 6371TIP3    H243309   4.413   3.315   1.982  0.5600 -0.1563  0.5786
 6372TIP3   OH243310   0.576   0.779   1.922  0.2945 -0.1294  0.0339
 6372TIP3    H143311   0.520   0.741   1.854  1.9503 -0.2043 -1.3644
 6372TIP3    H243312   0.658   0.732   1.914  0.8988  0.6587  1.3522
 6373TIP3   OH243313   0.457   1.659   9.563 -0.3114 -0.0826 -0.2207
 6373TIP3    H143314   0.489   1.742   9.527  0.3793  0.4266  1.4434
 6373TIP3    H243315   0.531   1.599   9.557 -0.4185 -0.2065 -0.3068
 6374TIP3   OH243316   2.902   3.053  10.000 -0.2880  0.1730 -0.0529
 6374TIP3    H143317   2.855   3.111  10.060  1.2798 -0.0984  1.4835
 6374TIP3    H243318   2.892   2.965  10.037 -0.2496 -0.1689 -0.8169
 6375TIP3   OH243319   3.020   2.265   0.318  0.1531  0.1091  0.2334
 6375TIP3    H143320   3.113   2.286   0.323 -0.3067  2.5639 -0.3785
 6375TIP3    H243321   2.984   2.297   0.401 -0.0389 -1.7635  0.9241
 6376TIP3   OH243322   6.102   6.207   8.722 -0.4044 -0.8549 -0.4246
 6376TIP3    H143323   6.087   6.240   8.633  0.2479 -2.4464 -1.1588
 6376TIP3    H243324   6.021   6.159   8.743  0.1313 -2.0077 -0.9049
 6377TIP3   OH243325   6.140   0.384   2.066 -0.0809 -0.0117 -0.0704
 6377TIP3    H143326   6.135   0.292   2.041 -1.3461  0.0688 -0.1615
 6377TIP3    H243327   6.091   0.430   1.998 -2.0487  0.4015  1.5302
 6378TIP3   OH243328   1.903   2.288   8.760  0.2783  0.1987  0.3531
 6378TIP3    H143329   1.934   2.336   8.837 -0.9067 -0.9475  1.6009
 6378TIP3    H243330   1.982   2.263   8.714  0.9980  1.4012  0.8766
 6379TIP3   OH243331   2.294   5.686   9.436  0.1276 -0.2688 -0.0804
 6379TIP3    H143332   2.296   5.745   9.511  1.2784  0.5406 -0.7213
 6379TIP3    H243333   2.216   5.711   9.387  0.3752  0.4419 -0.1198
 6380TIP3   OH243334   4.209   0.246   6.735  0.3827  0.5276 -0.3011
 6380TIP3    H143335   4.299   0.272   6.717  0.8025 -0.4245  0.3121
 6380TIP3    H243336   4.163   0.260   6.652  1.5141 -0.7038 -1.1836
 6381TIP3   OH243337   7.188   3.804   0.998 -0.1238 -0.2665 -0.0564
 6381TIP3    H143338   7.269   3.841   1.033 -0.3727  1.6733 -1.3798
 6381TIP3    H243339   7.178   3.721   1.044  1.0391  0.8160  2.3231
 6382TIP3   OH243340   0.776   2.824   7.851 -0.0814  0.2531 -0.7737
 6382TIP3    H143341   0.869   2.844   7.838  0.1278 -0.3514 -0.2728
 6382TIP3    H243342   0.731   2.869   7.780  0.7382 -0.6885 -1.9309
 6383TIP3   OH243343   6.671   1.639   1.327  0.0561 -0.2442 -0.0574
 6383TIP3    H143344   6.699   1.615   1.239  0.1668 -0.8573  0.1372
 6383TIP3    H243345   6.578   1.618   1.329  0.0303 -0.1300 -0.0620
 6384TIP3   OH243346   6.244   1.379   1.422  0.2624  0.6488 -0.6723
 6384TIP3    H143347   6.170   1.349   1.475 -0.2580  1.8771 -0.6775
 6384TIP3    H243348   6.275   1.299   1.378 -1.9315  0.2976 -1.7549
 6385TIP3   OH243349   2.917   3.262   9.561 -0.6837  0.1062  0.0875
 6385TIP3    H143350   2.883   3.204   9.629 -1.2764 -0.7714 -0.9166
 6385TIP3    H243351   2.981   3.317   9.605  1.2324 -2.4890  0.7405
 6386TIP3   OH243352   6.889   1.862   2.043  0.3976 -0.7439 -0.5614
 6386TIP3    H143353   6.797   1.835   2.045 -0.3644  1.0649  5.2421
 6386TIP3    H243354   6.931   1.810   2.112  2.6732  1.4496 -0.1655
 6387TIP3   OH243355   0.337   4.348   0.655  0.2087  0.5003 -0.3159
 6387TIP3    H143356   0.314   4.302   0.574 -1.1174 -0.7289  0.7232
 6387TIP3    H243357   0.431   4.363   0.647  0.1354  0.2900 -2.0173
 6388TIP3   OH243358   0.477   6.804   1.557 -0.4318  0.1501  0.0076
 6388TIP3    H143359   0.412   6.767   1.497 -0.0551  1.2964 -1.1355
 6388TIP3    H243360   0.560   6.764   1.531 -0.3287  0.3619  0.0102
 6389TIP3   OH243361   4.961   3.095   1.612 -0.6185  0.1784 -0.0528
 6389TIP3    H143362   4.963   3.100   1.707 -2.3993  0.2721  0.0288
 6389TIP3    H243363   4.947   3.185   1.583 -1.7482 -0.0545 -0.2841
 6390TIP3   OH243364   3.578   0.192   0.590  0.2274 -0.0432 -0.3516
 6390TIP3    H143365   3.520   0.177   0.516 -0.3412 -0.6617  0.2007
 6390TIP3    H243366   3.524   0.241   0.653 -0.0475 -1.4872  0.5844
 6391TIP3   OH243367   3.676   5.718   0.748  0.0780 -0.4945 -0.2045
 6391TIP3    H143368   3.754   5.772   0.760 -0.4347 -0.0335  1.1412
 6391TIP3    H243369   3.603   5.779   0.751 -0.5335 -1.2421  1.5806
 6392TIP3   OH243370   2.000   5.111   8.694 -0.1889 -0.1156 -0.3103
 6392TIP3    H143371   2.000   5.161   8.613  2.9731 -0.0295 -0.3782
 6392TIP3    H243372   2.024   5.022   8.667  0.4392 -0.1904  0.4571
 6393TIP3   OH243373   5.129   6.253   7.637 -0.0928 -0.1274  0.0659
 6393TIP3    H143374   5.166   6.166   7.618 -1.7584 -0.5973 -1.3188
 6393TIP3    H243375   5.200   6.301   7.679  0.3856 -2.7194  2.5760
 6394TIP3   OH243376   6.741   4.043   7.940  0.0628 -0.1743  0.2785
 6394TIP3    H143377   6.676   4.095   7.894  0.7002  0.9026  0.5474
 6394TIP3    H243378   6.748   3.962   7.890 -2.0113 -0.6445  0.6650
 6395TIP3   OH243379   3.762   2.665   9.937 -0.1401 -0.2867 -0.2643
 6395TIP3    H143380   3.814   2.745   9.935  0.1734 -0.4344  1.1475
 6395TIP3    H243381   3.816   2.600   9.891  0.4014 -0.1374  0.1520
 6396TIP3   OH243382   5.844   2.580   8.390  0.4454 -0.0226 -0.1965
 6396TIP3    H143383   5.843   2.566   8.295 -0.1996 -1.2620 -0.0253
 6396TIP3    H243384   5.849   2.492   8.427 -0.4611  0.3778  0.9222
 6397TIP3   OH243385   7.249   5.038   9.437 -0.5863  0.7336  1.2253
 6397TIP3    H143386   7.307   5.100   9.392  0.3418 -1.8502 -1.4562
 6397TIP3    H243387   7.165   5.046   9.392 -0.2886 -0.3066  0.4493
 6398TIP3   OH243388   2.594   7.017   2.515  0.2809 -0.2984  0.0313
 6398TIP3    H143389   2.525   7.082   2.530  1.3770  0.9689 -0.2432
 6398TIP3    H243390   2.657   7.061   2.459  0.7442 -1.8505 -0.7260
 6399TIP3   OH243391   6.460   3.963   9.196 -0.1795  0.5268 -0.2524
 6399TIP3    H143392   6.461   3.881   9.244 -0.7654  1.0198  0.6459
 6399TIP3    H243393   6.542   4.007   9.221 -0.0041  0.3518 -0.5080
 6400TIP3   OH243394   0.646   6.528   0.912 -0.5690  0.0601  0.1847
 6400TIP3    H143395   0.675   6.542   1.002  2.3376 -1.4956 -0.3834
 6400TIP3    H243396   0.660   6.612   0.868  1.0591 -0.0177  0.4937
 6401TIP3   OH243397   6.842   4.618   0.597  0.5647  0.1098 -0.0130
 6401TIP3    H143398   6.893   4.545   0.631 -0.8871 -1.8341 -1.7480
 6401TIP3    H243399   6.751   4.591   0.606 -0.0687  1.9806 -0.1950
 6402TIP3   OH243400   3.596   0.753   0.137 -0.1722 -0.4395 -0.8272
 6402TIP3    H143401   3.578   0.766   0.044  2.0373  1.1050 -1.0967
 6402TIP3    H243402   3.661   0.684   0.140 -0.9900 -1.2131 -0.3226
 6403TIP3   OH243403   6.923   2.138   0.418  0.1248  0.1295  0.2261
 6403TIP3    H143404   6.908   2.127   0.324 -2.5132 -0.1832  0.6121
 6403TIP3    H243405   6.838   2.121   0.458  0.4878  2.8407  2.4729
 6404TIP3   OH243406   6.481   5.056   9.212  0.3724  0.2713  0.0967
 6404TIP3    H143407   6.404   5.067   9.269  0.7665  0.2850  0.6287
 6404TIP3    H243408   6.537   5.130   9.234  1.6027 -0.9969  1.4023
 6405TIP3   OH243409   4.301   2.235   2.583 -0.1594 -0.1231  0.0391
 6405TIP3    H143410   4.210   2.246   2.555  0.2165  0.3312 -1.0696
 6405TIP3    H243411   4.341   2.181   2.515  0.8302  1.1780 -0.4695
 6406TIP3   OH243412   4.917   2.021   9.370 -0.2261  0.2325 -0.0461
 6406TIP3    H143413   5.006   2.057   9.376 -0.1995  0.1456  0.0989
 6406TIP3    H243414   4.923   1.956   9.300  0.0124 -0.2951  0.4542
 6407TIP3   OH243415   6.890   5.871   0.596  0.6020 -0.4120  0.2068
 6407TIP3    H143416   6.817   5.813   0.617 -0.8789  0.7092 -1.5265
 6407TIP3    H243417   6.869   5.953   0.643  1.8178 -0.7050  1.3115
 6408TIP3   OH243418   6.209   1.297   8.942  0.2786  0.2823 -0.0659
 6408TIP3    H143419   6.230   1.233   8.874  0.4003  0.4453 -0.1810
 6408TIP3    H243420   6.114   1.306   8.938 -0.1589 -2.1191  1.9163
 6409TIP3   OH243421   1.768   4.596   1.683  0.2261  0.0231  0.3109
 6409TIP3    H143422   1.798   4.556   1.764 -0.2600  0.0430  0.5058
 6409TIP3    H243423   1.704   4.661   1.711  1.7903  1.7422  0.0978
 6410TIP3   OH243424   0.439   6.990   2.238  0.0370  0.0279 -0.3705
 6410TIP3    H143425   0.357   6.940   2.236  0.6981 -1.1897  0.8798
 6410TIP3    H243426   0.502   6.935   2.191  0.9315 -0.6812  1.5542
 6411TIP3   OH243427   7.046   3.785   0.451 -0.4019  0.0087  0.3027
 6411TIP3    H143428   6.959   3.784   0.489 -0.2563 -1.2400  0.6751
 6411TIP3    H243429   7.100   3.737   0.514  0.4101  0.2274 -0.2120
 6412TIP3   OH243430   3.739   6.422   2.266  0.2347 -0.3867  0.3138
 6412TIP3    H143431   3.689   6.363   2.210 -0.0609 -0.7202  0.9220
 6412TIP3    H243432   3.673   6.480   2.304  0.1562 -1.4374  1.8642
 6413TIP3   OH243433   0.748   3.237   7.833  0.4124  0.2819 -0.0908
 6413TIP3    H143434   0.757   3.207   7.924 -0.6451  2.9349  1.0056
 6413TIP3    H243435   0.813   3.307   7.825 -0.0390  0.5893 -1.1255
 6414TIP3   OH243436   0.178   6.545   0.462  0.0091 -0.3442  0.5090
 6414TIP3    H143437   0.235   6.532   0.538  0.2177  0.0940  0.4308
 6414TIP3    H243438   0.107   6.599   0.495  0.6776  0.7917  0.1351
 6415TIP3   OH243439   5.520   4.772   8.355 -0.3332 -0.4360 -0.3279
 6415TIP3    H143440   5.469   4.760   8.276 -0.5020 -1.6218 -0.0514
 6415TIP3    H243441   5.610   4.783   8.324 -0.0537 -3.0535 -0.6282
 6416TIP3   OH243442   2.463   6.219   7.164 -0.0320 -0.5420 -0.3141
 6416TIP3    H143443   2.442   6.210   7.071 -0.4990 -0.3283 -0.2363
 6416TIP3    H243444   2.378   6.236   7.206  0.3163  0.4787  0.0010
 6417TIP3   OH243445   6.271   6.930   6.531 -0.0782 -0.4311  0.0559
 6417TIP3    H143446   6.268   6.978   6.614  0.7532 -0.9093  0.3783
 6417TIP3    H243447   6.355   6.954   6.492  1.0443 -2.6779  0.9113
 6418TIP3   OH243448   6.525   0.234   1.694  0.0821  0.0883 -0.3753
 6418TIP3    H143449   6.434   0.229   1.721  0.1244 -1.2726 -0.4035
 6418TIP3    H243450   6.523   0.218   1.600  0.3678 -0.3297 -0.3153
 6419TIP3   OH243451   2.496   3.958   8.609  0.6265 -0.5224  0.2750
 6419TIP3    H143452   2.412   3.935   8.569  0.1771 -0.2396  1.0363
 6419TIP3    H243453   2.551   3.881   8.595  0.3602 -0.5776 -0.5314
 6420TIP3   OH243454   0.874   6.020   0.708 -0.5292 -0.2525  0.1769
 6420TIP3    H143455   0.909   6.086   0.648 -1.0556 -0.8510 -0.8251
 6420TIP3    H243456   0.780   6.037   0.711 -0.6545 -0.8726 -0.0060
 6421TIP3   OH243457   0.793   3.041   7.474 -0.0004 -0.3333  0.4618
 6421TIP3    H143458   0.769   3.083   7.392  0.3423  0.5173  0.7892
 6421TIP3    H243459   0.875   2.996   7.455  1.5533  2.0829  0.9902
 6422TIP3   OH243460   4.557   2.451   8.737  0.7119  0.4719 -0.3473
 6422TIP3    H143461   4.489   2.514   8.762 -0.0752  0.1772 -1.6275
 6422TIP3    H243462   4.551   2.446   8.642 -1.0843 -3.4495 -0.2322
 6423TIP3   OH243463   3.201   1.727   0.027  0.3036  0.2086  0.0801
 6423TIP3    H143464   3.282   1.684   0.054  0.8362  0.5465 -0.9164
 6423TIP3    H243465   3.133   1.663   0.044  1.0031 -0.8052 -0.7984
 6424TIP3   OH243466   6.645   2.746   7.825  0.5368 -0.1253  0.6120
 6424TIP3    H143467   6.584   2.714   7.759  0.2390  1.3804  0.1061
 6424TIP3    H243468   6.727   2.699   7.808 -0.0681 -1.1171  0.3804
 6425TIP3   OH243469   1.749   0.867   2.157 -0.2353  0.0759  0.2766
 6425TIP3    H143470   1.684   0.872   2.087  0.2424  2.8725 -0.1036
 6425TIP3    H243471   1.832   0.857   2.112 -0.1803 -1.3896  0.6600
 6426TIP3   OH243472   3.850   6.614   8.574 -0.3351 -0.3333 -0.0838
 6426TIP3    H143473   3.932   6.653   8.544  0.0287  0.2426  1.5905
 6426TIP3    H243474   3.783   6.679   8.552  0.0099  0.3622  0.8650
 6427TIP3   OH243475   1.410   4.032   1.619  0.1665 -0.4703  0.4764
 6427TIP3    H143476   1.479   3.971   1.644 -0.5518  0.1272  4.7958
 6427TIP3    H243477   1.453   4.117   1.617 -0.1738 -0.2159  2.2777
 6428TIP3   OH243478   3.229   0.769   0.104 -0.1303  0.9815  0.0272
 6428TIP3    H143479   3.166   0.708   0.142 -0.5073  1.3359 -0.0276
 6428TIP3    H243480   3.289   0.713   0.055 -0.5716  0.6667 -0.1592
 6429TIP3   OH243481   2.012   3.930   8.457  0.4664 -0.1211  0.2214
 6429TIP3    H143482   1.961   3.926   8.376  1.1535 -0.7873 -0.1954
 6429TIP3    H243483   1.947   3.945   8.525 -0.2378 -0.4837 -0.3489
 6430TIP3   OH243484   1.317   6.923   0.740  0.0946 -0.2445 -0.0638
 6430TIP3    H143485   1.248   6.865   0.774 -0.0989 -0.4933 -0.8528
 6430TIP3    H243486   1.284   6.951   0.654 -0.0569  1.4600  0.5159
 6431TIP3   OH243487   5.039   4.926   8.687 -0.5228 -0.2016  0.4201
 6431TIP3    H143488   5.003   4.838   8.697  1.1897 -1.0201 -0.2240
 6431TIP3    H243489   5.008   4.955   8.601  1.0524 -1.2922 -0.5660
 6432TIP3   OH243490   2.059   4.702   0.479  0.0434  0.3188  0.2387
 6432TIP3    H143491   2.016   4.779   0.517 -1.2927 -0.1683 -0.2022
 6432TIP3    H243492   2.011   4.628   0.516 -0.4889 -0.2070 -1.4221
 6433TIP3   OH243493   1.623   5.000   7.002 -0.4643  0.1595 -0.8381
 6433TIP3    H143494   1.657   5.001   7.091  2.6000 -0.1429 -1.8803
 6433TIP3    H243495   1.594   5.090   6.987  2.2310  1.1964 -0.5436
 6434TIP3   OH243496   0.592   0.186   8.005 -0.0854  0.2085 -0.1878
 6434TIP3    H143497   0.499   0.186   7.981 -0.0746  0.9360 -0.2649
 6434TIP3    H243498   0.637   0.213   7.925  0.2815 -1.0254 -0.4124
 6435TIP3   OH243499   3.299   1.690   0.392  0.4719 -0.3180  1.0869
 6435TIP3    H143500   3.303   1.608   0.343 -2.5765  0.6918 -1.1691
 6435TIP3    H243501   3.360   1.748   0.345 -1.1037  0.1004 -0.5712
 6436TIP3   OH243502   0.481   1.818   1.048 -0.1078 -0.1059  0.4002
 6436TIP3    H143503   0.387   1.818   1.031 -0.1882 -0.2101  0.8236
 6436TIP3    H243504   0.508   1.909   1.036 -0.6283  0.3292  2.1638
 6437TIP3   OH243505   1.693   0.510   7.462 -0.2187  0.4433  0.0679
 6437TIP3    H143506   1.777   0.494   7.505 -0.3767  0.2969  0.3262
 6437TIP3    H243507   1.631   0.518   7.534 -0.5037  0.1111 -0.1388
 6438TIP3   OH243508   3.411   3.854   8.624  0.0515  0.1806  0.3092
 6438TIP3    H143509   3.330   3.872   8.576 -0.0490 -2.8430 -0.8169
 6438TIP3    H243510   3.392   3.775   8.675  1.8945  0.1927  1.0963
 6439TIP3   OH243511   4.797   3.149   8.746 -0.1742 -0.2741 -0.0040
 6439TIP3    H143512   4.871   3.140   8.807  1.1747  1.2045 -1.3135
 6439TIP3    H243513   4.821   3.094   8.671 -0.8757 -0.5517 -0.0258
 6440TIP3   OH243514   6.968   1.658   8.570  0.4729  0.3302  0.1282
 6440TIP3    H143515   6.954   1.598   8.497  0.7664 -0.0486  0.3831
 6440TIP3    H243516   6.986   1.602   8.645 -2.3064  0.5936  1.1059
 6441TIP3   OH243517   2.139   5.072   0.298  0.2971 -0.0362 -0.1849
 6441TIP3    H143518   2.214   5.120   0.261  1.5567 -0.9287  1.1534
 6441TIP3    H243519   2.063   5.125   0.272  1.6203  2.9428  1.4981
 6442TIP3   OH243520   0.120   2.029   8.724 -0.1918  0.5908 -0.2455
 6442TIP3    H143521   0.097   1.937   8.708 -2.0902  1.3305 -2.3953
 6442TIP3    H243522   0.045   2.063   8.774  1.0678  0.7440  1.6319
 6443TIP3   OH243523   6.431   4.030   2.660  0.2100  0.0800 -0.0570
 6443TIP3    H143524   6.353   4.056   2.709 -1.0129 -0.6560 -1.5224
 6443TIP3    H243525   6.418   3.936   2.644  2.7522 -0.7309  2.0199
 6444TIP3   OH243526   4.756   4.967   2.913 -0.2761 -0.5499 -0.3914
 6444TIP3    H143527   4.746   5.047   2.964  0.5444 -0.6454 -0.0688
 6444TIP3    H243528   4.677   4.917   2.931 -0.2696 -0.3148  0.3119
 6445TIP3   OH243529   5.044   0.328   1.956 -0.2607 -0.9660 -0.0783
 6445TIP3    H143530   5.016   0.238   1.939  0.0167 -1.1645  0.5029
 6445TIP3    H243531   5.087   0.355   1.874 -1.5834 -0.8568 -0.7695
 6446TIP3   OH243532   2.545   2.968   1.623  0.3768 -0.2874  0.1490
 6446TIP3    H143533   2.580   3.044   1.669  0.5777 -0.5607  0.4524
 6446TIP3    H243534   2.569   2.982   1.531 -1.2616  0.9644 -0.1301
 6447TIP3   OH243535   6.844   6.587   6.580  0.2094 -0.0797  0.0739
 6447TIP3    H143536   6.900   6.532   6.526  0.5915  0.2863  0.0947
 6447TIP3    H243537   6.828   6.535   6.659 -0.5069 -0.6933 -0.4650
 6448TIP3   OH243538   0.067   5.885   1.025  0.8078 -0.1352  0.5288
 6448TIP3    H143539   0.051   5.791   1.023  0.7695 -0.1106 -0.9663
 6448TIP3    H243540   0.062   5.913   0.934  3.1684  0.9260  0.6324
 6449TIP3   OH243541   6.776   2.867   9.415  0.4352 -0.6669  0.5379
 6449TIP3    H143542   6.691   2.869   9.460 -0.4271  0.3484 -1.0345
 6449TIP3    H243543   6.799   2.960   9.403 -0.2598 -0.8033 -2.6149
 6450TIP3   OH243544   1.197   2.709   9.246  0.0510  0.3552  0.9221
 6450TIP3    H143545   1.254   2.786   9.235  2.0894 -1.1862 -0.0507
 6450TIP3    H243546   1.122   2.727   9.190  1.1839  1.0436 -0.4513
 6451TIP3   OH243547   1.688   2.970   8.259 -0.3923  0.0687 -0.3259
 6451TIP3    H143548   1.686   2.887   8.306 -0.5327  0.6141  0.6618
 6451TIP3    H243549   1.643   2.953   8.177 -0.2731 -0.8725 -0.2006
 6452TIP3   OH243550   4.435   0.431   0.315  0.3203  0.3077  0.3984
 6452TIP3    H143551   4.347   0.434   0.353 -0.0915  1.5779 -0.5811
 6452TIP3    H243552   4.436   0.350   0.264 -1.0969  1.2962 -1.3301
 6453TIP3   OH243553   6.914   1.159   7.620  0.0644 -0.0940 -0.2117
 6453TIP3    H143554   6.862   1.079   7.616  0.5262 -0.4099 -0.0803
 6453TIP3    H243555   6.969   1.156   7.541  0.4107 -0.1479  0.0248
 6454TIP3   OH243556   6.704   0.941   9.191  0.1739 -0.3213 -0.0676
 6454TIP3    H143557   6.759   0.870   9.223 -1.2141 -1.2899  0.2857
 6454TIP3    H243558   6.690   0.997   9.267 -1.0005 -1.2163  0.4116
 6455TIP3   OH243559   5.163   2.217   0.041 -0.2065 -0.9642 -0.3712
 6455TIP3    H143560   5.076   2.218   0.001 -0.1872 -0.0901 -0.4107
 6455TIP3    H243561   5.223   2.214  -0.033 -0.1935 -0.4989 -0.3863
 6456TIP3   OH243562   4.691   6.318   7.945  0.0160  0.5128  0.1085
 6456TIP3    H143563   4.781   6.295   7.922  0.7092 -0.4868  3.2887
 6456TIP3    H243564   4.699   6.379   8.019 -1.8885  0.4028  0.4708
 6457TIP3   OH243565   1.970   5.240   7.526  0.0224  0.3501  0.5615
 6457TIP3    H143566   2.003   5.152   7.545 -0.3215 -0.3005 -1.6271
 6457TIP3    H243567   2.047   5.296   7.533  0.6823 -0.4520 -0.0513
 6458TIP3   OH243568   2.207   4.225   2.358 -0.1042 -0.3523 -0.3262
 6458TIP3    H143569   2.222   4.163   2.286  1.2874  0.8900 -1.1653
 6458TIP3    H243570   2.272   4.201   2.424 -0.5909 -0.7383  0.0207
 6459TIP3   OH243571   1.986   3.916   2.388 -0.2114 -0.0977  0.0044
 6459TIP3    H143572   1.913   3.895   2.447 -1.2072  0.0705 -1.1287
 6459TIP3    H243573   2.062   3.921   2.445 -1.1307 -0.0152  1.2719
 6460TIP3   OH243574   0.055   5.120   8.666  0.0815 -0.3378 -0.3310
 6460TIP3    H143575   0.081   5.128   8.575  0.5767 -1.5637 -0.3221
 6460TIP3    H243576   0.131   5.150   8.716  0.9501 -2.3464 -0.3257
 6461TIP3   OH243577   5.393   6.661   0.802  0.0648  0.6076 -0.3039
 6461TIP3    H143578   5.356   6.572   0.806  1.5775 -0.0467  0.1551
 6461TIP3    H243579   5.455   6.657   0.729  2.0085  0.4700  1.2638
 6462TIP3   OH243580   7.261   6.847   2.051 -0.2216  0.0983 -0.0664
 6462TIP3    H143581   7.187   6.887   2.096  0.4806  0.7697  0.5226
 6462TIP3    H243582   7.268   6.895   1.969 -0.1792  0.3101  0.0620
 6463TIP3   OH243583   0.322   2.959   7.668 -0.1027 -0.0600  0.7247
 6463TIP3    H143584   0.237   2.953   7.623 -0.4895  0.3441  1.3826
 6463TIP3    H243585   0.317   2.895   7.739  0.2883 -0.2983  0.5398
 6464TIP3   OH243586   1.410   1.303   2.269  0.1432  0.2979  0.2720
 6464TIP3    H143587   1.316   1.301   2.287 -0.1633  0.3073 -1.1679
 6464TIP3    H243588   1.451   1.270   2.349 -1.0971 -0.0322  0.7967
 6465TIP3   OH243589   4.150   5.218   8.151 -0.3491 -0.3282  0.4641
 6465TIP3    H143590   4.154   5.213   8.056 -0.1189  0.7204  0.4083
 6465TIP3    H243591   4.103   5.299   8.169  2.9197  1.6001  1.2135
 6466TIP3   OH243592   4.879   6.878   0.971  0.5953  0.2604  0.7619
 6466TIP3    H143593   4.939   6.927   0.913 -0.4116  0.0888 -0.4720
 6466TIP3    H243594   4.875   6.791   0.932 -0.6820  0.3575  0.6563
 6467TIP3   OH243595   0.214   2.379   1.868 -0.5398  0.5047  1.0914
 6467TIP3    H143596   0.225   2.297   1.917  1.4864  0.0779  0.0409
 6467TIP3    H243597   0.144   2.359   1.805  0.3844 -0.6921  0.3918
 6468TIP3   OH243598   6.346   1.640   1.394 -0.0506 -0.3314 -0.2119
 6468TIP3    H143599   6.318   1.549   1.403  1.3216 -0.5474  3.1003
 6468TIP3    H243600   6.266   1.688   1.375 -0.9552 -2.0789 -1.0578
 6469TIP3   OH243601   7.256   5.742   8.296 -0.2636 -0.7037  0.5357
 6469TIP3    H143602   7.203   5.662   8.291 -0.5471 -0.5435  0.9116
 6469TIP3    H243603   7.347   5.711   8.294 -0.3706 -1.0189  0.4599
 6470TIP3   OH243604   0.340   2.143   8.222 -0.0226 -0.3299  0.0770
 6470TIP3    H143605   0.395   2.202   8.171 -0.7707 -0.2635 -0.6682
 6470TIP3    H243606   0.312   2.194   8.298 -0.0839  0.0403 -0.1968
 6471TIP3   OH243607   3.533   4.962   0.276  0.5871 -0.6342 -0.8573
 6471TIP3    H143608   3.517   4.976   0.369  0.2553 -1.2371 -0.8181
 6471TIP3    H243609   3.539   5.050   0.238  0.9334 -0.3876 -0.2351
 6472TIP3   OH243610   0.486   2.639   7.122  0.2117  0.1224 -0.3253
 6472TIP3    H143611   0.506   2.732   7.125  0.0087  0.1721  2.8317
 6472TIP3    H243612   0.541   2.601   7.191 -1.6389 -1.6504  0.2719
 6473TIP3   OH243613   3.414   2.516   8.557 -0.2090  0.0299 -0.1111
 6473TIP3    H143614   3.444   2.496   8.468 -0.7366  0.7390 -0.4641
 6473TIP3    H243615   3.377   2.604   8.550  0.3778  0.3722  0.9736
 6474TIP3   OH243616   7.214   3.160   6.911 -0.6076  0.3821  0.1650
 6474TIP3    H143617   7.250   3.071   6.908 -0.8507  0.2781  0.3638
 6474TIP3    H243618   7.204   3.185   6.819 -2.1304 -0.4350  0.0921
 6475TIP3   OH243619   1.998   0.986   9.313 -0.0105  0.3024  0.1641
 6475TIP3    H143620   1.960   0.980   9.226  0.7724  0.8795 -0.2348
 6475TIP3    H243621   1.995   1.079   9.334  0.0831  0.2035  0.6188
 6476TIP3   OH243622   1.632   3.636   9.518  0.2298 -0.2906  0.5088
 6476TIP3    H143623   1.627   3.728   9.494  0.2229 -0.2311  0.7361
 6476TIP3    H243624   1.542   3.605   9.514  0.4470 -0.8122 -1.5824
 6477TIP3   OH243625   1.574   7.016   2.144  0.2183  0.0474  0.7753
 6477TIP3    H143626   1.567   7.078   2.217 -2.2308  4.8593 -2.9541
 6477TIP3    H243627   1.652   7.046   2.096  1.7464 -2.9800  1.1026
 6478TIP3   OH243628   4.857   3.434   7.430 -0.0111  0.1736 -0.2785
 6478TIP3    H143629   4.859   3.371   7.358 -0.7667  0.5260 -0.6099
 6478TIP3    H243630   4.871   3.519   7.389  1.4770  0.2075  0.2209
 6479TIP3   OH243631   1.211   2.469   9.895 -0.1169 -0.0699 -0.9761
 6479TIP3    H143632   1.215   2.558   9.858 -2.2431 -0.7657 -3.1451
 6479TIP3    H243633   1.271   2.419   9.840  0.6525 -0.1083 -0.1125
 6480TIP3   OH243634   3.486   3.558   9.642 -0.0707 -0.1118  0.0730
 6480TIP3    H143635   3.545   3.626   9.674 -0.8779 -0.0088  1.4024
 6480TIP3    H243636   3.473   3.500   9.717 -0.9305 -0.6572 -0.4735
 6481TIP3   OH243637   2.907   3.657   1.109  0.1862 -0.6239  0.3493
 6481TIP3    H143638   2.825   3.617   1.138 -0.8606  0.3160 -1.1616
 6481TIP3    H243639   2.930   3.611   1.028  1.0808 -0.7660  0.6645
 6482TIP3   OH243640   3.142   4.994   6.984 -0.2744  0.5239 -0.0579
 6482TIP3    H143641   3.184   5.064   7.035 -0.2967 -0.4204  1.3046
 6482TIP3    H243642   3.077   4.956   7.044  0.0816 -0.9882 -0.5921
 6483TIP3   OH243643   5.827   4.045   6.554  0.3062  0.4985  0.0714
 6483TIP3    H143644   5.906   4.086   6.520  0.3447 -0.7056 -1.3881
 6483TIP3    H243645   5.760   4.114   6.548  0.8798  1.0427 -0.1673
 6484TIP3   OH243646   5.395   0.119   9.788  0.1784 -0.4196  0.2024
 6484TIP3    H143647   5.316   0.069   9.809  0.0009 -0.9952 -1.6790
 6484TIP3    H243648   5.463   0.053   9.779  0.6981  0.0022  0.9143
 6485TIP3   OH243649   2.125   6.602   8.249 -0.0465  0.8124 -0.6244
 6485TIP3    H143650   2.091   6.692   8.242 -0.6324  0.5950 -0.6457
 6485TIP3    H243651   2.188   6.606   8.321 -2.5349  0.5290  1.7494
 6486TIP3   OH243652   7.239   1.382   0.938 -0.4694 -0.6596 -0.3266
 6486TIP3    H143653   7.304   1.426   0.883 -1.3889 -0.5707 -1.3890
 6486TIP3    H243654   7.257   1.413   1.027 -0.4885  1.1116 -0.9102
 6487TIP3   OH243655   5.280   6.236   1.222  1.4462  0.3002 -0.4752
 6487TIP3    H143656   5.349   6.259   1.284  1.0743  0.6727 -0.1954
 6487TIP3    H243657   5.318   6.253   1.136  1.2367  1.8624 -0.2907
 6488TIP3   OH243658   2.195   6.167   8.174 -0.2986 -0.4982 -0.1147
 6488TIP3    H143659   2.220   6.163   8.267  0.9552  0.6110 -0.3701
 6488TIP3    H243660   2.219   6.080   8.140 -0.0866 -0.6685  0.4485
 6489TIP3   OH243661   2.086   6.495   2.607  0.1848  0.3289  0.2816
 6489TIP3    H143662   2.151   6.441   2.654  1.3599  1.3973 -0.0665
 6489TIP3    H243663   2.014   6.503   2.669  0.3887 -0.8344  0.7111
 6490TIP3   OH243664   6.241   0.125   1.660  0.2923 -0.3304  0.0723
 6490TIP3    H143665   6.250   0.173   1.578  1.1223 -1.0200 -0.2650
 6490TIP3    H243666   6.237   0.033   1.633 -0.4280 -0.5050  0.7456
 6491TIP3   OH243667   2.683   1.730   1.088  0.0958  0.3532  0.2477
 6491TIP3    H143668   2.664   1.817   1.122 -1.1211  0.7207 -1.2739
 6491TIP3    H243669   2.752   1.744   1.023 -0.0359  0.1756  0.0675
 6492TIP3   OH243670   3.309   5.333   2.310 -1.0719 -0.0102  0.0883
 6492TIP3    H143671   3.366   5.405   2.285 -0.4115 -0.5054  0.1491
 6492TIP3    H243672   3.347   5.256   2.268 -1.4821 -0.4076  0.4325
 6493TIP3   OH243673   6.651   6.078   8.627 -0.3402  0.6004 -0.4206
 6493TIP3    H143674   6.676   6.007   8.569  1.9975  0.7196  0.3191
 6493TIP3    H243675   6.637   6.153   8.570  1.2622  0.5453 -0.9507
 6494TIP3   OH243676   0.832   0.609   9.173 -0.3440 -0.3182  0.0693
 6494TIP3    H143677   0.793   0.586   9.258  0.7260 -0.2098  0.6085
 6494TIP3    H243678   0.758   0.635   9.119 -0.9538  0.6005  1.2900
 6495TIP3   OH243679   5.429   2.078   8.761  0.7052 -0.0119  0.2980
 6495TIP3    H143680   5.493   2.138   8.800  1.7605 -1.0648  0.2488
 6495TIP3    H243681   5.472   1.992   8.765 -0.3247 -0.5896 -0.6128
 6496TIP3   OH243682   2.918   6.112   8.829  0.3972  0.1602 -0.9223
 6496TIP3    H143683   2.951   6.134   8.916  1.1756 -2.9913 -0.3149
 6496TIP3    H243684   2.972   6.165   8.769  2.8433 -0.7538  0.3398
 6497TIP3   OH243685   6.488   6.094   0.780  0.0930  0.1512 -0.2081
 6497TIP3    H143686   6.508   6.184   0.752 -0.1416  0.2459 -0.0775
 6497TIP3    H243687   6.493   6.042   0.700 -1.8361  0.6260 -0.6923
 6498TIP3   OH243688   2.122   0.795   0.089 -1.0091 -0.3196 -0.5651
 6498TIP3    H143689   2.128   0.699   0.080 -3.5418 -0.5550 -0.5953
 6498TIP3    H243690   2.028   0.812   0.088 -0.6126  2.1499 -0.0270
 6499TIP3   OH243691   0.598   0.724   7.618  0.1384 -0.2303 -0.8052
 6499TIP3    H143692   0.633   0.759   7.700 -1.8264 -1.6266  0.7181
 6499TIP3    H243693   0.641   0.775   7.550  1.4613  1.3313  1.0978
 6500TIP3   OH243694   6.119   0.750   3.051 -0.5651  0.0851  0.5798
 6500TIP3    H143695   6.096   0.827   3.104 -2.3812  0.4281 -0.6274
 6500TIP3    H243696   6.130   0.784   2.963  2.1552 -0.5330  0.5851
 6501TIP3   OH243697   6.717   5.530   0.471  0.4815  0.3957 -0.0834
 6501TIP3    H143698   6.720   5.591   0.545  0.7367 -0.7618  0.8804
 6501TIP3    H243699   6.646   5.563   0.416  2.0007  2.8340 -0.7360
 6502TIP3   OH243700   6.756   4.122   9.718  0.0262 -0.7386  0.2451
 6502TIP3    H143701   6.720   4.104   9.631  0.4593 -0.3494 -0.0181
 6502TIP3    H243702   6.793   4.210   9.711  0.4405 -0.8714  0.6999
 6503TIP3   OH243703   4.340   3.803   9.696  0.3552  0.2256  0.0303
 6503TIP3    H143704   4.340   3.898   9.680  0.5405  0.5962  1.9819
 6503TIP3    H243705   4.253   3.785   9.733  0.8264 -0.1069  0.9963
 6504TIP3   OH243706   4.226   3.302   9.321 -0.0758  0.6876  0.3626
 6504TIP3    H143707   4.210   3.331   9.411 -1.2394 -0.7976  0.6751
 6504TIP3    H243708   4.143   3.314   9.277  0.4506  1.2666 -0.5010
 6505TIP3   OH243709   0.977   2.926   9.815  0.0478 -0.2444  0.3359
 6505TIP3    H143710   0.990   3.015   9.850  0.3403 -0.7966  1.7035
 6505TIP3    H243711   0.890   2.901   9.846 -0.0838 -0.4001 -0.1522
 6506TIP3   OH243712   6.151   2.718   0.615  0.3281  0.0828  0.5491
 6506TIP3    H143713   6.134   2.635   0.570  0.8452  1.1624 -1.7864
 6506TIP3    H243714   6.085   2.722   0.684 -0.3971 -1.7626  0.0209
 6507TIP3   OH243715   4.008   4.597   9.220 -0.4907 -0.5914 -0.1694
 6507TIP3    H143716   4.102   4.611   9.206 -0.2026 -0.5946  1.5028
 6507TIP3    H243717   3.967   4.677   9.187  0.3042  0.3134  0.9595
 6508TIP3   OH243718   1.897   0.199   1.281 -0.6084  1.0202 -0.0694
 6508TIP3    H143719   1.936   0.118   1.313 -1.0845  1.6027  2.1380
 6508TIP3    H243720   1.932   0.209   1.192  3.0320  0.6699  1.1538
 6509TIP3   OH243721   6.265   6.469   3.036 -0.2024  0.2461  0.5313
 6509TIP3    H143722   6.321   6.546   3.021 -1.3857  0.5579 -3.0487
 6509TIP3    H243723   6.178   6.505   3.049 -0.7725 -0.4143 -1.1996
 6510TIP3   OH243724   1.409   5.109   3.078 -0.3944  0.3861 -0.0997
 6510TIP3    H143725   1.399   5.092   3.172  1.0072  1.6235  0.3112
 6510TIP3    H243726   1.416   5.023   3.038  0.4612 -0.1412  1.1249
 6511TIP3   OH243727   6.256   4.188   2.837 -0.3411 -0.3156  0.5440
 6511TIP3    H143728   6.176   4.239   2.844 -0.3343 -0.3637  1.0273
 6511TIP3    H243729   6.326   4.248   2.865 -0.2700 -0.4235  0.6003
 6512TIP3   OH243730   2.571   6.940   9.985  0.4871 -0.1950  0.7488
 6512TIP3    H143731   2.577   7.003  10.057  0.4445  0.4577  0.1864
 6512TIP3    H243732   2.523   6.865  10.022  0.6577  0.0414  1.4572
 6513TIP3   OH243733   3.330   3.073   8.609 -0.1179 -0.3298  0.1445
 6513TIP3    H143734   3.413   3.041   8.646 -0.1584  0.0848  0.6082
 6513TIP3    H243735   3.266   3.007   8.635  0.0760 -0.6919 -0.2814
 6514TIP3   OH243736   4.010   6.496   6.489 -0.4406  0.5534  0.5788
 6514TIP3    H143737   4.066   6.443   6.432 -0.4693  2.4300 -1.2881
 6514TIP3    H243738   4.072   6.541   6.547 -0.1633  0.9165  0.0115
 6515TIP3   OH243739   7.104   5.506   8.321 -0.1792  0.6521 -0.0994
 6515TIP3    H143740   7.083   5.417   8.290 -1.3382  1.0887 -0.6339
 6515TIP3    H243741   7.023   5.538   8.360 -0.0110  1.7586 -0.6108
 6516TIP3   OH243742   6.426   4.467   1.374 -0.1414 -0.4255 -0.3586
 6516TIP3    H143743   6.474   4.401   1.423 -0.7701  0.9316  2.2443
 6516TIP3    H243744   6.367   4.417   1.317 -0.0202 -2.1157  0.9389
 6517TIP3   OH243745   2.494   1.277   8.939 -0.3308  0.1677  0.3278
 6517TIP3    H143746   2.545   1.350   8.903 -0.2217 -0.2443 -0.3750
 6517TIP3    H243747   2.555   1.204   8.942 -0.7819 -0.2442 -0.2090
 6518TIP3   OH243748   7.157   2.836   8.048 -0.2371 -0.1887  0.3556
 6518TIP3    H143749   7.149   2.751   8.093  1.7563 -0.4515  0.3246
 6518TIP3    H243750   7.114   2.822   7.964  2.6583 -2.2748 -0.9695
 6519TIP3   OH243751   2.779   6.239   8.065 -0.2497  0.6328  0.0763
 6519TIP3    H143752   2.698   6.206   8.026 -0.3193 -2.7013  2.6400
 6519TIP3    H243753   2.826   6.160   8.094  2.2807  2.6118  1.8115
 6520TIP3   OH243754   0.859   0.638   1.970 -0.2045 -0.0056  0.7634
 6520TIP3    H143755   0.812   0.690   2.035  0.5184 -1.7803  2.8196
 6520TIP3    H243756   0.916   0.581   2.022  0.8559 -1.0990 -1.4761
 6521TIP3   OH243757   4.769   3.297   6.689  0.3161 -0.4339  0.7792
 6521TIP3    H143758   4.729   3.376   6.726 -0.5096  0.2736 -1.4740
 6521TIP3    H243759   4.847   3.328   6.644 -0.2082 -0.8132 -0.4365
 6522TIP3   OH243760   1.304   1.997   0.600 -0.5062 -0.2126 -0.5844
 6522TIP3    H143761   1.331   2.020   0.511  0.4662 -0.2949 -0.3216
 6522TIP3    H243762   1.365   1.928   0.626 -0.3505  0.2809  0.3961
 6523TIP3   OH243763   0.764   4.825   2.133  0.2742 -0.2410  0.5126
 6523TIP3    H143764   0.773   4.831   2.228 -0.1916  1.5585  0.4836
 6523TIP3    H243765   0.844   4.781   2.104  1.2366  0.7026  1.6079
 6524TIP3   OH243766   4.139   3.209   8.806  0.0323  0.4668 -0.1663
 6524TIP3    H143767   4.088   3.227   8.728  1.3009 -1.2477 -1.4588
 6524TIP3    H243768   4.205   3.278   8.808 -0.1411  0.6436 -0.4759
 6525TIP3   OH243769   2.388   5.659   7.404 -0.1655  0.1295 -0.5474
 6525TIP3    H143770   2.360   5.570   7.424 -0.0302  0.3770  0.8315
 6525TIP3    H243771   2.317   5.695   7.350  0.1365 -1.0414 -1.7571
 6526TIP3   OH243772   7.221   2.432   1.083 -0.2147  0.2338  0.2533
 6526TIP3    H143773   7.129   2.407   1.074 -0.1207  0.1608 -0.5450
 6526TIP3    H243774   7.235   2.439   1.178 -0.7110 -0.9673  0.4297
 6527TIP3   OH243775   3.097   0.663   6.682 -0.0159 -0.0350  0.1318
 6527TIP3    H143776   3.139   0.729   6.627  0.0603 -0.2626 -0.0828
 6527TIP3    H243777   3.019   0.637   6.632 -0.2515  0.1665  0.3897
 6528TIP3   OH243778   5.296   0.002   1.677  0.7843 -0.0445 -0.3378
 6528TIP3    H143779   5.262  -0.015   1.589  0.5441 -0.0942 -0.2381
 6528TIP3    H243780   5.290  -0.083   1.721  2.2011 -0.3648 -0.6964
 6529TIP3   OH243781   2.538   1.460   7.881  0.2500  0.2520 -0.5226
 6529TIP3    H143782   2.630   1.482   7.895 -0.2466  2.3934 -0.2647
 6529TIP3    H243783   2.527   1.463   7.786  0.0465  1.9983 -0.4772
 6530TIP3   OH243784   5.735   3.511   1.787 -0.1463  0.0065 -0.5188
 6530TIP3    H143785   5.792   3.474   1.719 -1.3201 -1.6296 -0.6903
 6530TIP3    H243786   5.689   3.582   1.743 -0.8170 -0.9662 -1.4620
 6531TIP3   OH243787   5.102   1.971   2.403 -0.2878  0.0604 -0.2088
 6531TIP3    H143788   5.175   2.032   2.396 -0.4691  0.3487  0.3407
 6531TIP3    H243789   5.124   1.899   2.344 -0.1337  0.7194 -0.9697
 6532TIP3   OH243790   5.233   2.777   8.141  0.7952 -0.1859  0.9414
 6532TIP3    H143791   5.296   2.817   8.202  1.6003 -0.2057  0.1464
 6532TIP3    H243792   5.252   2.683   8.145  2.2938 -0.0287 -0.8388
 6533TIP3   OH243793   6.202   6.213   1.725 -0.4874  0.7000 -0.1748
 6533TIP3    H143794   6.269   6.220   1.657 -0.2063 -0.0423  0.0137
 6533TIP3    H243795   6.220   6.285   1.785  0.9123 -0.1842  0.5247
 6534TIP3   OH243796   4.355   6.875   8.606  0.4893 -0.3699 -0.4750
 6534TIP3    H143797   4.382   6.963   8.580 -1.7324  0.5520  0.1611
 6534TIP3    H243798   4.369   6.873   8.701 -2.3707  0.4823  0.0447
 6535TIP3   OH243799   1.021   6.479   8.170  0.2401  0.1843  0.2677
 6535TIP3    H143800   0.971   6.548   8.212  0.6897  0.5481  0.2109
 6535TIP3    H243801   1.112   6.496   8.194  0.3499 -0.4421  0.3346
 6536TIP3   OH243802   1.504   4.335   0.453 -0.1287 -0.2360  0.1586
 6536TIP3    H143803   1.501   4.361   0.545  1.0359 -1.1692  0.4848
 6536TIP3    H243804   1.471   4.246   0.451  0.1155 -0.3239 -0.2794
 6537TIP3   OH243805   2.744   5.729   7.446  0.4405  0.5305 -0.1503
 6537TIP3    H143806   2.662   5.680   7.438  1.2553 -0.7537 -0.8206
 6537TIP3    H243807   2.739   5.796   7.378 -0.6216  1.3582  0.6904
 6538TIP3   OH243808   1.072   0.974   8.836 -0.2204  0.4181  0.0603
 6538TIP3    H143809   1.142   1.016   8.786 -0.7948  1.5856  0.1953
 6538TIP3    H243810   1.032   0.913   8.774  1.0726 -0.4763  0.0720
 6539TIP3   OH243811   3.726   2.417   0.337  0.4242  0.1201  0.2409
 6539TIP3    H143812   3.731   2.357   0.411  0.7307  1.3477  1.2520
 6539TIP3    H243813   3.801   2.475   0.348  0.1382  0.6959 -0.7039
 6540TIP3   OH243814   2.824   5.070   8.147  0.7357  0.3527 -0.1489
 6540TIP3    H143815   2.848   5.028   8.065 -0.4495  0.7476 -0.7225
 6540TIP3    H243816   2.728   5.072   8.146  0.6816 -0.1073  1.4856
 6541TIP3   OH243817   2.276   1.349   8.205  0.1170  0.0167 -0.0337
 6541TIP3    H143818   2.344   1.300   8.158 -1.0669 -1.5798 -0.1660
 6541TIP3    H243819   2.270   1.304   8.290  0.1108  0.9580  0.4713
 6542TIP3   OH243820   3.171   6.605   0.915  0.2430  0.2578 -0.2105
 6542TIP3    H143821   3.207   6.693   0.915 -1.5808  1.0486 -1.1677
 6542TIP3    H243822   3.193   6.570   0.829  0.7131 -0.1293  0.0620
 6543TIP3   OH243823   4.654   0.043   1.500  0.2354  0.0082  0.1368
 6543TIP3    H143824   4.745   0.019   1.481 -0.0417  0.2914 -1.7779
 6543TIP3    H243825   4.635   0.114   1.438 -1.4432 -0.3964  0.1524
 6544TIP3   OH243826   2.526   1.495   7.607  0.2399  1.0190 -0.0893
 6544TIP3    H143827   2.482   1.441   7.541 -0.3736 -0.1890  1.2560
 6544TIP3    H243828   2.478   1.577   7.606 -1.4461  0.1032  0.6102
 6545TIP3   OH243829   0.346   5.976   2.132  0.1678  0.3265 -0.1647
 6545TIP3    H143830   0.253   5.997   2.123  0.3782  0.5799 -2.2282
 6545TIP3    H243831   0.391   6.041   2.078  1.4766 -0.2960  0.1317
 6546TIP3   OH243832   7.047   1.913   8.017  0.2202  0.4505 -0.0525
 6546TIP3    H143833   7.019   1.826   7.989 -0.3868  0.3694  0.7637
 6546TIP3    H243834   7.138   1.920   7.988  0.3075 -0.5016 -0.0337
 6547TIP3   OH243835   4.286   5.000   2.297  0.2084  0.4216  0.3009
 6547TIP3    H143836   4.282   5.051   2.378  1.2968  0.1945  0.5131
 6547TIP3    H243837   4.283   4.909   2.326  0.1292  0.3429  0.0477
 6548TIP3   OH243838   4.386   0.244   2.029 -0.1048 -0.6251  0.0039
 6548TIP3    H143839   4.421   0.310   1.969 -0.2765 -0.3789  0.1764
 6548TIP3    H243840   4.348   0.294   2.101  0.0939 -0.9216  0.3177
 6549TIP3   OH243841   3.143   1.949   1.383  0.4129  0.4211  0.2865
 6549TIP3    H143842   3.084   1.987   1.447  0.3204  1.2242 -0.2542
 6549TIP3    H243843   3.188   1.879   1.430 -1.5883 -0.8088  0.4656
 6550TIP3   OH243844   3.431   4.373   2.314 -0.6482 -1.3296  0.4463
 6550TIP3    H143845   3.425   4.284   2.347  0.0215 -0.6266  2.6267
 6550TIP3    H243846   3.419   4.429   2.391 -1.1714  0.4820 -0.8697
 6551TIP3   OH243847   1.386   4.685   2.350 -0.2232  0.2881  0.2479
 6551TIP3    H143848   1.299   4.650   2.333  0.1994 -1.1739  0.9087
 6551TIP3    H243849   1.396   4.756   2.287 -2.2469  1.1453  0.7884
 6552TIP3   OH243850   2.957   6.998   9.921  0.4532  0.4214  0.5693
 6552TIP3    H143851   2.949   6.955   9.836 -1.3254  0.5752  0.6214
 6552TIP3    H243852   2.962   7.091   9.900  2.3484  0.3773  0.5646
 6553TIP3   OH243853   3.231   4.545   6.970  0.2374  0.6026 -0.0193
 6553TIP3    H143854   3.305   4.520   6.915  0.9586  1.0379  0.7185
 6553TIP3    H243855   3.199   4.626   6.932  0.9452  1.0825  0.3737
 6554TIP3   OH243856   5.117   6.697   8.411  0.3005 -0.0806  0.0969
 6554TIP3    H143857   5.027   6.703   8.380  0.0572  0.5658  0.8919
 6554TIP3    H243858   5.149   6.787   8.408  1.1481 -0.3984 -0.8068
 6555TIP3   OH243859   0.301   2.835   1.881 -0.1517  0.0594 -0.1964
 6555TIP3    H143860   0.295   2.904   1.815 -1.1009  1.2163  1.0460
 6555TIP3    H243861   0.342   2.878   1.956  0.5545 -1.1318  0.1286
 6556TIP3   OH243862   3.240   6.603   9.236  0.1481 -0.0564  0.5134
 6556TIP3    H143863   3.230   6.508   9.232  1.2100 -0.2094  1.0514
 6556TIP3    H243864   3.199   6.635   9.156 -0.1376 -0.9751  0.2829
 6557TIP3   OH243865   5.975   3.195   7.670 -0.7302  0.1991  0.1982
 6557TIP3    H143866   6.051   3.159   7.715 -1.3080 -3.8110 -1.6190
 6557TIP3    H243867   6.010   3.271   7.623  1.7690 -0.5121  0.7295
 6558TIP3   OH243868   2.591   3.685   8.546  0.5266  0.2585  0.5297
 6558TIP3    H143869   2.620   3.691   8.454  0.8893  1.0655  0.6933
 6558TIP3    H243870   2.504   3.646   8.541  2.2347 -4.1142  0.1140
 6559TIP3   OH243871   0.698   4.824   0.262  0.4204  0.0040  0.3529
 6559TIP3    H143872   0.652   4.745   0.290  0.7765  0.6778  3.1263
 6559TIP3    H243873   0.726   4.866   0.344  1.0382  2.5337 -1.0488
 6560TIP3   OH243874   3.899   1.257   1.873 -0.1989  0.1477 -0.0855
 6560TIP3    H143875   3.947   1.334   1.901 -2.9230  2.0014 -0.1142
 6560TIP3    H243876   3.829   1.248   1.938 -0.4062 -1.8778 -0.5184
 6561TIP3   OH243877   5.870   5.918   9.537  0.5750 -0.4107  0.4858
 6561TIP3    H143878   5.958   5.925   9.499 -0.1826  2.2292 -1.0425
 6561TIP3    H243879   5.884   5.936   9.631  1.6258  0.7558  0.1373
 6562TIP3   OH243880   1.425   0.705   7.005 -0.1144 -0.0376 -0.7780
 6562TIP3    H143881   1.345   0.722   7.056 -1.2204  0.5905 -2.6397
 6562TIP3    H243882   1.436   0.610   7.010  0.5222  0.0924  1.5958
 6563TIP3   OH243883   1.126   5.678   9.423  0.5620  0.0267 -0.0497
 6563TIP3    H143884   1.064   5.750   9.437  0.7614  0.1789  0.0630
 6563TIP3    H243885   1.131   5.635   9.509  1.2656  0.5429  0.1820
 6564TIP3   OH243886   6.656   4.551   2.111  0.1828  0.0165 -0.0733
 6564TIP3    H143887   6.613   4.572   2.028 -3.4610 -2.3702  0.9373
 6564TIP3    H243888   6.629   4.621   2.171  0.0166 -0.0106 -0.1159
 6565TIP3   OH243889   6.996   5.239   8.257  0.2769  0.2319 -0.9141
 6565TIP3    H143890   6.965   5.150   8.241  0.7022  0.4351 -3.2422
 6565TIP3    H243891   6.920   5.295   8.240 -0.4050  0.3442  1.9074
 6566TIP3   OH243892   6.826   5.802   1.980 -0.0927  0.3667  0.3784
 6566TIP3    H143893   6.796   5.730   1.926 -0.2856  0.9245 -0.2763
 6566TIP3    H243894   6.774   5.877   1.951 -0.2233  0.6757  1.3575
 6567TIP3   OH243895   4.543   3.951   8.833  0.4070  0.5701  0.4894
 6567TIP3    H143896   4.452   3.924   8.843  0.4339 -0.1764 -0.9315
 6567TIP3    H243897   4.591   3.898   8.897 -0.0286  0.1296  0.4557
 6568TIP3   OH243898   0.441   5.912   2.366  0.2584  0.1251  0.1647
 6568TIP3    H143899   0.369   5.958   2.407  0.1733 -0.1669  0.3404
 6568TIP3    H243900   0.439   5.941   2.275 -0.4515 -0.3340  0.0239
 6569TIP3   OH243901   0.800   3.959   1.076 -0.2915  0.4124 -0.0341
 6569TIP3    H143902   0.814   3.983   0.985 -0.9742  0.0204 -0.2526
 6569TIP3    H243903   0.734   3.889   1.073  0.9494 -0.8650  0.6193
 6570TIP3   OH243904   0.637   2.874   1.676  0.3555 -0.5299 -0.4331
 6570TIP3    H143905   0.719   2.825   1.683  0.4724 -0.1271  1.2878
 6570TIP3    H243906   0.625   2.914   1.762 -0.6669  0.9946 -1.2443
 6571TIP3   OH243907   4.145   0.930   8.306 -0.3070  0.6457 -0.2877
 6571TIP3    H143908   4.206   1.003   8.299  0.6624  0.0186  1.0933
 6571TIP3    H243909   4.187   0.870   8.369 -1.2052 -0.9506 -1.1499
 6572TIP3   OH243910   3.650   1.876   9.795  0.2666  0.3986  0.4726
 6572TIP3    H143911   3.576   1.875   9.856 -0.2611 -0.0738 -0.1608
 6572TIP3    H243912   3.649   1.964   9.758 -0.3969  0.1920 -0.0220
 6573TIP3   OH243913   4.455   0.051   6.769 -0.0708 -0.1522  0.5260
 6573TIP3    H143914   4.545   0.024   6.785 -0.0735  1.0218  3.0131
 6573TIP3    H243915   4.461   0.145   6.748 -0.6307 -0.3877 -0.8058
 6574TIP3   OH243916   2.098   6.170   2.097 -0.4697  0.5080 -0.3506
 6574TIP3    H143917   2.106   6.075   2.105  0.6877  0.6460  0.4307
 6574TIP3    H243918   2.004   6.185   2.087 -0.7194 -0.6935 -0.0300
 6575TIP3   OH243919   0.457   0.669   2.717  0.1974  0.5485 -0.0716
 6575TIP3    H143920   0.511   0.609   2.768 -0.9194  0.0024  0.4946
 6575TIP3    H243921   0.391   0.613   2.676 -0.4527  1.3005 -0.0728
 6576TIP3   OH243922   7.252   6.920   8.390  0.0191 -0.5951 -0.7573
 6576TIP3    H143923   7.286   6.832   8.377  0.7994 -0.2818 -0.9355
 6576TIP3    H243924   7.180   6.928   8.327 -1.6280 -1.8942  0.8769
 6577TIP3   OH243925   1.380   3.477   0.296  0.3096  0.2498 -0.1533
 6577TIP3    H143926   1.348   3.413   0.233 -0.1934  0.1479  0.1981
 6577TIP3    H243927   1.380   3.430   0.380  1.1031  0.3395 -0.0966
 6578TIP3   OH243928   4.197   3.384   8.390 -0.1140  0.4499  0.2796
 6578TIP3    H143929   4.273   3.357   8.442  0.1597 -0.2685 -0.4648
 6578TIP3    H243930   4.227   3.459   8.340  0.8353 -1.1381 -1.6531
 6579TIP3   OH243931   6.618   5.431   8.582 -0.2207  0.4603  0.0446
 6579TIP3    H143932   6.661   5.418   8.667 -0.0456  1.8916  0.1870
 6579TIP3    H243933   6.566   5.510   8.593 -0.0377  0.7749 -1.2566
 6580TIP3   OH243934   6.566   4.263   1.848 -0.3726 -0.3399  0.2430
 6580TIP3    H143935   6.591   4.210   1.773  0.5952  0.0890  0.2525
 6580TIP3    H243936   6.527   4.200   1.909  1.8167 -1.2923  0.7623
 6581TIP3   OH243937   6.930   2.612   7.501 -0.1037  0.1739  0.1874
 6581TIP3    H143938   6.876   2.595   7.578  0.7203  1.5199  1.1041
 6581TIP3    H243939   6.872   2.593   7.427 -0.7434 -1.7054  1.0890
 6582TIP3   OH243940   6.108   0.954   9.184  0.1382  0.2995  0.1270
 6582TIP3    H143941   6.129   0.864   9.160  0.2831  0.5441 -0.6964
 6582TIP3    H243942   6.035   0.978   9.127  1.9998  1.6717 -1.8612
 6583TIP3   OH243943   6.321   1.412   7.911  0.5081 -0.0367 -0.1682
 6583TIP3    H143944   6.252   1.476   7.892 -0.5825 -0.7912  1.0537
 6583TIP3    H243945   6.381   1.458   7.971  1.7927  1.0203 -2.1462
 6584TIP3   OH243946   5.822   1.624   1.779  0.2866  0.4735  0.0159
 6584TIP3    H143947   5.772   1.552   1.818  2.5099 -0.6313  1.0174
 6584TIP3    H243948   5.783   1.635   1.692  0.8945 -3.1737 -0.9122
 6585TIP3   OH243949   4.254   4.289   8.083 -0.2094  0.2623 -0.3735
 6585TIP3    H143950   4.253   4.322   7.993  2.9001  0.1673 -0.5319
 6585TIP3    H243951   4.278   4.364   8.136 -0.2864 -0.0971  0.1810
 6586TIP3   OH243952   2.371   4.411   8.445 -0.0612  0.0354 -0.1316
 6586TIP3    H143953   2.415   4.391   8.363  0.1949 -1.2394  0.3003
 6586TIP3    H243954   2.400   4.344   8.506  0.7774  1.6924  1.4034
 6587TIP3   OH243955   5.843   2.606   9.647 -0.4944  0.0265  0.7947
 6587TIP3    H143956   5.885   2.686   9.616 -0.1891 -0.4332 -0.0109
 6587TIP3    H243957   5.804   2.568   9.569 -2.7549  0.6133  1.5652
 6588TIP3   OH243958   0.462   3.522   6.820 -0.2651  0.2616  0.3338
 6588TIP3    H143959   0.549   3.552   6.794 -0.2387 -0.6980 -0.7490
 6588TIP3    H243960   0.415   3.603   6.843 -0.0038  1.1458 -1.9021
 6589TIP3   OH243961   1.590   1.652   7.626 -0.0246 -0.1703  0.0194
 6589TIP3    H143962   1.593   1.585   7.558  0.6002 -0.3107  0.1803
 6589TIP3    H243963   1.665   1.708   7.608 -0.8917  0.8556 -0.4747
 6590TIP3   OH243964   0.961   7.179   7.930 -0.0675 -0.1997 -0.0798
 6590TIP3    H143965   0.886   7.223   7.971 -0.8672 -0.1195 -1.5730
 6590TIP3    H243966   1.020   7.251   7.905  0.4493 -0.2518  0.9214
 6591TIP3   OH243967   6.621   2.380   7.998 -0.4870  0.5468 -0.1302
 6591TIP3    H143968   6.546   2.435   7.978 -0.2459  0.5795 -0.9667
 6591TIP3    H243969   6.583   2.304   8.042 -0.8374  1.2716  0.8520
 6592TIP3   OH243970   5.755   3.376   2.263 -0.5525  0.1480 -0.2333
 6592TIP3    H143971   5.662   3.352   2.255 -0.3478 -0.7360 -0.0801
 6592TIP3    H243972   5.759   3.466   2.231 -1.6163  0.5271  0.6150
 6593TIP3   OH243973   6.534   6.897   1.722 -0.1386 -0.4476  0.9411
 6593TIP3    H143974   6.543   6.862   1.633 -0.1698  0.3256  0.6213
 6593TIP3    H243975   6.539   6.820   1.779 -1.6515 -1.1371  0.1896
 6594TIP3   OH243976   1.333   2.340   9.672  0.0742 -0.2587  0.2816
 6594TIP3    H143977   1.370   2.348   9.584 -1.0313 -1.0587 -0.2832
 6594TIP3    H243978   1.366   2.257   9.704 -1.2792 -1.0478 -0.2821
 6595TIP3   OH243979   6.909   3.757   7.255 -0.1044 -0.0239  0.2806
 6595TIP3    H143980   6.902   3.836   7.308 -0.5114  0.7385 -0.8522
 6595TIP3    H243981   6.846   3.771   7.183  0.7633 -0.7824 -0.6605
 6596TIP3   OH243982   5.928   5.995   8.847 -0.2609 -0.2895  0.0704
 6596TIP3    H143983   5.866   5.927   8.872  0.5245 -0.6192  1.2443
 6596TIP3    H243984   5.989   5.952   8.788  0.7605 -0.8873  1.5114
 6597TIP3   OH243985   4.641   5.742   0.953  0.2157 -0.1513  0.1695
 6597TIP3    H143986   4.723   5.791   0.944  0.4921 -0.7444 -0.8073
 6597TIP3    H243987   4.658   5.659   0.907 -1.1359 -0.0296 -0.6002
 6598TIP3   OH243988   5.103   6.053   8.890  0.1829  0.2704 -0.3984
 6598TIP3    H143989   5.169   6.014   8.947  1.5887  1.8282 -0.8713
 6598TIP3    H243990   5.101   6.145   8.914 -1.6409  0.3322 -0.6246
 6599TIP3   OH243991   3.462   2.269   0.487  0.5165 -0.7144 -0.2999
 6599TIP3    H143992   3.405   2.297   0.559  0.2081 -1.5058 -0.2298
 6599TIP3    H243993   3.548   2.261   0.527  1.4033  3.2466 -0.9804
 6600TIP3   OH243994   1.373   2.865   7.368 -0.2392 -0.4784 -0.3053
 6600TIP3    H143995   1.363   2.898   7.279 -2.7458 -2.7960 -1.0163
 6600TIP3    H243996   1.405   2.776   7.357  0.5508 -0.4231  1.2245
 6601TIP3   OH243997   3.949   5.652   9.102  0.1420 -0.6239 -0.3259
 6601TIP3    H143998   3.866   5.655   9.054  0.1511  3.4981 -0.4986
 6601TIP3    H243999   4.005   5.715   9.056  1.1415  1.4331  3.2939
 6602TIP3   OH244000   0.332   5.938   9.234  0.0408 -0.2790  0.0826
 6602TIP3    H144001   0.312   5.988   9.314 -2.9960 -0.3618 -0.5029
 6602TIP3    H244002   0.334   5.847   9.262  0.7775 -0.1909  0.3380
 6603TIP3   OH244003   5.066   2.118   1.426  0.0236 -0.0681 -0.3503
 6603TIP3    H144004   5.099   2.035   1.460  1.3505 -0.2138 -1.9052
 6603TIP3    H244005   5.074   2.178   1.500  0.6993 -0.8900  0.2667
 6604TIP3   OH244006   5.765   4.422   9.975  0.1828 -0.0430 -0.2892
 6604TIP3    H144007   5.816   4.491  10.017 -1.4314  1.0180  0.0058
 6604TIP3    H244008   5.736   4.461   9.893 -0.6805 -0.3998 -0.1557
 6605TIP3   OH244009   5.627   7.198   7.484 -0.5142 -0.5172  1.1188
 6605TIP3    H144010   5.688   7.215   7.412 -0.4559 -3.8512  0.2423
 6605TIP3    H244011   5.666   7.125   7.531 -2.5549 -1.0297  2.1114
 6606TIP3   OH244012   0.490   4.131   9.213  0.2944  0.0112 -0.1147
 6606TIP3    H144013   0.532   4.170   9.290 -1.6218  1.0987  0.4648
 6606TIP3    H244014   0.455   4.206   9.165 -0.8925 -0.8262 -0.5895
 6607TIP3   OH244015   6.295   4.805   8.441  0.1411  0.4930 -0.0054
 6607TIP3    H144016   6.304   4.887   8.490 -0.5863  0.5268  0.0837
 6607TIP3    H244017   6.227   4.757   8.488  0.8262 -0.3395  0.1694
 6608TIP3   OH244018   1.000   6.882   8.940 -0.1198  0.1053 -0.7836
 6608TIP3    H144019   0.942   6.947   8.979  1.0110  1.9812 -2.0571
 6608TIP3    H244020   0.958   6.861   8.856 -1.1420 -1.8593  0.1552
 6609TIP3   OH244021   2.896   3.211   1.955  0.0824  0.1539  0.3290
 6609TIP3    H144022   2.823   3.209   2.017  0.2761 -1.3623  0.5619
 6609TIP3    H244023   2.974   3.198   2.009  0.4324  0.6966 -0.0342
 6610TIP3   OH244024   1.176   6.241   0.673 -0.1932  0.2686 -0.2026
 6610TIP3    H144025   1.232   6.291   0.614  0.7326  0.5440  0.8770
 6610TIP3    H244026   1.144   6.305   0.737  1.3280 -0.5057  1.4373
 6611TIP3   OH244027   5.124   6.941   0.058  0.2065  0.8337  0.0850
 6611TIP3    H144028   5.186   6.885   0.103 -0.7033 -2.2480 -2.1720
 6611TIP3    H244029   5.152   6.941  -0.033 -2.6277 -0.1338 -0.9059
 6612TIP3   OH244030   0.258   4.708   1.476  0.1647  0.3009 -0.5870
 6612TIP3    H144031   0.221   4.775   1.419 -0.4307  0.9824  0.5469
 6612TIP3    H244032   0.184   4.650   1.497  0.7120 -0.8391 -1.6930
 6613TIP3   OH244033   3.190   4.291   7.096 -0.5192 -0.3056 -0.9608
 6613TIP3    H144034   3.273   4.302   7.142 -1.6163 -0.7221  1.2226
 6613TIP3    H244035   3.193   4.357   7.026  0.7586  1.1679  0.3950
 6614TIP3   OH244036   2.678   1.904   9.449 -0.1794 -0.3172  0.0016
 6614TIP3    H144037   2.672   1.826   9.504  2.0644 -1.2046 -0.8805
 6614TIP3    H244038   2.640   1.878   9.365 -1.4375  0.2806  0.3630
 6615TIP3   OH244039   4.726   3.350   8.326 -0.0230  0.4840 -0.4137
 6615TIP3    H144040   4.679   3.317   8.402  0.1073  0.2280 -0.4453
 6615TIP3    H244041   4.669   3.419   8.291 -0.3437  0.2171 -0.4163
 6616TIP3   OH244042   3.289   1.443   0.934  0.5081 -0.1169  0.2176
 6616TIP3    H144043   3.205   1.465   0.975  0.2205 -1.0352  0.1695
 6616TIP3    H244044   3.266   1.420   0.843  1.0277  1.1140 -0.2389
 6617TIP3   OH244045   2.220   1.945   0.898 -0.2724  0.0838  0.2687
 6617TIP3    H144046   2.165   1.866   0.900 -0.1912 -0.0023 -0.6055
 6617TIP3    H244047   2.158   2.016   0.880 -0.0504 -0.0810 -1.2728
 6618TIP3   OH244048   4.719   6.423   9.668  0.1383 -0.0816 -0.0861
 6618TIP3    H144049   4.800   6.473   9.683 -0.7252  2.1740 -2.2159
 6618TIP3    H244050   4.714   6.415   9.572 -1.5283 -1.2926  0.0693
 6619TIP3   OH244051   5.126   6.366   1.800  0.1832 -0.5410 -0.5100
 6619TIP3    H144052   5.141   6.291   1.857 -1.0040  0.8308  1.7812
 6619TIP3    H244053   5.063   6.336   1.736  2.5561 -2.5327 -2.0716
 6620TIP3   OH244054   0.939   1.954   9.475  0.5858 -0.4247  0.1866
 6620TIP3    H144055   0.990   1.909   9.542 -0.6852 -1.6286  0.3989
 6620TIP3    H244056   0.983   1.931   9.393  1.4450  0.0784  0.4908
 6621TIP3   OH244057   3.462   4.071   8.458 -0.4142  0.2489 -0.1519
 6621TIP3    H144058   3.555   4.056   8.443  0.0211  1.8845  0.7111
 6621TIP3    H244059   3.437   4.004   8.523  0.1461 -0.1961 -0.3874
 6622TIP3   OH244060   4.043   6.347   8.358  0.4620  0.2408  0.3357
 6622TIP3    H144061   4.079   6.421   8.407  0.2662 -0.2584  1.2706
 6622TIP3    H244062   3.974   6.385   8.304 -1.0711  0.4780  2.3421
 6623TIP3   OH244063   1.204   6.113   0.179  0.5169  0.3361 -0.7397
 6623TIP3    H144064   1.187   6.206   0.195 -1.3718 -0.3097  1.7057
 6623TIP3    H244065   1.117   6.073   0.175  1.2875 -1.5280 -0.1990
 6624TIP3   OH244066   3.290   4.502   2.852  0.2292 -0.4052  0.5556
 6624TIP3    H144067   3.357   4.492   2.920  0.5585  0.6199  0.3963
 6624TIP3    H244068   3.211   4.525   2.900  0.5869  0.8616  0.5795
 6625TIP3   OH244069   6.820   0.942   0.242  0.1417 -0.3214  0.0144
 6625TIP3    H144070   6.804   0.959   0.335  1.1354  2.2069 -0.2050
 6625TIP3    H244071   6.909   0.906   0.239  0.4703  0.4696 -0.0018
 6626TIP3   OH244072   2.604   3.812   0.355  0.3186  0.5316 -0.3261
 6626TIP3    H144073   2.649   3.819   0.439 -0.0724  1.1900 -0.1679
 6626TIP3    H244074   2.536   3.879   0.358  0.8108  1.1092 -1.4962
 6627TIP3   OH244075   6.048   4.476   7.263  0.0115 -0.4462  0.5471
 6627TIP3    H144076   6.109   4.403   7.265 -1.0248 -1.3400  0.6036
 6627TIP3    H244077   6.039   4.497   7.170 -0.0416 -0.7001  0.4940
 6628TIP3   OH244078   0.383   2.157   6.890  0.3631  0.4012  0.3530
 6628TIP3    H144079   0.395   2.248   6.917 -0.3129  0.4485  0.5067
 6628TIP3    H244080   0.337   2.116   6.963  0.2597  0.0472  0.0941
 6629TIP3   OH244081   1.670   6.862   2.444  0.1756  0.1645  0.0311
 6629TIP3    H144082   1.661   6.955   2.427 -0.6308  0.0492 -0.2115
 6629TIP3    H244083   1.580   6.829   2.446  0.4408 -0.5604  0.3672
 6630TIP3   OH244084   4.917   3.117   7.386 -0.0689 -0.4093  0.4147
 6630TIP3    H144085   4.963   3.056   7.444 -1.2003 -1.6917 -0.0021
 6630TIP3    H244086   4.985   3.178   7.357  1.1991 -1.7436  0.4825
 6631TIP3   OH244087   4.236   7.201   0.439  0.2980  0.4471 -0.3365
 6631TIP3    H144088   4.254   7.161   0.524  0.5499  0.6379 -0.2997
 6631TIP3    H244089   4.321   7.233   0.409 -0.2548  3.3695  0.8733
 6632TIP3   OH244090   1.646   1.580   1.691  0.3190 -0.1146 -0.3749
 6632TIP3    H144091   1.635   1.487   1.671  0.5287 -0.0009 -1.0229
 6632TIP3    H244092   1.739   1.589   1.711 -0.0978 -0.4806  2.0447
 6633TIP3   OH244093   0.958   0.098   1.353 -0.3869  0.4211  0.3126
 6633TIP3    H144094   0.970   0.149   1.432 -0.5977  1.6427 -0.4237
 6633TIP3    H244095   0.870   0.119   1.323 -0.2209  0.1803 -0.3839
 6634TIP3   OH244096   5.379   3.111   1.516 -0.1967  0.3043  0.2846
 6634TIP3    H144097   5.396   3.181   1.578  1.2943  0.9995 -0.8394
 6634TIP3    H244098   5.421   3.034   1.555  1.0973  0.8290 -0.0006
 6635TIP3   OH244099   0.350   3.527   2.666  0.3139  0.0129  0.0329
 6635TIP3    H144100   0.340   3.432   2.674 -0.3175  0.0993  0.3537
 6635TIP3    H244101   0.379   3.555   2.753 -0.9188  0.2760  0.3801
 6636TIP3   OH244102   7.242   0.183   0.648  0.1576 -0.0768 -0.0480
 6636TIP3    H144103   7.280   0.175   0.560 -0.0478 -3.2093  0.0329
 6636TIP3    H244104   7.149   0.197   0.632  0.5505  2.7677 -0.2502
 6637TIP3   OH244105   4.121   4.021   8.214  0.5961  0.1492 -0.1749
 6637TIP3    H144106   4.080   4.070   8.142 -1.7188  0.3544  1.1798
 6637TIP3    H244107   4.096   4.069   8.292  2.4535 -0.4811  0.8681
 6638TIP3   OH244108   0.072   7.015   7.107 -0.4300  0.3783 -0.2424
 6638TIP3    H144109   0.017   7.003   7.029 -0.6370  1.8428 -0.3626
 6638TIP3    H244110   0.059   7.107   7.130 -0.5481 -0.0859  1.6746
 6639TIP3   OH244111   0.733   2.401   6.913 -0.4247  0.0756  0.4215
 6639TIP3    H144112   0.767   2.332   6.857 -0.2057  0.6660 -0.1782
 6639TIP3    H244113   0.809   2.431   6.963 -0.2587  0.7375 -0.2241
 6640TIP3   OH244114   2.859   6.812   3.124 -0.4681  0.2463 -0.0383
 6640TIP3    H144115   2.840   6.903   3.147 -2.9967 -0.6764  2.0524
 6640TIP3    H244116   2.774   6.776   3.098  0.0791 -1.9612  1.0407
 6641TIP3   OH244117   1.521   4.078   9.499 -0.6271  0.4839  0.1733
 6641TIP3    H144118   1.499   4.149   9.560  3.2056  1.0192  1.1452
 6641TIP3    H244119   1.513   4.118   9.413  0.0920  1.7240  0.6513
 6642TIP3   OH244120   0.760   1.434   0.997  0.2032 -0.4377  0.7791
 6642TIP3    H144121   0.818   1.492   1.047 -0.4070 -0.3120  1.3599
 6642TIP3    H244122   0.695   1.492   0.958  0.4779 -0.5747  0.1043
 6643TIP3   OH244123   0.447   6.620   9.285  0.4344  0.0043  0.3658
 6643TIP3    H144124   0.528   6.626   9.233 -0.5510  0.1890 -1.2047
 6643TIP3    H244125   0.383   6.580   9.225 -0.5136 -0.6195  1.7493
 6644TIP3   OH244126   4.037   3.858   9.999  0.5872  0.6485 -0.6201
 6644TIP3    H144127   4.049   3.849  10.094  2.0365  2.0559 -0.6211
 6644TIP3    H244128   4.073   3.777   9.963 -0.0167  0.0772  0.0124
 6645TIP3   OH244129   0.083   0.995   0.417 -0.3837 -0.2483 -0.1678
 6645TIP3    H144130   0.146   1.059   0.449 -0.0679 -1.4621  1.8238
 6645TIP3    H244131   0.024   0.980   0.492 -1.0764 -1.4930 -0.9353
 6646TIP3   OH244132   1.292   0.656   0.028  0.0639  0.5906  0.2740
 6646TIP3    H144133   1.251   0.638   0.112  2.5316  0.7149  1.5835
 6646TIP3    H244134   1.307   0.751   0.028  2.2942  0.3095  0.8809
 6647TIP3   OH244135   3.073   1.620   0.594 -0.0487 -0.2262 -0.5344
 6647TIP3    H144136   3.046   1.566   0.519  3.5439 -1.3562 -1.2256
 6647TIP3    H244137   3.098   1.704   0.555  1.5838 -0.7318 -0.6724
 6648TIP3   OH244138   4.152   3.514   1.368  0.0866  0.2217 -0.0132
 6648TIP3    H144139   4.146   3.564   1.450  0.5757  0.2825 -0.0144
 6648TIP3    H244140   4.088   3.444   1.378  0.0071  0.3436  0.3421
 6649TIP3   OH244141   1.495   0.943   1.706  0.1084  0.6591 -0.1886
 6649TIP3    H144142   1.499   0.857   1.663  1.8151  0.3048  0.6160
 6649TIP3    H244143   1.407   0.975   1.686 -0.4369 -1.1081 -0.8165
 6650TIP3   OH244144   5.462   2.875   1.714  0.4814  0.2951  0.4208
 6650TIP3    H144145   5.472   2.818   1.791  0.5088 -2.9467 -1.7679
 6650TIP3    H244146   5.551   2.899   1.689  0.6658 -0.6385  0.1142
 6651TIP3   OH244147   4.037   5.251   7.666 -0.1828 -0.0090 -0.1927
 6651TIP3    H144148   4.075   5.207   7.743  0.2956  0.0566 -0.3858
 6651TIP3    H244149   4.102   5.237   7.597 -1.1905 -1.1631 -0.9319
 6652TIP3   OH244150   4.008   5.701   0.490 -0.5202  0.2741  0.1214
 6652TIP3    H144151   4.082   5.762   0.494 -0.5601  0.3187  0.2015
 6652TIP3    H244152   3.938   5.751   0.448  0.0218 -0.3326 -1.5865
 6653TIP3   OH244153   3.137   2.880   8.700  0.4765 -0.6691  0.6291
 6653TIP3    H144154   3.125   2.870   8.794 -1.4706 -2.1470  0.2965
 6653TIP3    H244155   3.049   2.869   8.663  0.7240  2.3537 -1.2315
 6654TIP3   OH244156   0.937   5.121   9.287 -0.3892 -0.3271  0.0614
 6654TIP3    H144157   0.909   5.213   9.292 -1.1379 -0.5333 -0.1942
 6654TIP3    H244158   0.952   5.106   9.194 -1.0818 -0.6948  0.0048
 6655TIP3   OH244159   2.824   0.267   2.940 -0.4809  0.1022 -0.1123
 6655TIP3    H144160   2.883   0.319   2.995 -1.6302  1.2436  0.0864
 6655TIP3    H244161   2.875   0.188   2.918  0.4680  0.2273  1.4989
 6656TIP3   OH244162   5.159   1.624   7.758 -0.3439  0.1094 -0.3786
 6656TIP3    H144163   5.218   1.571   7.705  1.2903  1.8229 -0.3458
 6656TIP3    H244164   5.081   1.634   7.703  0.0588 -0.7419 -1.1392
 6657TIP3   OH244165   1.720   3.140   1.835 -0.2400 -0.2129 -0.0366
 6657TIP3    H144166   1.759   3.071   1.781  0.9076  1.3794 -1.3472
 6657TIP3    H244167   1.651   3.176   1.781  0.4826  0.9664 -0.1950
 6658TIP3   OH244168   6.764   6.149   8.035 -0.1894 -0.0811 -0.1676
 6658TIP3    H144169   6.691   6.092   8.011 -0.2918 -1.1698  2.4498
 6658TIP3    H244170   6.758   6.222   7.973 -3.9548  0.2443  0.3508
 6659TIP3   OH244171   3.841   0.306   6.721 -0.1439 -0.4586 -0.4479
 6659TIP3    H144172   3.844   0.243   6.793 -0.1098  0.4513  0.3664
 6659TIP3    H244173   3.751   0.337   6.719  0.0550  0.1336 -0.2564
 6660TIP3   OH244174   0.362   2.086   9.438  0.4533  0.5644  0.5693
 6660TIP3    H144175   0.340   2.066   9.529  0.8886 -1.8843  0.2212
 6660TIP3    H244176   0.326   2.012   9.388  1.4910  1.0949 -1.0500
 6661TIP3   OH244177   2.000   4.477   8.118 -0.1376 -0.1667 -0.5398
 6661TIP3    H144178   1.906   4.461   8.124 -0.3091  1.1866  1.3142
 6661TIP3    H244179   2.029   4.485   8.209  1.3395  1.7021 -1.1036
 6662TIP3   OH244180   6.148   2.902   8.730  0.2145 -0.2066  0.1016
 6662TIP3    H144181   6.104   2.887   8.646  1.1906  0.0820 -0.4757
 6662TIP3    H244182   6.187   2.818   8.752  0.1246 -0.2295  0.1768
 6663TIP3   OH244183   0.987   4.062   9.463 -0.1460 -0.5763 -0.1125
 6663TIP3    H144184   0.976   4.012   9.382 -4.0841 -1.3710  0.6634
 6663TIP3    H244185   1.006   3.995   9.529  0.5525 -0.2574  0.0104
 6664TIP3   OH244186   0.403   0.288   2.534  0.5020 -0.3111  0.2481
 6664TIP3    H144187   0.376   0.342   2.609  1.7420 -1.0631  1.2714
 6664TIP3    H244188   0.480   0.333   2.500 -1.2663  1.2650 -2.0336
 6665TIP3   OH244189   7.192   6.655   8.238  0.8094  0.1387  0.2528
 6665TIP3    H144190   7.191   6.644   8.334  0.7800  0.8426  0.3351
 6665TIP3    H244191   7.256   6.591   8.208 -0.6951 -1.6012  0.5505
 6666TIP3   OH244192   3.172   0.107   9.766  0.4277  0.5400 -0.4607
 6666TIP3    H144193   3.155   0.150   9.683 -0.1326  1.8646  0.3057
 6666TIP3    H244194   3.264   0.082   9.762  0.3021  0.2008 -1.6261
 6667TIP3   OH244195   2.762   5.903   0.767 -0.8785 -0.1586  0.1788
 6667TIP3    H144196   2.671   5.873   0.766 -1.2280  0.6066  2.5117
 6667TIP3    H244197   2.760   5.987   0.722 -1.3674 -0.0751  0.3524
 6668TIP3   OH244198   0.665   3.002   8.498 -0.4790 -0.2361 -0.7350
 6668TIP3    H144199   0.581   2.977   8.458 -1.7037  0.6759  1.0918
 6668TIP3    H244200   0.641   3.035   8.584  1.7353  0.6493 -0.3897
 6669TIP3   OH244201   4.061   5.949   6.506  0.1490 -0.1076  0.3385
 6669TIP3    H144202   4.039   5.857   6.492 -1.8303  0.4591 -0.6060
 6669TIP3    H244203   3.999   5.979   6.573  0.7184  0.5760  0.5770
 6670TIP3   OH244204   1.610   1.948   7.919 -0.1225 -0.0678 -0.1393
 6670TIP3    H144205   1.572   2.036   7.912 -1.5432 -0.6459 -0.0501
 6670TIP3    H244206   1.633   1.924   7.829  0.1810  0.3443 -0.1760
 6671TIP3   OH244207   0.605   4.792   7.532 -0.1260 -0.1461 -0.0138
 6671TIP3    H144208   0.697   4.783   7.558 -0.7144 -2.7779  1.5720
 6671TIP3    H244209   0.598   4.748   7.448 -0.1030 -0.8514  0.3494
 6672TIP3   OH244210   1.676   7.142   9.792  0.3484 -0.0189  0.3786
 6672TIP3    H144211   1.613   7.197   9.839 -1.0703 -0.7369 -0.5827
 6672TIP3    H244212   1.646   7.144   9.701  1.4755 -0.7388 -0.0308
 6673TIP3   OH244213   2.753   0.067   7.407  0.0860 -0.1069  0.5418
 6673TIP3    H144214   2.819   0.133   7.430  0.3278  0.0260 -0.4988
 6673TIP3    H244215   2.802  -0.014   7.399 -0.1108 -0.2939  1.1820
 6674TIP3   OH244216   0.473   0.949   8.897 -0.0478  0.9889 -0.1822
 6674TIP3    H144217   0.414   0.880   8.867  0.5160  0.7750 -0.8169
 6674TIP3    H244218   0.457   0.955   8.991 -0.1762  0.0588 -0.1361
 6675TIP3   OH244219   3.963   7.183   1.990 -0.1707 -0.2293 -0.1506
 6675TIP3    H144220   4.007   7.255   1.944  0.8786 -1.0888 -0.5369
 6675TIP3    H244221   3.876   7.217   2.010  0.2422  1.0832 -0.4789
 6676TIP3   OH244222   0.423   0.527   7.544  0.2429  0.0815  0.2181
 6676TIP3    H144223   0.351   0.579   7.508  0.7702 -0.9535 -2.5642
 6676TIP3    H244224   0.490   0.592   7.566  0.0619  0.7869 -1.1732
 6677TIP3   OH244225   3.203   5.124   1.607 -0.1921 -0.0330  0.0238
 6677TIP3    H144226   3.157   5.040   1.601  0.9178 -0.8703  2.1574
 6677TIP3    H244227   3.295   5.100   1.608  0.1199  1.0535  2.0454
 6678TIP3   OH244228   2.279   6.696   0.214  0.6257 -0.2226 -0.1813
 6678TIP3    H144229   2.243   6.783   0.232  1.7227  0.4186 -0.9376
 6678TIP3    H244230   2.206   6.636   0.231 -0.3378  0.8889 -0.2128
 6679TIP3   OH244231   6.077   3.661   9.762  0.4257 -0.4231 -0.3363
 6679TIP3    H144232   6.044   3.623   9.843 -1.1308  0.0276 -0.7353
 6679TIP3    H244233   6.033   3.611   9.693  0.2017  0.5125 -0.8765
 6680TIP3   OH244234   2.962   0.611   9.301 -0.0606 -1.4463  0.3551
 6680TIP3    H144235   2.889   0.641   9.247 -1.4936 -0.9488  2.4674
 6680TIP3    H244236   2.978   0.521   9.271 -1.6420 -1.6164 -0.0715
 6681TIP3   OH244237   4.259   1.631   1.168  0.0993 -0.2402  0.2134
 6681TIP3    H144238   4.235   1.575   1.242 -1.1608  0.0375  0.0338
 6681TIP3    H244239   4.182   1.631   1.111 -0.9178  3.4126  1.2729
 6682TIP3   OH244240   4.525   6.644   8.553 -0.4525 -0.0671  0.1056
 6682TIP3    H144241   4.448   6.666   8.606  0.1918  1.0641  0.6209
 6682TIP3    H244242   4.530   6.714   8.488 -1.1376 -1.3537 -1.4080
 6683TIP3   OH244243   5.650   2.744   1.386  0.2649  0.9716  0.0554
 6683TIP3    H144244   5.663   2.839   1.382 -0.8586  1.1154 -1.1920
 6683TIP3    H244245   5.566   2.734   1.432 -0.1434  0.6612 -0.7358
 6684TIP3   OH244246   3.581   0.395   9.130 -0.3741  0.2095 -0.2930
 6684TIP3    H144247   3.641   0.463   9.161 -0.0917 -0.4259  0.6199
 6684TIP3    H244248   3.610   0.377   9.040  0.4652  0.2973 -0.0555
 6685TIP3   OH244249   3.384   4.116   7.813  0.4002  0.5812  0.1594
 6685TIP3    H144250   3.418   4.183   7.754  1.2705  0.2676  0.3024
 6685TIP3    H244251   3.446   4.113   7.885  0.0621  0.0102  0.4339
 6686TIP3   OH244252   5.348   4.174   9.327  0.2389 -0.4495 -0.0021
 6686TIP3    H144253   5.372   4.128   9.247  0.4152 -0.6756  0.1793
 6686TIP3    H244254   5.411   4.145   9.392  0.4174  0.1273  0.0935
 6687TIP3   OH244255   5.636   4.526   8.474  0.1756 -0.4247 -0.8794
 6687TIP3    H144256   5.592   4.595   8.424  0.3193  0.0036 -0.4235
 6687TIP3    H244257   5.567   4.489   8.530  0.2562 -0.1555 -0.5975
 6688TIP3   OH244258   6.229   6.458   1.128 -0.4801  0.5029 -0.0794
 6688TIP3    H144259   6.191   6.462   1.215  0.7830 -0.2577  0.5315
 6688TIP3    H244260   6.233   6.365   1.107 -0.7817  0.6780 -0.9596
 6689TIP3   OH244261   0.688   3.747   6.884  0.3977 -0.4751  0.5313
 6689TIP3    H144262   0.697   3.842   6.878 -1.5767 -0.2393  0.6157
 6689TIP3    H244263   0.726   3.714   6.803 -2.0481  0.6949 -1.2324
 6690TIP3   OH244264   5.388   2.312   8.956 -0.0990 -0.0985 -0.0370
 6690TIP3    H144265   5.298   2.321   8.925 -0.3740 -2.5726 -0.1218
 6690TIP3    H244266   5.386   2.237   9.015  1.8962 -0.1616  0.0190
 6691TIP3   OH244267   2.490   2.446   7.705 -0.0453 -0.3862 -0.2307
 6691TIP3    H144268   2.457   2.522   7.753 -0.0258 -0.1028 -0.6572
 6691TIP3    H244269   2.540   2.484   7.633 -0.7340 -0.7882 -0.9373
 6692TIP3   OH244270   1.950   5.202   2.505 -0.1778  0.0785  0.0847
 6692TIP3    H144271   1.978   5.207   2.597 -2.4427  0.0782  0.8518
 6692TIP3    H244272   1.994   5.125   2.470 -0.7623 -1.0853  1.7819
 6693TIP3   OH244273   3.243   4.896   2.195  0.0893  0.6011  0.3885
 6693TIP3    H144274   3.300   4.964   2.159 -0.8612  0.9933 -0.4485
 6693TIP3    H244275   3.287   4.814   2.175  0.2395  0.8858 -0.4786
 6694TIP3   OH244276   3.145   1.756   7.662 -0.1450  0.3537  0.4208
 6694TIP3    H144277   3.195   1.817   7.607  0.7270 -0.3558  0.4163
 6694TIP3    H244278   3.204   1.735   7.734 -0.4301 -0.5043  0.4129
 6695TIP3   OH244279   5.720   1.392   9.723  0.2586  0.0388  0.0074
 6695TIP3    H144280   5.754   1.303   9.712  0.5292  0.2592 -0.9900
 6695TIP3    H244281   5.707   1.424   9.634  2.0896  1.7310  0.2847
 6696TIP3   OH244282   0.827   7.077   9.230 -0.5095  0.0595  0.8411
 6696TIP3    H144283   0.829   6.981   9.233 -0.8426  0.0711  2.7488
 6696TIP3    H244284   0.746   7.101   9.275 -1.2035  1.2359 -0.9172
 6697TIP3   OH244285   2.969   6.932   7.354  0.1819 -0.3939  0.0737
 6697TIP3    H144286   2.881   6.906   7.380 -0.4188 -0.8395 -2.2437
 6697TIP3    H244287   3.000   6.861   7.298  1.3349  0.5500 -0.5269
 6698TIP3   OH244288   1.625   5.859   9.083  0.0865  0.2888 -0.1877
 6698TIP3    H144289   1.583   5.811   9.154 -0.3319  0.2036 -0.4815
 6698TIP3    H244290   1.616   5.801   9.007  3.0578 -0.8963  0.2578
 6699TIP3   OH244291   3.894   5.112   8.933 -0.4362  0.2977 -0.0615
 6699TIP3    H144292   3.980   5.132   8.896 -0.1311 -0.3146  0.3050
 6699TIP3    H244293   3.850   5.196   8.939  0.7791  0.8687  1.3716
 6700TIP3   OH244294   3.574   1.961   0.512  0.1803  0.3981 -0.6928
 6700TIP3    H144295   3.573   1.906   0.434  0.5404 -0.3844 -0.1507
 6700TIP3    H244296   3.521   2.037   0.487 -0.3786 -0.2116 -1.4279
 6701TIP3   OH244297   4.004   2.647   7.553 -0.0730 -0.1141  0.4314
 6701TIP3    H144298   4.077   2.692   7.598  0.0296  0.2934 -0.1347
 6701TIP3    H244299   4.009   2.678   7.463 -0.0297 -1.2379  0.0325
 6702TIP3   OH244300   5.403   5.518   2.485  0.5111  0.2305 -0.0570
 6702TIP3    H144301   5.335   5.466   2.526 -0.1764  1.7741  0.8504
 6702TIP3    H244302   5.435   5.575   2.555  2.0989  0.1828 -0.7015
 6703TIP3   OH244303   3.897   4.131   2.391 -0.1708 -0.2524 -0.4706
 6703TIP3    H144304   3.971   4.166   2.440 -1.3533  0.3439  0.9937
 6703TIP3    H244305   3.915   4.038   2.383  0.2241 -0.3138  0.8830
 6704TIP3   OH244306   1.879   5.990   9.784  0.2198 -0.3367 -0.4110
 6704TIP3    H144307   1.918   5.911   9.746  1.0404  0.1796 -0.6767
 6704TIP3    H244308   1.827   6.028   9.712  1.8422  0.6868 -1.1097
 6705TIP3   OH244309   0.204   3.465   7.500  0.1243  0.5438 -0.2488
 6705TIP3    H144310   0.274   3.454   7.564 -1.4711 -0.6082  1.4345
 6705TIP3    H244311   0.243   3.439   7.417  1.5400 -0.7080  0.7366
 6706TIP3   OH244312   2.782   1.169   8.632 -0.2294 -0.0438  0.4147
 6706TIP3    H144313   2.841   1.171   8.557  0.5112  2.0608  0.9673
 6706TIP3    H244314   2.800   1.086   8.675 -0.4392 -1.1520 -1.5166
 6707TIP3   OH244315   1.782   7.094   0.970 -0.1193 -0.3836 -0.3519
 6707TIP3    H144316   1.842   7.074   1.042  0.3163 -1.4162 -0.9662
 6707TIP3    H244317   1.840   7.121   0.898 -0.4894 -0.1111 -0.5466
 6708TIP3   OH244318   6.870   6.463   2.040 -0.2573  0.1993 -0.3826
 6708TIP3    H144319   6.943   6.456   2.102 -0.3470 -0.0919 -0.3094
 6708TIP3    H244320   6.899   6.412   1.964  0.3250  1.4478 -1.0445
 6709TIP3   OH244321   0.887   6.482   7.395  0.4418 -0.3028  0.1108
 6709TIP3    H144322   0.921   6.486   7.484 -0.0757  0.5897  0.2822
 6709TIP3    H244323   0.795   6.507   7.403  0.7994  1.4731 -0.8732
 6710TIP3   OH244324   0.064   0.133   0.387  0.0263 -0.2529  0.6612
 6710TIP3    H144325  -0.011   0.073   0.388  0.0496 -0.4127 -1.8291
 6710TIP3    H244326   0.139   0.077   0.410 -0.4209 -0.3447  1.9764
 6711TIP3   OH244327   1.398   1.351   9.536  0.8737  0.4604 -0.3736
 6711TIP3    H144328   1.310   1.350   9.498  0.9656  1.2055 -0.6255
 6711TIP3    H244329   1.430   1.262   9.524  0.9789  0.7179 -2.2813
 6712TIP3   OH244330   3.675   2.045   8.518 -0.3313  0.2987  0.2802
 6712TIP3    H144331   3.676   1.949   8.522  0.3638  0.3165  0.8861
 6712TIP3    H244332   3.611   2.070   8.584 -1.6827  0.2355 -0.9596
 6713TIP3   OH244333   6.597   3.760   2.329 -0.0158  0.5642  0.4399
 6713TIP3    H144334   6.512   3.797   2.356 -0.1392  1.6315 -1.2624
 6713TIP3    H244335   6.599   3.771   2.234  1.5217 -0.5873  0.3038
 6714TIP3   OH244336   1.955   5.775   2.300  0.1824 -0.4023  0.7820
 6714TIP3    H144337   1.862   5.785   2.279  0.3816 -0.2583 -0.1049
 6714TIP3    H244338   1.956   5.732   2.385 -0.6980  0.5508  1.3000
 6715TIP3   OH244339   4.499   5.589   1.416  0.7605 -0.6008 -0.3245
 6715TIP3    H144340   4.420   5.618   1.370  0.7659  0.1813  0.1459
 6715TIP3    H244341   4.530   5.514   1.365  0.6538  0.1193 -1.4832
 6716TIP3   OH244342   3.488   5.866   2.743  0.4451 -0.6417 -0.0717
 6716TIP3    H144343   3.539   5.946   2.756 -0.3743  0.3078 -2.2191
 6716TIP3    H244344   3.551   5.801   2.713  1.0072 -0.6338  1.0459
 6717TIP3   OH244345   0.825   0.453   9.541  0.7955 -0.0361 -0.5053
 6717TIP3    H144346   0.849   0.367   9.505 -1.1785 -0.8775  0.0659
 6717TIP3    H244347   0.908   0.501   9.544  2.0892 -2.1234 -0.2510
 6718TIP3   OH244348   5.426   5.419   9.922  0.2603 -0.4607  0.5337
 6718TIP3    H144349   5.499   5.432   9.862  0.4458 -2.1427  0.3494
 6718TIP3    H244350   5.358   5.479   9.892  1.1733  0.3387  0.0461
 6719TIP3   OH244351   6.730   0.242   0.741 -0.1040  0.2552 -0.4357
 6719TIP3    H144352   6.684   0.160   0.760 -0.7589  0.5219 -0.8201
 6719TIP3    H244353   6.663   0.298   0.702  0.0898  1.3331  0.7257
 6720TIP3   OH244354   6.083   3.605   1.644  0.4374 -0.0893  0.5225
 6720TIP3    H144355   6.019   3.543   1.609 -1.3070  1.4573  0.8705
 6720TIP3    H244356   6.167   3.559   1.635 -0.5776 -1.8322 -0.7486
 6721TIP3   OH244357   6.478   5.132   0.417  0.2632  0.0066 -0.2906
 6721TIP3    H144358   6.547   5.162   0.358  0.2872 -0.0986 -0.3163
 6721TIP3    H244359   6.397   5.149   0.370  0.3103 -0.7137 -0.6457
 6722TIP3   OH244360   5.852   0.124   0.213 -0.0985 -1.1177  0.7485
 6722TIP3    H144361   5.821   0.175   0.138  1.1599  0.4350  1.2609
 6722TIP3    H244362   5.811   0.165   0.289 -1.8592 -3.0554  0.9410
 6723TIP3   OH244363   4.273   6.687   2.244  0.6940 -0.3382  0.1223
 6723TIP3    H144364   4.358   6.730   2.232  0.7373 -0.3192  0.4721
 6723TIP3    H244365   4.243   6.719   2.329 -0.5014  1.0747 -0.7906
 6724TIP3   OH244366   6.300   5.809   7.444 -0.0451  0.0898  0.4719
 6724TIP3    H144367   6.268   5.896   7.467 -0.1896  0.1857 -0.0893
 6724TIP3    H244368   6.298   5.807   7.348 -3.2924 -1.7201  0.4600
 6725TIP3   OH244369   2.073   1.817   2.375 -0.3788  0.1966  0.9492
 6725TIP3    H144370   2.023   1.897   2.358  0.3118  0.5564  0.5945
 6725TIP3    H244371   2.158   1.848   2.407 -0.3868 -0.4112  1.5641
 6726TIP3   OH244372   6.620   4.542   7.763 -0.0667 -0.5127  0.1678
 6726TIP3    H144373   6.525   4.534   7.774 -0.3668  0.1580 -1.6500
 6726TIP3    H244374   6.633   4.631   7.732  1.0197 -1.0307 -0.9264
 6727TIP3   OH244375   1.669   1.208   7.922 -0.0408  0.2746  0.0232
 6727TIP3    H144376   1.679   1.194   8.016  0.8169 -0.2311 -0.1252
 6727TIP3    H244377   1.576   1.223   7.909 -0.5472 -2.0021  0.6669
 6728TIP3   OH244378   6.407   2.180   7.872 -0.8262 -0.1910  0.5362
 6728TIP3    H144379   6.336   2.128   7.834 -1.0125  0.1390  0.4347
 6728TIP3    H244380   6.366   2.263   7.897 -0.5061 -0.0511  0.6051
 6729TIP3   OH244381   5.906   2.422   9.185  0.1160  0.1689  0.2387
 6729TIP3    H144382   5.960   2.491   9.223  0.9915 -1.5969  2.4048
 6729TIP3    H244383   5.819   2.461   9.179  1.1958  2.5963 -1.9989
 6730TIP3   OH244384   0.278   0.491   1.021 -0.1210  0.5150 -0.2208
 6730TIP3    H144385   0.211   0.434   0.984  1.8740 -2.3103  0.1907
 6730TIP3    H244386   0.318   0.534   0.946  0.6039 -1.3310 -0.9322
 6731TIP3   OH244387   2.612   6.795   2.349  0.1321 -0.2471  0.0448
 6731TIP3    H144388   2.583   6.792   2.258 -0.9869 -1.1551  0.4178
 6731TIP3    H244389   2.612   6.888   2.371  2.0471  0.1461 -1.3704
 6732TIP3   OH244390   1.423   0.441   0.887 -0.4720 -0.0107  0.3022
 6732TIP3    H144391   1.405   0.362   0.939 -0.4768 -0.5298 -0.4623
 6732TIP3    H244392   1.421   0.410   0.796 -1.9239  1.1510 -0.1010
 6733TIP3   OH244393   6.889   5.576   9.249  0.4902  0.3193  0.4141
 6733TIP3    H144394   6.893   5.510   9.180 -2.0917  1.4741 -0.9806
 6733TIP3    H244395   6.903   5.527   9.330  1.6685 -1.4051 -0.7758
 6734TIP3   OH244396   5.198   2.602   1.792  0.1744 -0.2419  0.0632
 6734TIP3    H144397   5.149   2.625   1.713 -0.7198 -1.5370  0.2079
 6734TIP3    H244398   5.236   2.685   1.822  1.0799  0.1652 -2.0669
 6735TIP3   OH244399   3.869   0.982   8.183  0.0171 -0.0605  0.1364
 6735TIP3    H144400   3.909   1.065   8.157 -1.4051  0.8191  0.6814
 6735TIP3    H244401   3.944   0.926   8.207  0.9986  1.0065 -0.3543
 6736TIP3   OH244402   6.462   6.012   0.028  0.0540 -0.2693  0.2191
 6736TIP3    H144403   6.487   6.069  -0.045 -0.3702  0.4723  0.6392
 6736TIP3    H244404   6.429   6.072   0.095  2.4136 -0.6842  1.8820
 6737TIP3   OH244405   3.407   0.789   7.864  0.2304 -0.2019  0.2442
 6737TIP3    H144406   3.472   0.719   7.863 -1.1579 -1.5207 -1.2025
 6737TIP3    H244407   3.412   0.825   7.953  0.1974 -2.8513  1.3827
 6738TIP3   OH244408   5.263   1.017   1.925  0.0814  0.3427  0.1638
 6738TIP3    H144409   5.192   0.974   1.972  1.5482 -1.4462  0.8552
 6738TIP3    H244410   5.225   1.040   1.840 -0.7752 -2.5348 -0.3210
 6739TIP3   OH244411   4.054   0.047   9.428 -0.2641  0.0755  0.2464
 6739TIP3    H144412   4.104   0.114   9.382  1.6719 -0.8114  0.9715
 6739TIP3    H244413   4.046   0.080   9.517 -2.2100  0.8267 -0.1557
 6740TIP3   OH244414   5.850   5.806   2.517 -0.0849  0.2224  0.1789
 6740TIP3    H144415   5.810   5.779   2.600 -0.5643  0.5317  0.0471
 6740TIP3    H244416   5.888   5.725   2.482 -0.0947  0.0402  0.5786
 6741TIP3   OH244417   0.235   0.335   9.244 -0.2779  0.6598  0.1600
 6741TIP3    H144418   0.219   0.268   9.311  0.2461  2.7271  2.4933
 6741TIP3    H244419   0.325   0.318   9.215 -0.8396 -0.8604 -0.8395
 6742TIP3   OH244420   6.969   5.505   1.221  0.2535 -0.6365  0.0888
 6742TIP3    H144421   6.947   5.415   1.243 -2.3739 -0.0951  0.0482
 6742TIP3    H244422   6.893   5.556   1.250  1.4765  1.5166 -0.2737
 6743TIP3   OH244423   6.020   6.054   0.879 -0.4678  0.8957 -0.1075
 6743TIP3    H144424   6.069   6.025   0.956 -1.0630 -2.4681 -0.8519
 6743TIP3    H244425   5.944   6.101   0.914  0.4805  1.4959  1.2103
 6744TIP3   OH244426   6.136   1.777   6.842 -0.1280  0.0978  0.1614
 6744TIP3    H144427   6.191   1.713   6.886 -0.4327 -0.7326 -0.6285
 6744TIP3    H244428   6.098   1.729   6.768  0.4182  1.4454 -1.0461
 6745TIP3   OH244429   2.303   4.694   1.635 -0.3525 -0.1060 -0.0001
 6745TIP3    H144430   2.242   4.651   1.694 -0.0848  0.4994  0.7235
 6745TIP3    H244431   2.303   4.638   1.556  0.8007 -2.0839  1.3029
 6746TIP3   OH244432   2.155   0.539   7.294  0.2842 -0.1868 -0.8435
 6746TIP3    H144433   2.201   0.588   7.226 -0.2404  0.6950 -0.5819
 6746TIP3    H244434   2.078   0.503   7.249  0.8619 -1.1054 -1.1237
 6747TIP3   OH244435   2.017   6.929   0.595  0.2594  0.4117 -0.1910
 6747TIP3    H144436   1.985   6.993   0.531  0.1905  0.4766 -0.0930
 6747TIP3    H244437   2.102   6.902   0.561 -0.4755 -0.7791 -1.1704
 6748TIP3   OH244438   3.253   2.066   9.378  0.4573 -0.2507  0.1500
 6748TIP3    H144439   3.222   2.015   9.303 -2.3189 -0.1277  1.0786
 6748TIP3    H244440   3.213   2.152   9.367  2.0043  0.5512  0.5449
 6749TIP3   OH244441   2.961   2.182   2.105 -0.0075 -0.1338 -0.1554
 6749TIP3    H144442   2.978   2.271   2.135 -0.2955 -0.5893  1.4611
 6749TIP3    H244443   2.944   2.133   2.185 -1.0443 -1.3900 -1.1044
 6750TIP3   OH244444   4.615   3.711   9.009  0.0526 -0.0208 -0.0018
 6750TIP3    H144445   4.643   3.688   9.097  0.3420  1.9414  0.4706
 6750TIP3    H244446   4.597   3.627   8.966  1.2494 -1.0738  1.4666
 6751TIP3   OH244447   2.091   0.766   7.442  0.0534  0.3666  0.1431
 6751TIP3    H144448   2.128   0.683   7.413  2.2138  1.1702  0.3997
 6751TIP3    H244449   2.045   0.800   7.365 -0.7355 -0.9766 -0.0035
 6752TIP3   OH244450   4.143   2.940   0.545 -0.1004 -0.4022 -0.6024
 6752TIP3    H144451   4.151   2.862   0.599 -1.3573  1.3394  2.3680
 6752TIP3    H244452   4.227   2.985   0.555 -0.1365 -0.3464 -0.5499
 6753TIP3   OH244453   2.781   2.517   7.775  0.4473  0.7372 -0.0358
 6753TIP3    H144454   2.852   2.455   7.792 -0.8302 -0.7209  0.2515
 6753TIP3    H244455   2.776   2.522   7.679 -1.6439 -2.4338 -0.2482
 6754TIP3   OH244456   4.567   4.672   2.020  0.4370 -0.0312  0.2913
 6754TIP3    H144457   4.596   4.704   1.935 -1.6408 -1.1103 -0.9312
 6754TIP3    H244458   4.573   4.576   2.012 -0.4626 -0.1642  1.0736
 6755TIP3   OH244459   2.547   6.406   1.745 -0.2960  0.2354  0.3411
 6755TIP3    H144460   2.526   6.365   1.661 -1.2673  1.8404 -0.2422
 6755TIP3    H244461   2.585   6.491   1.722 -1.7619  1.2649  1.5100
 6756TIP3   OH244462   1.540   0.272   0.682  0.5683 -0.2354 -0.5583
 6756TIP3    H144463   1.454   0.231   0.673 -0.1608  1.3391 -1.1438
 6756TIP3    H244464   1.579   0.266   0.594  0.3901  0.4422 -0.6892
 6757TIP3   OH244465   1.926   0.261   8.877  0.4411  0.3848 -0.0307
 6757TIP3    H144466   1.861   0.244   8.945 -2.1257 -0.2674 -2.4476
 6757TIP3    H244467   1.913   0.352   8.853  0.6357  0.3342 -0.3344
 6758TIP3   OH244468   0.016   2.534   8.173  0.7050 -0.2633  0.3885
 6758TIP3    H144469  -0.077   2.553   8.190  1.0851  2.5350 -0.1970
 6758TIP3    H244470   0.014   2.457   8.116 -1.3843  0.5607 -0.7718
 6759TIP3   OH244471   2.171   4.488   7.868  0.1061 -0.0730 -0.6769
 6759TIP3    H144472   2.140   4.510   7.956 -1.0224  0.6871 -1.2371
 6759TIP3    H244473   2.226   4.563   7.843 -0.3715  0.1737 -0.9925
 6760TIP3   OH244474   0.980   2.115   9.149  0.3185 -0.4061 -0.0393
 6760TIP3    H144475   0.921   2.187   9.171  2.8439  1.2907  1.7577
 6760TIP3    H244476   1.065   2.156   9.137  1.3031 -2.7924 -2.0826
 6761TIP3   OH244477   3.212   1.682   9.438  0.2350 -0.0731  0.3539
 6761TIP3    H144478   3.219   1.650   9.528 -1.6786  0.1117  0.5964
 6761TIP3    H244479   3.137   1.742   9.439 -0.5949 -1.0007 -1.6000
 6762TIP3   OH244480   6.034   0.912   2.639 -0.6796  0.1278 -0.3879
 6762TIP3    H144481   6.128   0.922   2.653 -0.6171 -0.3498 -0.4333
 6762TIP3    H244482   6.028   0.852   2.564 -1.0187 -0.1848 -0.1135
 6763TIP3   OH244483   2.851   0.599   6.576  0.8372 -0.2729 -0.1814
 6763TIP3    H144484   2.885   0.550   6.501 -1.1146 -0.7498 -0.8125
 6763TIP3    H244485   2.776   0.648   6.541 -0.0018 -0.3457  1.4096
 6764TIP3   OH244486   2.402   5.503   7.149 -0.3877  0.0680  0.5130
 6764TIP3    H144487   2.361   5.515   7.063  0.1601  0.3327  0.2802
 6764TIP3    H244488   2.424   5.592   7.177 -1.7770  0.1194  1.5529
 6765TIP3   OH244489   4.707   2.909   0.192 -0.1297  0.0865  0.1406
 6765TIP3    H144490   4.728   2.997   0.223 -1.0296 -0.0078  1.0611
 6765TIP3    H244491   4.770   2.852   0.236 -0.1662  0.1607  0.2884
 6766TIP3   OH244492   6.431   6.400   9.780  0.2679 -0.3388  0.3707
 6766TIP3    H144493   6.521   6.432   9.789  0.8185 -1.5207 -0.7173
 6766TIP3    H244494   6.440   6.305   9.768 -0.8575 -0.1323 -3.1925
 6767TIP3   OH244495   3.395   5.060   8.442 -0.0780 -0.4695  0.4916
 6767TIP3    H144496   3.403   4.973   8.404  1.6216  0.6926 -2.1135
 6767TIP3    H244497   3.393   5.119   8.367  1.5657  1.9107  2.1562
 6768TIP3   OH244498   4.163   2.916   1.001  0.1966 -0.1809 -0.5951
 6768TIP3    H144499   4.159   2.989   1.062  0.7750 -0.2161 -0.5124
 6768TIP3    H244500   4.115   2.846   1.045  0.9952 -0.3490  0.0251
 6769TIP3   OH244501   0.665   1.922   1.897  0.1424 -0.5167  0.1592
 6769TIP3    H144502   0.616   1.928   1.979 -1.3014 -0.2332 -0.6960
 6769TIP3    H244503   0.750   1.960   1.917 -0.2283 -0.3428  1.4955
 6770TIP3   OH244504   3.591   5.400   7.971  0.3085 -0.2780 -0.9423
 6770TIP3    H144505   3.662   5.414   7.908  0.1905  2.6972 -0.5602
 6770TIP3    H244506   3.615   5.319   8.017  1.3640 -1.4899 -3.4673
 6771TIP3   OH244507   5.423   6.740   1.430  0.3474 -0.1303 -0.0711
 6771TIP3    H144508   5.391   6.704   1.346 -0.4282  0.4027 -0.0160
 6771TIP3    H244509   5.354   6.718   1.492  0.0144  1.1538  0.0306
 6772TIP3   OH244510   4.746   2.118   6.993  0.1425 -0.3867  0.1101
 6772TIP3    H144511   4.711   2.100   6.906 -0.0304 -0.6483  0.2334
 6772TIP3    H244512   4.761   2.032   7.031  2.1364 -0.3320 -0.4289
 6773TIP3   OH244513   5.407   4.850   0.734 -0.2253  0.5349  0.4466
 6773TIP3    H144514   5.467   4.845   0.808 -0.6702  0.0346  0.7824
 6773TIP3    H244515   5.459   4.821   0.659 -0.3226 -0.9580  0.9184
 6774TIP3   OH244516   1.739   6.859   3.011  0.1159 -0.5151 -0.3027
 6774TIP3    H144517   1.742   6.825   3.100  0.0749 -0.5455 -0.3129
 6774TIP3    H244518   1.745   6.780   2.956  0.5299 -0.4678 -0.3263
 6775TIP3   OH244519   0.213   1.608   9.604  0.0730  0.7389  0.4572
 6775TIP3    H144520   0.209   1.529   9.657 -1.3076 -1.0217 -2.0719
 6775TIP3    H244521   0.303   1.610   9.571 -0.5090 -1.2419 -1.4257
 6776TIP3   OH244522   5.708   1.547   1.319  0.1594 -0.0739 -0.0813
 6776TIP3    H144523   5.797   1.546   1.354  0.5832  0.3943 -1.1104
 6776TIP3    H244524   5.652   1.530   1.395  1.1732 -1.4574  0.3999
 6777TIP3   OH244525   3.820   1.148   0.040  0.1227 -0.3869  0.1766
 6777TIP3    H144526   3.822   1.104   0.124  1.1147  1.2119  1.0470
 6777TIP3    H244527   3.798   1.080  -0.023 -0.6060 -1.6247  1.7154
 6778TIP3   OH244528   3.979   1.036   9.625  0.8484 -0.3009 -0.1727
 6778TIP3    H144529   3.918   1.065   9.558  0.8548  0.4263  0.1273
 6778TIP3    H244530   4.032   0.969   9.583 -0.1596 -0.9521 -0.4380
 6779TIP3   OH244531   2.117   2.000   8.075  0.0087 -0.5242 -0.2997
 6779TIP3    H144532   2.181   2.071   8.067  0.7275 -1.1910 -0.5431
 6779TIP3    H244533   2.032   2.044   8.072  0.3981  0.7818  3.2977
 6780TIP3   OH244534   4.247   3.464   8.132  0.4555  0.2253 -0.3529
 6780TIP3    H144535   4.228   3.555   8.152 -0.0220  0.2605 -0.9151
 6780TIP3    H244536   4.341   3.461   8.119  0.1696  1.3235 -3.4816
 6781TIP3   OH244537   3.946   2.034   8.481 -0.5015  0.6834  0.0058
 6781TIP3    H144538   3.851   2.027   8.488 -0.4009 -2.3391 -0.3111
 6781TIP3    H244539   3.973   2.077   8.563 -1.9022 -2.5721  2.4333
 6782TIP3   OH244540   0.098   5.607   7.154  0.4750 -0.4628 -0.2643
 6782TIP3    H144541   0.058   5.657   7.084 -0.1100 -1.0295 -0.3437
 6782TIP3    H244542   0.138   5.532   7.110 -2.0607 -2.2173  0.1861
 6783TIP3   OH244543   5.378   1.985   1.572 -0.4492 -0.4737 -0.2396
 6783TIP3    H144544   5.423   1.920   1.519 -1.5510 -1.3129 -0.1941
 6783TIP3    H244545   5.408   2.069   1.538  0.1520 -1.0045 -1.0522
 6784TIP3   OH244546   2.614   5.303   1.356 -0.6019  0.3866 -0.0430
 6784TIP3    H144547   2.624   5.368   1.424 -1.5161  0.4385  0.0560
 6784TIP3    H244548   2.523   5.273   1.364 -0.4746 -0.2111 -0.6891
 6785TIP3   OH244549   5.822   5.246   0.141 -0.1059 -0.4734  0.0373
 6785TIP3    H144550   5.903   5.234   0.092  0.2789 -2.2138  1.0033
 6785TIP3    H244551   5.763   5.179   0.106 -1.2746  0.9369 -0.8418
 6786TIP3   OH244552   2.523   6.069   1.746 -0.2888 -0.4519 -0.2800
 6786TIP3    H144553   2.451   6.121   1.711  0.1806 -0.1239 -0.7817
 6786TIP3    H244554   2.483   5.986   1.772 -0.9861  0.0317  0.2210
 6787TIP3   OH244555   1.701   2.543   0.493  0.3344 -0.3049 -0.4630
 6787TIP3    H144556   1.687   2.561   0.400  2.7172  2.1739 -0.4598
 6787TIP3    H244557   1.745   2.458   0.495  1.0288  0.0036 -1.7024
 6788TIP3   OH244558   2.013   2.827   0.252  0.2239 -0.0609  0.6946
 6788TIP3    H144559   1.962   2.856   0.177 -0.1131  0.5662  1.1563
 6788TIP3    H244560   2.026   2.906   0.304  0.1619 -0.5502  1.4716
 6789TIP3   OH244561   4.972   5.293   8.464  0.4641 -0.3481  0.2833
 6789TIP3    H144562   4.913   5.369   8.457  0.5340  0.0520  2.8412
 6789TIP3    H244563   4.918   5.225   8.504  0.3667 -1.7934 -2.1153
 6790TIP3   OH244564   5.832   5.351   7.084 -0.4249 -0.6867 -0.0443
 6790TIP3    H144565   5.816   5.383   7.172  1.6977 -1.6136  0.7399
 6790TIP3    H244566   5.747   5.356   7.040 -1.1809  1.3053  1.5269
 6791TIP3   OH244567   0.565   4.981   1.044 -0.3077  0.2693 -0.0166
 6791TIP3    H144568   0.515   4.944   0.971 -0.0117  0.4787 -0.3289
 6791TIP3    H244569   0.517   5.060   1.068 -1.8544 -1.0794  1.6943
 6792TIP3   OH244570   2.280   1.000   7.551 -0.3064 -0.2717  1.5457
 6792TIP3    H144571   2.237   1.027   7.470  1.3972 -2.4567 -0.2533
 6792TIP3    H244572   2.209   0.979   7.611 -1.6199  1.2602  0.6015
 6793TIP3   OH244573   5.113   6.035   0.052  0.3776  0.1582  0.0408
 6793TIP3    H144574   5.173   5.966   0.078  0.8470  1.1969  1.9233
 6793TIP3    H244575   5.056   6.048   0.128 -1.7125 -0.1935 -1.3664
 6794TIP3   OH244576   5.810   4.373   8.736 -0.3648  0.1607  0.1225
 6794TIP3    H144577   5.728   4.338   8.769 -1.6951  1.7169 -1.3916
 6794TIP3    H244578   5.848   4.301   8.685 -0.5571 -0.7020  1.1657
 6795TIP3   OH244579   0.518   0.781   2.191  0.0189  0.1098 -0.0554
 6795TIP3    H144580   0.519   0.798   2.097 -0.4152  0.8957  0.0743
 6795TIP3    H244581   0.610   0.782   2.216  0.1476 -0.2321 -0.4863
 6796TIP3   OH244582   7.052   6.345   7.958 -0.1051 -0.5626 -0.5242
 6796TIP3    H144583   7.032   6.439   7.951  0.3710 -0.3090  0.9912
 6796TIP3    H244584   7.136   6.343   8.004 -0.8033 -1.7424  0.7795
 6797TIP3   OH244585   2.583   5.375   7.551  0.4470 -0.0701 -0.0715
 6797TIP3    H144586   2.488   5.363   7.549  0.5627 -1.2616  0.4535
 6797TIP3    H244587   2.609   5.378   7.459 -0.1943  1.3080 -0.2363
 6798TIP3   OH244588   4.681   0.086   1.796 -0.4348 -0.0499 -0.3713
 6798TIP3    H144589   4.700   0.090   1.702  0.9318 -1.3774 -0.1998
 6798TIP3    H244590   4.590   0.059   1.801 -0.3227 -0.6539 -1.3303
 6799TIP3   OH244591   0.593   3.332   1.968  0.1284 -0.2692  0.6504
 6799TIP3    H144592   0.611   3.418   2.006 -0.2546 -0.7244  1.9255
 6799TIP3    H244593   0.499   3.319   1.982  0.4226 -1.4504  1.7016
 6800TIP3   OH244594   2.871   1.746   0.758  0.0203  0.3964 -0.6525
 6800TIP3    H144595   2.891   1.811   0.826  1.1427  0.3968 -0.9661
 6800TIP3    H244596   2.952   1.738   0.708  0.4140 -2.3377  0.2740
 6801TIP3   OH244597   7.181   7.074   9.560  0.0032  0.1111 -0.4907
 6801TIP3    H144598   7.176   7.149   9.501 -3.2166 -0.8341 -1.6232
 6801TIP3    H244599   7.144   7.106   9.642 -0.0267  0.1584 -0.5223
 6802TIP3   OH244600   5.074   0.980   0.895 -0.5390 -0.3823  0.1859
 6802TIP3    H144601   5.031   0.997   0.979 -1.9879 -0.8391 -0.4321
 6802TIP3    H244602   5.100   0.888   0.899  1.7463  0.2490  1.1181
 6803TIP3   OH244603   1.200   4.933   8.025 -0.0801  0.1425  0.1553
 6803TIP3    H144604   1.195   5.024   7.994 -0.3011 -0.9156 -3.2761
 6803TIP3    H244605   1.291   4.922   8.052  0.4320  0.8999 -1.1819
 6804TIP3   OH244606   3.728   2.217   9.978 -0.0738  0.1541 -0.1687
 6804TIP3    H144607   3.684   2.224  10.063 -0.0788  0.7841 -0.2222
 6804TIP3    H244608   3.660   2.240   9.914 -0.2462 -0.9153 -0.3930
 6805TIP3   OH244609   6.587   2.866   1.966 -0.0068 -0.2217  0.2175
 6805TIP3    H144610   6.681   2.850   1.975  0.0365 -1.1562 -1.5452
 6805TIP3    H244611   6.547   2.781   1.982 -0.4031 -0.2714 -1.0179
 6806TIP3   OH244612   4.049   6.884   8.111 -0.3254  0.2616 -0.3574
 6806TIP3    H144613   3.979   6.944   8.140  1.3894  1.7566  0.9018
 6806TIP3    H244614   4.054   6.898   8.016 -0.3751  1.7010 -0.1742
 6807TIP3   OH244615   3.544   2.049   9.040 -0.1396  0.1486 -0.2167
 6807TIP3    H144616   3.558   2.035   9.133 -1.7731 -0.5473 -0.0489
 6807TIP3    H244617   3.630   2.077   9.007  0.1913  1.5590  1.6738
 6808TIP3   OH244618   5.995   2.474   0.271  0.4369 -0.7835  0.1819
 6808TIP3    H144619   6.046   2.534   0.325 -0.9982  0.2962  0.3956
 6808TIP3    H244620   5.905   2.507   0.277 -0.1755 -2.1934 -0.7595
 6809TIP3   OH244621   0.881   3.808   8.469 -0.1530  0.0327 -0.0516
 6809TIP3    H144622   0.852   3.724   8.434  1.7502 -1.3893  1.5696
 6809TIP3    H244623   0.831   3.819   8.550 -0.5059  0.5598 -0.3350
 6810TIP3   OH244624   1.656   1.715   9.826  0.7397  0.2504  0.7515
 6810TIP3    H144625   1.640   1.806   9.851  1.2552  0.6480 -0.3068
 6810TIP3    H244626   1.570   1.682   9.798  0.4014  0.1659  1.8574
 6811TIP3   OH244627   4.719   4.310   9.169  0.2862 -0.0146 -0.3036
 6811TIP3    H144628   4.714   4.400   9.199 -1.7684 -0.7343  1.8870
 6811TIP3    H244629   4.670   4.309   9.087  0.7206  0.9309 -0.5856
 6812TIP3   OH244630   1.839   6.286   9.379  0.1049  0.0849  0.4469
 6812TIP3    H144631   1.926   6.291   9.340  0.0075  0.1153  0.2315
 6812TIP3    H244632   1.850   6.231   9.456 -0.1355 -1.8961 -0.8694
 6813TIP3   OH244633   4.365   3.121   0.641  0.4684 -0.4385  0.1110
 6813TIP3    H144634   4.411   3.071   0.707 -0.2193 -1.4497 -0.1515
 6813TIP3    H244635   4.423   3.195   0.622  2.0511 -1.7328 -0.3214
 6814TIP3   OH244636   5.669   2.609   2.040  0.1423  0.1047  0.2563
 6814TIP3    H144637   5.747   2.605   2.096  1.4388  0.6214 -1.4469
 6814TIP3    H244638   5.702   2.602   1.951 -1.7478  0.6042 -0.5410
 6815TIP3   OH244639   0.341   5.811   6.743 -0.1318  0.9098  0.1738
 6815TIP3    H144640   0.287   5.883   6.710 -1.0865 -0.8515 -2.4299
 6815TIP3    H244641   0.428   5.828   6.707 -0.2664  0.9414 -0.1399
 6816TIP3   OH244642   2.840   3.165   8.541 -0.0731 -0.0451  0.3076
 6816TIP3    H144643   2.924   3.199   8.571  0.4259  0.9450 -2.0352
 6816TIP3    H244644   2.847   3.070   8.552  0.4140  0.1869  2.3179
 6817TIP3   OH244645   5.461   3.081   8.108  1.0444  0.4978 -0.2944
 6817TIP3    H144646   5.473   3.075   8.013 -0.5281 -0.2878 -0.4888
 6817TIP3    H244647   5.366   3.084   8.120  1.1479 -0.9831  1.3179
 6818TIP3   OH244648   6.054   6.331   9.496  0.1986 -0.9074  0.3769
 6818TIP3    H144649   6.126   6.284   9.455 -0.0077 -0.0848 -0.9899
 6818TIP3    H244650   6.084   6.422   9.502 -1.0820 -0.3241 -1.2259
 6819TIP3   OH244651   3.887   7.090   8.154 -0.3807 -0.3324 -0.3340
 6819TIP3    H144652   3.809   7.084   8.098  0.0676  0.1129 -1.0238
 6819TIP3    H244653   3.940   7.159   8.114  1.2148 -1.8521 -0.9430
 6820TIP3   OH244654   3.354   5.790   3.331 -0.2150 -0.6500  0.6157
 6820TIP3    H144655   3.317   5.870   3.294 -0.8984  0.2081  3.0031
 6820TIP3    H244656   3.448   5.807   3.335 -0.3200 -0.1006  0.8102
 6821TIP3   OH244657   4.772   5.628   0.470  0.0511  0.5207 -0.2788
 6821TIP3    H144658   4.849   5.642   0.525 -1.4538  1.0201  1.8400
 6821TIP3    H244659   4.752   5.715   0.435 -0.8002  0.8510  0.9777
 6822TIP3   OH244660   0.156   5.414   1.065  0.0671  0.2413 -0.4101
 6822TIP3    H144661   0.107   5.339   1.097 -1.2414  1.6151  0.9813
 6822TIP3    H244662   0.179   5.464   1.143  2.3146  0.5062 -1.1551
 6823TIP3   OH244663   6.657   7.092   1.957  0.5594 -0.4420  0.2559
 6823TIP3    H144664   6.699   7.177   1.943  0.2841 -0.4970 -1.0305
 6823TIP3    H244665   6.695   7.059   2.038  0.8676  0.7878  0.6300
 6824TIP3   OH244666   4.035   5.669   2.519  0.1577  0.1043 -0.1039
 6824TIP3    H144667   3.986   5.720   2.583 -0.0027 -0.4533  0.2155
 6824TIP3    H244668   3.968   5.635   2.459  0.1363 -0.7126  0.3710
 6825TIP3   OH244669   6.948   3.397   6.745 -0.2193 -0.3769 -0.4296
 6825TIP3    H144670   7.023   3.339   6.732 -0.2740 -0.3065 -1.0564
 6825TIP3    H244671   6.895   3.387   6.667 -0.0760  0.7492 -0.6965
 6826TIP3   OH244672   5.930   6.619   0.703 -0.3490 -0.3408 -0.5805
 6826TIP3    H144673   6.014   6.648   0.737 -0.4265  1.1691 -1.5946
 6826TIP3    H244674   5.873   6.696   0.711 -1.1853 -0.8602 -1.3773
 6827TIP3   OH244675   4.380   5.330   7.001 -0.1393  0.1357 -0.3489
 6827TIP3    H144676   4.355   5.256   6.946 -2.3085  1.2149 -0.9214
 6827TIP3    H244677   4.429   5.388   6.943 -0.5286  0.2503 -0.5677
 6828TIP3   OH244678   5.536   3.657   8.943  0.6158 -0.1501  0.2573
 6828TIP3    H144679   5.500   3.568   8.949 -2.2877  0.8342 -0.5352
 6828TIP3    H244680   5.587   3.657   8.862  1.5048 -1.3176  0.7902
 6829TIP3   OH244681   5.443   0.377   9.014  0.1265 -0.1017 -0.0603
 6829TIP3    H144682   5.488   0.445   8.963 -1.7876  0.9613 -0.4229
 6829TIP3    H244683   5.479   0.295   8.980  0.0984  0.6318 -2.0092
 6830TIP3   OH244684   6.054   1.197   8.212  0.4618  0.6127  0.3011
 6830TIP3    H144685   6.059   1.109   8.249  1.0718 -0.2264 -1.6339
 6830TIP3    H244686   5.961   1.219   8.214  0.3299  0.0356  1.0144
 6831TIP3   OH244687   6.109   6.492   1.378 -0.1264 -0.7316 -0.4586
 6831TIP3    H144688   6.015   6.476   1.385 -0.8021  2.1728 -1.5902
 6831TIP3    H244689   6.135   6.520   1.466 -1.2894  2.3872 -0.9814
 6832TIP3   OH244690   4.714   6.276   7.378 -0.2663  0.1916 -0.2270
 6832TIP3    H144691   4.728   6.251   7.469 -1.7413  0.9763  0.2561
 6832TIP3    H244692   4.642   6.220   7.348 -0.2153  0.3743 -0.7070
 6833TIP3   OH244693   0.374   5.467   2.222 -0.6803  0.0289  0.0844
 6833TIP3    H144694   0.366   5.502   2.310 -0.2279  0.8261 -0.1804
 6833TIP3    H244695   0.353   5.540   2.164 -0.2667 -0.2810 -0.4733
 6834TIP3   OH244696   5.228   4.220   1.938 -0.1091 -0.4206  0.2833
 6834TIP3    H144697   5.315   4.246   1.969 -0.6865  2.9002 -0.4582
 6834TIP3    H244698   5.169   4.248   2.007 -0.8034  0.1797 -0.5374
 6835TIP3   OH244699   4.803   0.805   8.110  0.0013 -0.1123  0.2350
 6835TIP3    H144700   4.829   0.828   8.020  1.3576  1.8480  1.0560
 6835TIP3    H244701   4.708   0.819   8.112  0.0944  0.7747 -0.6474
 6836TIP3   OH244702   6.355   0.510   8.430  0.1912  0.0174 -0.0489
 6836TIP3    H144703   6.295   0.505   8.355  1.1864 -0.9436 -0.8138
 6836TIP3    H244704   6.302   0.484   8.505 -0.1132 -1.8355 -0.8682
 6837TIP3   OH244705   2.109   2.392   9.573 -0.7909  0.4286  0.0558
 6837TIP3    H144706   2.152   2.408   9.657  1.9177 -0.7509 -0.9673
 6837TIP3    H244707   2.064   2.474   9.552  0.8853  1.7420  1.3247
 6838TIP3   OH244708   0.337   5.133   9.648  0.0007  0.1706 -0.0447
 6838TIP3    H144709   0.403   5.115   9.715  0.5477 -1.7184 -1.0121
 6838TIP3    H244710   0.388   5.156   9.570 -0.4824 -0.4096 -0.5509
 6839TIP3   OH244711   6.029   1.223   9.971 -0.5428 -0.0484 -0.1142
 6839TIP3    H144712   6.067   1.197   9.887 -0.7638  0.5475 -0.4007
 6839TIP3    H244713   6.008   1.316   9.961 -0.7529 -0.0193  0.5326
 6840TIP3   OH244714   3.962   1.364   9.115  0.2188 -0.3972  0.3868
 6840TIP3    H144715   3.886   1.331   9.164 -0.9072 -0.1994 -1.1473
 6840TIP3    H244716   4.002   1.285   9.078 -0.2529 -0.3845 -0.1761
 6841TIP3   OH244717   5.531   0.555   1.382 -0.6489  0.1190  0.9616
 6841TIP3    H144718   5.523   0.552   1.287 -1.6610  0.9656  1.0024
 6841TIP3    H244719   5.596   0.624   1.398  0.3046 -0.7246  0.8815
 6842TIP3   OH244720   5.354   0.168   7.723  0.2817  0.1356  0.5695
 6842TIP3    H144721   5.339   0.137   7.634 -0.5466 -1.1699  1.1313
 6842TIP3    H244722   5.411   0.102   7.762  2.8053  1.9936  0.2881
 6843TIP3   OH244723   0.661   2.773   7.471  0.3773  0.0001  0.1374
 6843TIP3    H144724   0.591   2.776   7.537  1.4845  0.0311  1.3467
 6843TIP3    H244725   0.703   2.859   7.477  1.7699 -0.6995  0.8593
 6844TIP3   OH244726   0.123   1.413   8.350  0.2812  0.0345  0.4055
 6844TIP3    H144727   0.136   1.497   8.393  0.4928 -0.0123  0.4362
 6844TIP3    H244728   0.032   1.414   8.321  0.6731  0.8973 -0.9060
 6845TIP3   OH244729   3.113   3.673   0.442 -0.2200 -0.7750 -0.6681
 6845TIP3    H144730   3.041   3.700   0.386 -0.4834 -0.2030 -0.0742
 6845TIP3    H244731   3.132   3.583   0.416 -1.9079 -1.3430 -0.0731
 6846TIP3   OH244732   2.968   6.376   0.041 -0.2036 -0.2385 -0.5587
 6846TIP3    H144733   2.963   6.280   0.039  0.1365 -0.2517 -0.9266
 6846TIP3    H244734   2.989   6.401  -0.049  0.1016  0.1571 -0.3829
 6847TIP3   OH244735   3.129   7.073   2.959 -0.5834 -0.4012  0.5169
 6847TIP3    H144736   3.178   7.043   3.036  0.4712 -0.3365 -0.1097
 6847TIP3    H244737   3.095   6.993   2.920 -1.5472 -0.3959  1.3173
 6848TIP3   OH244738   4.357   2.632   8.755 -0.0738  0.7631  0.6219
 6848TIP3    H144739   4.347   2.725   8.776 -1.9864  0.8329 -0.4140
 6848TIP3    H244740   4.270   2.604   8.727  0.8693 -0.8753 -0.8833
 6849TIP3   OH244741   4.169   1.946   1.581 -0.9158  0.0429  0.5503
 6849TIP3    H144742   4.159   2.006   1.508 -1.7880  0.9315  1.3813
 6849TIP3    H244743   4.080   1.930   1.613 -0.8299 -2.3977 -0.1709
 6850TIP3   OH244744   0.419   0.156   0.266  0.4419  0.6379 -0.2670
 6850TIP3    H144745   0.388   0.106   0.341  1.2469 -1.4983 -1.2629
 6850TIP3    H244746   0.508   0.123   0.249  0.9356  2.2647 -1.1425
 6851TIP3   OH244747   4.172   5.032   9.582 -0.6601  0.6408 -0.3247
 6851TIP3    H144748   4.189   5.124   9.604  1.8194  0.4566 -1.1827
 6851TIP3    H244749   4.077   5.027   9.575 -1.1489  2.3921  2.8244
 6852TIP3   OH244750   2.570   7.264   1.765  0.3659  0.4841 -0.5861
 6852TIP3    H144751   2.636   7.332   1.748 -0.1979  1.1928 -0.0214
 6852TIP3    H244752   2.620   7.183   1.771  1.0843  0.8785 -1.0420
 6853TIP3   OH244753   2.331   3.728   2.384 -0.0883  0.0030  0.3608
 6853TIP3    H144754   2.260   3.776   2.427 -0.2491 -0.9610  1.1914
 6853TIP3    H244755   2.398   3.718   2.452  0.7368  0.6454 -0.3345
 6854TIP3   OH244756   5.603   0.208   7.959 -0.1447 -0.3416  0.5491
 6854TIP3    H144757   5.684   0.175   7.998 -0.1268  0.4325  1.1783
 6854TIP3    H244758   5.555   0.129   7.934  1.3650 -0.8180 -1.0703
 6855TIP3   OH244759   1.518   5.497   6.764 -0.0313  0.0009 -0.0684
 6855TIP3    H144760   1.577   5.566   6.796  0.4535 -0.7175  0.6016
 6855TIP3    H244761   1.576   5.428   6.734 -0.5245 -0.7792  0.7355
 6856TIP3   OH244762   2.053   0.435   9.827 -0.1856  0.4270 -0.1198
 6856TIP3    H144763   1.987   0.462   9.763 -0.3323  0.0877 -0.1148
 6856TIP3    H244764   2.126   0.496   9.814 -0.5816  0.9453  0.0174
 6857TIP3   OH244765   2.347   7.238   9.971  0.2989  0.8587  0.0972
 6857TIP3    H144766   2.265   7.279   9.944 -0.3423 -0.4588 -0.0316
 6857TIP3    H244767   2.415   7.290   9.929 -0.5288  1.2154 -0.8396
 6858TIP3   OH244768   5.067   3.596   0.335 -0.4282 -0.1978  0.4718
 6858TIP3    H144769   5.023   3.680   0.333 -0.6798 -0.3398 -0.2215
 6858TIP3    H244770   5.125   3.597   0.259 -0.8704 -0.8760  0.1112
 6859TIP3   OH244771   3.317   2.302   0.759 -0.5540  0.2723  0.0434
 6859TIP3    H144772   3.245   2.261   0.711 -0.5753 -0.1381  0.4177
 6859TIP3    H244773   3.367   2.228   0.795 -0.7635  0.5652  0.9776
 6860TIP3   OH244774   2.071   1.304   1.447  0.6832  0.1466  0.0886
 6860TIP3    H144775   2.078   1.399   1.460 -1.8460  0.2986  0.8821
 6860TIP3    H244776   2.047   1.295   1.354 -0.4550  0.4091  0.3431
 6861TIP3   OH244777   4.652   2.476   9.418 -0.1087 -0.2745  0.1460
 6861TIP3    H144778   4.740   2.448   9.444 -0.6103 -0.9745  1.1569
 6861TIP3    H244779   4.653   2.571   9.429  1.0485 -0.0364 -1.5542
 6862TIP3   OH244780   4.581   6.838   8.789 -0.2355 -0.2297  0.4825
 6862TIP3    H144781   4.603   6.752   8.754  0.0332  0.2122 -0.4568
 6862TIP3    H244782   4.604   6.900   8.720 -1.5392  0.5153  0.6620
 6863TIP3   OH244783   1.039   4.564   7.804  0.1428  0.1165  0.1586
 6863TIP3    H144784   1.006   4.550   7.715 -0.8861 -0.0209  0.5481
 6863TIP3    H244785   1.032   4.478   7.846  0.0127  0.3231  0.5656
 6864TIP3   OH244786   0.884   0.064   8.942 -0.4478  0.5632 -0.0222
 6864TIP3    H144787   0.873   0.061   8.847 -2.2378  3.4969 -0.0169
 6864TIP3    H244788   0.979   0.058   8.954 -0.2661 -1.7089 -1.7918
 6865TIP3   OH244789   4.988   1.638   2.699 -0.4615 -0.0323  0.1735
 6865TIP3    H144790   5.011   1.731   2.706  0.1810 -0.1314 -0.5645
 6865TIP3    H244791   5.071   1.592   2.709 -0.7578 -0.5253  0.3812
 6866TIP3   OH244792   6.362   0.189   8.529  0.4521 -0.0901 -0.0628
 6866TIP3    H144793   6.311   0.216   8.452  1.1000  2.4910  0.2970
 6866TIP3    H244794   6.449   0.170   8.494 -0.2121 -2.8032 -0.4359
 6867TIP3   OH244795   3.774   0.920   9.875  0.5047  0.0612 -0.1615
 6867TIP3    H144796   3.837   0.961   9.817  2.4234 -0.3940  1.4780
 6867TIP3    H244797   3.734   0.850   9.823  1.5751  0.1582 -1.1436
 6868TIP3   OH244798   1.470   4.188   0.097  0.4368  0.1859  0.1019
 6868TIP3    H144799   1.475   4.154   0.187 -1.9102  0.1301  0.2788
 6868TIP3    H244800   1.458   4.110   0.043  1.2564  0.2718 -0.2190
 6869TIP3   OH244801   6.506   5.195   2.405  0.4088  0.7761 -0.0758
 6869TIP3    H144802   6.422   5.240   2.396 -0.3432 -0.6330 -0.3747
 6869TIP3    H244803   6.533   5.211   2.496 -1.1247 -0.2835  0.6159
 6870TIP3   OH244804   2.639   0.777   0.548 -0.2240 -0.2945 -0.2307
 6870TIP3    H144805   2.546   0.795   0.532 -0.3427 -1.4850 -1.0034
 6870TIP3    H244806   2.643   0.753   0.641 -0.5050  0.7585  0.0740
 6871TIP3   OH244807   3.150   1.499   2.613 -0.3022  0.1715 -0.2165
 6871TIP3    H144808   3.175   1.586   2.643  0.6539 -0.4013  0.7334
 6871TIP3    H244809   3.126   1.511   2.521  0.1573  1.3621 -0.1983
 6872TIP3   OH244810   3.602   0.930   8.277  0.0766  0.6450  0.2545
 6872TIP3    H144811   3.677   0.942   8.219 -0.2533  0.8132 -0.1458
 6872TIP3    H244812   3.593   1.014   8.322  0.0608  0.6619  0.2203
 6873TIP3   OH244813   3.793   2.604   1.010 -0.0560  0.3021 -0.4953
 6873TIP3    H144814   3.729   2.537   0.988 -1.0449  1.7153 -2.2364
 6873TIP3    H244815   3.749   2.658   1.076  0.0431  0.2390 -0.3783
 6874TIP3   OH244816   6.753   0.070   1.882  0.0649 -0.0833  0.2470
 6874TIP3    H144817   6.776   0.158   1.910  1.8967 -0.6419  0.6194
 6874TIP3    H244818   6.739   0.078   1.787 -0.9113  0.7948  0.4440
 6875TIP3   OH244819   7.267   6.670   0.001 -0.5925 -0.0858 -0.1565
 6875TIP3    H144820   7.233   6.701   0.085  0.0021 -1.2344  0.5377
 6875TIP3    H244821   7.188   6.651  -0.050 -1.0005 -0.9299  0.7513
 6876TIP3   OH244822   4.449   4.755   0.562 -0.4556  0.6459 -0.4172
 6876TIP3    H144823   4.501   4.759   0.482  1.7608 -1.1416  0.8126
 6876TIP3    H244824   4.429   4.662   0.573 -0.5595  0.8212  1.1644
 6877TIP3   OH244825   6.060   0.258   9.588 -0.1612 -0.2681  0.3388
 6877TIP3    H144826   6.088   0.292   9.673  0.4105  0.4717 -0.1359
 6877TIP3    H244827   6.140   0.255   9.535 -0.7896  0.9558 -0.7319
 6878TIP3   OH244828   0.726   6.952   2.093  0.7499  0.4794 -0.3778
 6878TIP3    H144829   0.813   6.960   2.132 -0.2547  0.3692  2.0042
 6878TIP3    H244830   0.696   7.042   2.081  0.7610  0.5069 -0.1975
 6879TIP3   OH244831   5.529   0.472   7.617 -0.1513 -0.1083 -0.5557
 6879TIP3    H144832   5.543   0.381   7.644 -1.4218 -0.4452 -0.9686
 6879TIP3    H244833   5.443   0.495   7.653  0.5610  1.2571  0.3655
 6880TIP3   OH244834   5.377   1.472   7.705  0.8837 -0.5584 -0.4432
 6880TIP3    H144835   5.456   1.420   7.693  0.2533 -1.6076 -0.2525
 6880TIP3    H244836   5.307   1.407   7.716  0.1258  0.3302  0.2477
 6881TIP3   OH244837   1.982   5.595   8.917  0.9899 -0.8501  0.1354
 6881TIP3    H144838   1.957   5.511   8.878 -2.8881  1.4191 -2.8407
 6881TIP3    H244839   1.900   5.643   8.926  3.0247  2.6591  1.8763
 6882TIP3   OH244840   3.941   5.055   3.353 -0.6303 -1.1170 -0.3570
 6882TIP3    H144841   3.911   5.109   3.426  0.7734  1.8082 -1.7996
 6882TIP3    H244842   3.928   5.109   3.276  1.7421 -2.4801 -1.8144
 6883TIP3   OH244843   6.698   1.067   9.954  0.3259  0.5980 -0.0592
 6883TIP3    H144844   6.762   1.026  10.012  2.1254  0.8722 -1.7475
 6883TIP3    H244845   6.659   1.137  10.006  1.2037  0.2365  1.1103
 6884TIP3   OH244846   1.598   0.067   8.256 -0.1730  0.4376  0.4118
 6884TIP3    H144847   1.585   0.098   8.166  0.1566 -0.6158 -0.0023
 6884TIP3    H244848   1.676   0.013   8.252 -0.4707 -0.0634  1.2314
 6885TIP3   OH244849   7.075   4.886   7.762 -0.1801 -0.1125  0.7789
 6885TIP3    H144850   7.131   4.949   7.716  0.0286  1.2845  2.8138
 6885TIP3    H244851   6.986   4.919   7.749  0.0546  1.9195  3.5231
 6886TIP3   OH244852   6.505   6.914   7.679 -0.3694  0.1188 -0.7291
 6886TIP3    H144853   6.414   6.935   7.663 -1.1046 -0.0315  2.5794
 6886TIP3    H244854   6.540   6.989   7.726  0.9375 -0.2730 -1.0233
 6887TIP3   OH244855   4.066   2.575   0.556  0.1426  0.1510  0.3349
 6887TIP3    H144856   4.006   2.621   0.496  0.4673  1.9350  1.3199
 6887TIP3    H244857   4.035   2.598   0.643  0.4949 -1.3380  0.8782
 6888TIP3   OH244858   3.076   6.598   1.642  0.0126  0.1690 -0.6756
 6888TIP3    H144859   3.069   6.551   1.559 -1.1320 -3.3178  1.1929
 6888TIP3    H244860   3.014   6.671   1.633  0.3029  0.2029 -3.0189
 6889TIP3   OH244861   1.503   4.132   2.443  0.4049 -0.2445  0.3440
 6889TIP3    H144862   1.594   4.130   2.475 -0.0087 -0.2421  1.5671
 6889TIP3    H244863   1.451   4.155   2.520 -0.7632 -1.5220 -0.0159
 6890TIP3   OH244864   6.900   3.410   0.765 -0.1959  0.3781 -0.0859
 6890TIP3    H144865   6.868   3.428   0.677 -0.0851 -1.0096 -0.4281
 6890TIP3    H244866   6.893   3.315   0.775  0.8093  0.3856  0.9932
 6891TIP3   OH244867   7.216   3.100   0.819 -0.4037 -0.1097  0.1855
 6891TIP3    H144868   7.204   3.063   0.907 -2.2509 -0.2804 -0.1098
 6891TIP3    H244869   7.198   3.028   0.760 -0.6187  0.3884 -0.3632
 6892TIP3   OH244870   1.013   5.244   8.723  0.5234  0.5602 -0.4314
 6892TIP3    H144871   0.981   5.186   8.654  0.8565  0.5875 -0.6085
 6892TIP3    H244872   0.937   5.255   8.782  0.2920  0.3999 -0.6971
 6893TIP3   OH244873   7.011   2.105   9.789 -0.0597 -0.3333 -0.3319
 6893TIP3    H144874   6.985   2.023   9.746  0.7766 -1.7295  1.6521
 6893TIP3    H244875   7.091   2.082   9.836 -0.1708  1.4638  0.8062
 6894TIP3   OH244876   7.210   4.193   0.843  0.3281 -0.1575 -0.3847
 6894TIP3    H144877   7.156   4.207   0.765 -0.0532 -1.9525 -0.4904
 6894TIP3    H244878   7.148   4.163   0.910  0.6506  1.3795  0.6359
 6895TIP3   OH244879   6.575   4.829   1.122  0.1266 -0.1303 -0.1433
 6895TIP3    H144880   6.537   4.903   1.074 -1.2088 -1.5156 -1.3223
 6895TIP3    H244881   6.519   4.819   1.199  1.7908  1.5823  1.3899
 6896TIP3   OH244882   6.109   2.059   0.588 -0.4632 -0.6076  0.3500
 6896TIP3    H144883   6.074   2.060   0.677 -1.5779 -0.0038 -0.0696
 6896TIP3    H244884   6.110   2.152   0.561 -1.9849 -0.9129 -0.9301
 6897TIP3   OH244885   1.475   1.519   9.751  0.2223  0.5681  0.1549
 6897TIP3    H144886   1.474   1.488   9.660 -0.4404  2.5614 -0.5842
 6897TIP3    H244887   1.395   1.485   9.789  0.5893 -0.4282  0.0716
 6898TIP3   OH244888   1.773   7.108   2.820  0.3665  0.0597 -0.0847
 6898TIP3    H144889   1.808   7.129   2.906  0.6781  1.5638 -0.5410
 6898TIP3    H244890   1.697   7.053   2.837  1.4743 -1.1830  1.0479
 6899TIP3   OH244891   1.179   4.866   2.931 -0.3535 -0.2242 -0.2806
 6899TIP3    H144892   1.204   4.811   3.005 -1.2937  0.7159  0.7557
 6899TIP3    H244893   1.084   4.877   2.940 -0.2801  1.0018 -0.8660
 6900TIP3   OH244894   2.419   0.535   9.902 -0.5218  0.2445 -0.0613
 6900TIP3    H144895   2.459   0.519   9.817 -2.5087 -1.0854 -0.8075
 6900TIP3    H244896   2.396   0.628   9.901  0.0794  0.3862 -0.7008
 6901TIP3   OH244897   4.074   2.005   7.945 -0.3479 -0.5015 -0.2393
 6901TIP3    H144898   4.056   1.915   7.972  1.4726 -0.9791 -0.4581
 6901TIP3    H244899   4.047   2.059   8.019 -2.3616 -1.1017 -0.4676
 6902TIP3   OH244900   2.966   6.009   2.441 -0.2524 -0.2973 -0.2736
 6902TIP3    H144901   3.000   6.070   2.376 -0.3951 -0.5228 -0.5598
 6902TIP3    H244902   2.957   6.062   2.521 -0.0893 -0.0198 -0.4400
 6903TIP3   OH244903   6.923   4.978   1.165  0.3791  0.0541  0.7849
 6903TIP3    H144904   6.885   4.948   1.082  0.4138  0.4287  0.6341
 6903TIP3    H244905   6.884   4.921   1.231  1.6366 -1.4068  0.3331
 6904TIP3   OH244906   3.521   2.116   8.740 -0.1313 -0.2332  0.3247
 6904TIP3    H144907   3.436   2.136   8.701  0.1937 -0.9731 -0.8066
 6904TIP3    H244908   3.523   2.168   8.821 -2.5139 -1.8006  1.4931
 6905TIP3   OH244909   0.884   4.612   2.414  0.5261  0.4601 -0.0621
 6905TIP3    H144910   0.855   4.693   2.372 -1.7543  0.8842  2.0934
 6905TIP3    H244911   0.832   4.544   2.371  0.5020  0.4786 -0.0621
 6906TIP3   OH244912   4.111   6.088   8.403 -0.4383  0.0574 -0.0441
 6906TIP3    H144913   4.176   6.074   8.334 -0.6586  1.6350 -0.6267
 6906TIP3    H244914   4.085   6.180   8.392 -2.8713 -0.5467  0.0545
 6907TIP3   OH244915   4.963   1.577   9.300 -0.0168  0.6693  0.1180
 6907TIP3    H144916   4.994   1.523   9.373  1.1022 -0.0720 -0.8766
 6907TIP3    H244917   4.964   1.519   9.225 -0.6147  1.5815 -0.6142
 6908TIP3   OH244918   0.146   6.853   7.897 -0.2002  0.0482  0.3472
 6908TIP3    H144919   0.234   6.889   7.886  0.0146 -0.6559 -0.3161
 6908TIP3    H244920   0.123   6.820   7.810 -0.8860 -0.3030  0.6566
 6909TIP3   OH244921   2.360   6.788   1.611 -0.9428  0.5286 -0.1300
 6909TIP3    H144922   2.345   6.744   1.527  0.5802  0.8046 -0.5857
 6909TIP3    H244923   2.304   6.742   1.673 -0.3196 -1.2745 -0.8277
 6910TIP3   OH244924   6.678   3.690   8.484 -0.4559 -0.0980  0.1009
 6910TIP3    H144925   6.763   3.652   8.508 -0.5993 -0.0234  0.7545
 6910TIP3    H244926   6.697   3.745   8.408 -0.4861 -2.5547 -1.7961
 6911TIP3   OH244927   3.617   0.501   0.387 -0.6540 -0.2718  0.1993
 6911TIP3    H144928   3.676   0.492   0.462 -0.7221  1.7002  0.5477
 6911TIP3    H244929   3.671   0.539   0.318 -1.6134  2.4341  0.8122
 6912TIP3   OH244930   2.059   7.241   1.317 -0.0453  0.6567 -0.0127
 6912TIP3    H144931   2.035   7.177   1.250 -1.3078  0.7445  0.3330
 6912TIP3    H244932   2.105   7.190   1.383 -1.0291  0.0822  0.2515
 6913TIP3   OH244933   2.774   6.107   1.647  0.4727  0.5128  0.6242
 6913TIP3    H144934   2.823   6.032   1.682 -0.1484  0.1122  0.6412
 6913TIP3    H244935   2.685   6.094   1.677 -0.1445  0.0308 -1.2635
 6914TIP3   OH244936   6.767   0.785   2.239 -0.3027 -0.3636 -0.6242
 6914TIP3    H144937   6.766   0.843   2.315  0.3922 -0.5569 -0.4606
 6914TIP3    H244938   6.704   0.823   2.179 -0.6631 -0.0564 -0.0617
 6915TIP3   OH244939   3.267   3.912   1.284  0.2077  0.6830  0.3535
 6915TIP3    H144940   3.186   3.929   1.332  0.1937 -0.1834  0.6622
 6915TIP3    H244941   3.247   3.835   1.231  0.2805  1.5238 -0.9259
 6916TIP3   OH244942   4.196   5.749   8.951  0.2056  0.0782 -0.9050
 6916TIP3    H144943   4.268   5.811   8.940  0.3952 -0.2376 -1.4687
 6916TIP3    H244944   4.180   5.714   8.864 -0.6234  0.1287 -0.7868
 6917TIP3   OH244945   6.847   1.565   1.655 -0.0384 -0.0846  0.3579
 6917TIP3    H144946   6.834   1.471   1.670 -2.3739 -0.2842 -2.1839
 6917TIP3    H244947   6.775   1.606   1.702  0.7530  0.4611  1.1314
 6918TIP3   OH244948   5.504   2.618   2.419 -0.2625 -0.1321  0.0506
 6918TIP3    H144949   5.478   2.547   2.478 -1.2315  1.7747  2.0234
 6918TIP3    H244950   5.598   2.628   2.434 -0.6443  0.9332  2.0629
 6919TIP3   OH244951   1.237   0.626   9.464 -0.0543 -0.1183 -0.1886
 6919TIP3    H144952   1.217   0.602   9.374  0.3123 -2.8758  0.3755
 6919TIP3    H244953   1.153   0.655   9.501 -0.4377 -0.0693 -1.0886
 6920TIP3   OH244954   5.753   3.408   7.919  0.3425  0.3137 -0.1279
 6920TIP3    H144955   5.837   3.374   7.951  0.5612  0.6545 -0.3339
 6920TIP3    H244956   5.694   3.334   7.924  1.3713 -0.7989 -2.7616
 6921TIP3   OH244957   1.284   2.688   8.852  0.2132  0.0406 -0.1314
 6921TIP3    H144958   1.315   2.642   8.774  1.4982 -1.8650  1.3973
 6921TIP3    H244959   1.351   2.755   8.868  0.3176 -0.0280 -0.2797
 6922TIP3   OH244960   5.785   5.695   8.304  0.4392 -0.4179 -0.1421
 6922TIP3    H144961   5.880   5.690   8.313  0.4561  0.1617  0.0915
 6922TIP3    H244962   5.763   5.782   8.338  0.1895  0.8725 -3.2976
 6923TIP3   OH244963   0.833   6.217   0.459  0.1545 -0.0065  0.5546
 6923TIP3    H144964   0.852   6.195   0.368  0.4682 -1.2047  0.8990
 6923TIP3    H244965   0.745   6.182   0.474  0.2576 -0.1534  0.8196
 6924TIP3   OH244966   3.260   5.657   1.627 -0.3080 -0.0386 -0.6091
 6924TIP3    H144967   3.241   5.734   1.679  0.0319 -0.0868 -0.4128
 6924TIP3    H244968   3.241   5.683   1.537 -0.0361  0.3249 -0.5614
 6925TIP3   OH244969   3.261   5.518   8.305 -0.6197  0.3733  0.3428
 6925TIP3    H144970   3.267   5.500   8.211  0.2023  1.1046  0.2405
 6925TIP3    H244971   3.196   5.588   8.312 -1.1669 -0.1303  0.3934
 6926TIP3   OH244972   6.821   3.961   2.036 -0.4476 -0.2963  0.4078
 6926TIP3    H144973   6.733   3.926   2.025 -1.0803  1.2959  0.2021
 6926TIP3    H244974   6.869   3.928   1.960 -1.5253  0.7287 -0.7631
 6927TIP3   OH244975   3.263   3.147   1.657  1.2177 -0.6181 -0.3144
 6927TIP3    H144976   3.195   3.085   1.630  1.6574 -1.1216 -0.2866
 6927TIP3    H244977   3.272   3.133   1.751 -1.4435  2.2514  0.5208
 6928TIP3   OH244978   2.658   4.951   0.550  0.0612  0.0866 -0.1752
 6928TIP3    H144979   2.650   4.948   0.646  1.1019 -1.0129 -0.0977
 6928TIP3    H244980   2.748   4.925   0.533 -0.2898 -0.3372 -1.4884
 6929TIP3   OH244981   4.314   2.934   8.837 -0.2412 -0.0127 -0.3803
 6929TIP3    H144982   4.383   2.995   8.810  0.5545 -1.3965 -1.6336
 6929TIP3    H244983   4.238   2.958   8.784  0.4733 -0.9140 -1.8798
 6930TIP3   OH244984   5.995   6.678   1.025 -0.0254 -0.1844  0.5193
 6930TIP3    H144985   6.059   6.678   0.954 -2.4234  1.6239 -1.8406
 6930TIP3    H244986   6.030   6.741   1.089  0.4737  0.9793 -0.8402
 6931TIP3   OH244987   4.482   3.572   9.653  0.3502 -0.3098 -0.4752
 6931TIP3    H144988   4.557   3.549   9.707  0.0826 -0.4604 -0.1596
 6931TIP3    H244989   4.464   3.663   9.673  0.2153 -0.3817 -0.2604
 6932TIP3   OH244990   4.144   3.901   1.752 -0.0543 -0.3109  0.3283
 6932TIP3    H144991   4.193   3.879   1.673 -0.7359  1.2141 -0.5813
 6932TIP3    H244992   4.071   3.955   1.720 -1.4480 -1.2260  1.7921
 6933TIP3   OH244993   5.781   0.935   6.862  0.4420  0.3115 -0.0582
 6933TIP3    H144994   5.750   0.851   6.828 -2.8620  0.5674  1.8425
 6933TIP3    H244995   5.778   0.995   6.787 -0.0571 -0.6100 -0.7941
 6934TIP3   OH244996   2.565   7.063   8.626 -0.8287  0.2921 -0.0263
 6934TIP3    H144997   2.595   7.129   8.563  3.0770 -2.4115 -1.3263
 6934TIP3    H244998   2.525   6.995   8.572  1.0628 -1.2872  0.4506
 6935TIP3   OH244999   2.978   4.799   2.707  0.1519 -0.2799 -0.2504
 6935TIP3    H145000   3.020   4.809   2.622 -0.4318 -0.6894 -0.5955
 6935TIP3    H245001   3.037   4.843   2.768  0.7850 -0.3390 -0.8027
 6936TIP3   OH245002   5.917   4.679   7.407 -0.6248 -0.0529  0.2267
 6936TIP3    H145003   5.871   4.737   7.347 -0.4208 -0.7810 -0.6637
 6936TIP3    H245004   5.973   4.626   7.350 -1.6186 -1.8820  0.8838
 6937TIP3   OH245005   5.851   4.669   9.024 -0.1130 -0.7049 -0.0659
 6937TIP3    H145006   5.907   4.656   8.947 -0.4713  0.3435 -0.5151
 6937TIP3    H245007   5.836   4.580   9.057  0.7805 -1.1009 -0.6720
 6938TIP3   OH245008   1.294   2.829   2.665  0.0493 -0.0355 -0.2940
 6938TIP3    H145009   1.381   2.792   2.676  0.0634  0.1350  0.1737
 6938TIP3    H245010   1.235   2.759   2.694 -0.0706 -0.9257 -2.5188
 6939TIP3   OH245011   4.862   6.270   9.856  0.0332  0.2783 -0.0133
 6939TIP3    H145012   4.774   6.264   9.893  0.7353 -1.4288  1.5474
 6939TIP3    H245013   4.856   6.339   9.791 -2.9312 -0.9906 -1.2709
 6940TIP3   OH245014   2.397   1.957   7.686  0.5131  0.1817  0.2022
 6940TIP3    H145015   2.411   1.870   7.724 -0.5515 -0.1119 -0.0477
 6940TIP3    H245016   2.400   2.017   7.761  0.1923 -0.1908  0.5155
 6941TIP3   OH245017   2.968   0.448   9.557 -1.2151  0.0545  0.2671
 6941TIP3    H145018   2.963   0.523   9.498  0.2955  0.0570  0.1067
 6941TIP3    H245019   2.998   0.484   9.640 -2.0431 -0.1494  0.6659
 6942TIP3   OH245020   3.863   0.105   6.919  0.6838 -0.4293  0.3901
 6942TIP3    H145021   3.784   0.127   6.967  0.8007  1.0283 -0.0443
 6942TIP3    H245022   3.888   0.018   6.952 -0.8900 -0.7658  0.7670
 6943TIP3   OH245023   2.672   5.886   2.204 -0.7738 -0.0967  0.0366
 6943TIP3    H145024   2.598   5.924   2.156 -1.2638 -0.5363  0.4406
 6943TIP3    H245025   2.666   5.923   2.292  0.3329  0.9905 -0.3112
 6944TIP3   OH245026   6.395   2.350   8.988  0.4113  0.1229 -0.1330
 6944TIP3    H145027   6.388   2.280   8.923  0.4390 -0.4034  0.4263
 6944TIP3    H245028   6.329   2.414   8.961  1.3666  0.5809 -1.4879
 6945TIP3   OH245029   4.223   6.645   8.163 -0.0073  0.0159  0.2990
 6945TIP3    H145030   4.260   6.730   8.184 -0.0688 -0.6514  3.4960
 6945TIP3    H245031   4.226   6.596   8.245 -1.6506 -2.4461 -0.9896
 6946TIP3   OH245032   0.543   6.775   8.179  0.6489  0.3544 -0.6210
 6946TIP3    H145033   0.501   6.732   8.104  3.3717 -1.3397 -1.3044
 6946TIP3    H245034   0.474   6.831   8.216 -2.1180 -2.0495 -1.7276
 6947TIP3   OH245035   2.489   6.929   9.368 -0.0127  0.6088  0.0643
 6947TIP3    H145036   2.445   6.959   9.288 -0.5685  0.6953  0.4011
 6947TIP3    H245037   2.489   7.006   9.425  0.4524  0.5673  0.1251
 6948TIP3   OH245038   1.717   4.426   8.148 -0.2291 -0.1265  0.4976
 6948TIP3    H145039   1.735   4.359   8.214 -2.0161  0.6203  1.8420
 6948TIP3    H245040   1.627   4.408   8.120  0.4078 -0.2486 -1.5631
 6949TIP3   OH245041   6.924   1.700   1.432  0.0171  0.0726 -0.2782
 6949TIP3    H145042   6.894   1.647   1.507 -1.0322 -1.7482 -1.8837
 6949TIP3    H245043   6.844   1.716   1.382  0.6855  1.3486 -0.9611
 6950TIP3   OH245044   7.119   4.313   1.688 -0.1905  0.5047 -0.0246
 6950TIP3    H145045   7.137   4.407   1.688  0.9946  0.3016 -0.4233
 6950TIP3    H245046   7.041   4.303   1.742  1.0166  1.4648  2.0304
 6951TIP3   OH245047   1.326   6.867   9.859  0.1916  0.8184  0.1702
 6951TIP3    H145048   1.356   6.777   9.867 -0.6192  0.5154 -0.0626
 6951TIP3    H245049   1.376   6.902   9.785 -0.7032  0.0075 -0.8690
 6952TIP3   OH245050   0.683   4.175   8.583  0.1585 -0.1376 -0.1456
 6952TIP3    H145051   0.593   4.200   8.603 -0.5393 -2.2884 -0.2810
 6952TIP3    H245052   0.730   4.184   8.666 -0.2348  0.7929 -0.0231
 6953TIP3   OH245053   3.249   3.026   0.211 -0.7681 -0.0739 -0.8989
 6953TIP3    H145054   3.219   3.069   0.291 -0.8126 -0.6345 -0.6135
 6953TIP3    H245055   3.344   3.039   0.210 -0.7492 -0.1936 -0.6788
 6954TIP3   OH245056   1.835   4.905   9.322 -0.1036 -0.2241  0.0195
 6954TIP3    H145057   1.828   4.811   9.306 -1.5026  0.0092 -0.9103
 6954TIP3    H245058   1.859   4.912   9.414 -1.0618 -1.4711  0.3785
 6955TIP3   OH245059   3.985   5.109   9.349  0.3708 -0.1266 -0.8090
 6955TIP3    H145060   3.967   5.016   9.356 -1.5462  0.1903 -1.0359
 6955TIP3    H245061   4.002   5.123   9.256 -0.3337 -0.1054 -0.9401
 6956TIP3   OH245062   1.458   4.633   8.136 -0.0010  0.0249  0.2729
 6956TIP3    H145063   1.490   4.544   8.121  0.1773  0.1973 -0.4464
 6956TIP3    H245064   1.365   4.630   8.112  0.3247  0.3422 -1.1775
 6957TIP3   OH245065   0.415   6.045   2.809 -0.0488 -0.4414  0.4312
 6957TIP3    H145066   0.510   6.040   2.813 -0.0706 -2.8883 -0.5272
 6957TIP3    H245067   0.397   6.121   2.753  1.2155  1.4467  2.4374
 6958TIP3   OH245068   4.311   3.301   9.056 -0.3100  0.4006  0.3760
 6958TIP3    H145069   4.317   3.314   9.150 -0.4691  0.7348  0.3445
 6958TIP3    H245070   4.323   3.207   9.043  3.0383  0.7158  0.4464
 6959TIP3   OH245071   2.009   6.282   0.848 -0.5907 -0.1800  0.5177
 6959TIP3    H145072   1.986   6.237   0.767 -1.0152  0.4272  0.2966
 6959TIP3    H245073   2.104   6.275   0.853 -0.5029  0.2953 -0.3385
 6960TIP3   OH245074   1.219   0.626   1.789 -0.2687 -0.5406  0.8060
 6960TIP3    H145075   1.252   0.559   1.848 -0.5323 -2.1630 -0.8160
 6960TIP3    H245076   1.137   0.591   1.755 -0.0304  0.2535 -0.6759
 6961TIP3   OH245077   4.438   6.787   0.323 -0.0982  0.1318 -0.1868
 6961TIP3    H145078   4.502   6.846   0.363  1.4926 -2.0139  0.6307
 6961TIP3    H245079   4.371   6.775   0.390  0.8749 -0.8828  0.6536
 6962TIP3   OH245080   6.137   0.451   1.459 -0.5019  0.1050  0.0230
 6962TIP3    H145081   6.076   0.404   1.515  0.2870 -0.2146  0.6285
 6962TIP3    H245082   6.213   0.393   1.452  0.3410  1.1327  0.4885
 6963TIP3   OH245083   2.042   4.520   1.619 -0.1263  0.2520  0.4288
 6963TIP3    H145084   1.967   4.563   1.659 -1.1067 -2.0275  1.2087
 6963TIP3    H245085   2.005   4.445   1.572  1.7030 -1.8114  2.0755
 6964TIP3   OH245086   6.647   6.875   0.651  0.4763 -0.3455  0.3510
 6964TIP3    H145087   6.639   6.795   0.599 -1.3989 -0.4878  0.8076
 6964TIP3    H245088   6.742   6.887   0.662  0.8134 -1.9158 -0.6034
 6965TIP3   OH245089   3.330   5.283   0.644  0.0620  0.0511  0.0312
 6965TIP3    H145090   3.358   5.192   0.633 -0.0347  0.0452 -0.1681
 6965TIP3    H245091   3.408   5.327   0.679 -0.0877 -0.2386  0.7526
 6966TIP3   OH245092   2.955   3.917   2.428 -0.4233  0.4008 -0.3189
 6966TIP3    H145093   3.040   3.959   2.434 -0.9173  1.4941 -0.7423
 6966TIP3    H245094   2.906   3.969   2.364 -1.0966 -0.7598 -0.7886
 6967TIP3   OH245095   1.570   6.780   0.670 -0.2246  0.4657  0.7745
 6967TIP3    H145096   1.490   6.815   0.710  0.1088  2.1733  0.0537
 6967TIP3    H245097   1.623   6.858   0.652  2.4702 -0.7072  2.9186
 6968TIP3   OH245098   2.511   4.242   9.894  0.0305  0.0910  0.5321
 6968TIP3    H145099   2.448   4.302   9.855  0.2217  0.3462  0.6067
 6968TIP3    H245100   2.584   4.240   9.832 -0.2915 -0.6545  0.1613
 6969TIP3   OH245101   1.479   4.693   8.852  0.1888  0.0282 -0.3829
 6969TIP3    H145102   1.486   4.632   8.925 -0.3754 -0.8969 -1.0857
 6969TIP3    H245103   1.484   4.780   8.893 -1.7378 -0.4276  0.9519
 6970TIP3   OH245104   7.204   2.845   0.696  0.4786 -0.6007  0.2909
 6970TIP3    H145105   7.168   2.808   0.615 -1.4668 -0.8695  1.2022
 6970TIP3    H245106   7.236   2.769   0.744 -2.1741 -1.0708  1.5169
 6971TIP3   OH245107   3.651   4.461   2.143  0.8701 -0.0027 -0.3386
 6971TIP3    H145108   3.719   4.472   2.210  0.1680  0.1321  0.3647
 6971TIP3    H245109   3.584   4.407   2.185  0.1848  0.5038 -0.7504
 6972TIP3   OH245110   0.866   2.046   1.692 -0.5603 -0.2694  0.0679
 6972TIP3    H145111   0.844   2.129   1.733  1.2578  2.0334 -3.1394
 6972TIP3    H245112   0.796   2.031   1.629 -0.2818 -0.5402 -0.1810
 6973TIP3   OH245113   5.131   5.397   1.443 -0.1701 -0.1529  0.1763
 6973TIP3    H145114   5.053   5.440   1.407 -0.7454  0.0809  1.6268
 6973TIP3    H245115   5.197   5.404   1.374 -1.6778 -1.1404 -1.4545
 6974TIP3   OH245116   0.469   5.303   1.552  0.3180  0.8369 -1.2554
 6974TIP3    H145117   0.477   5.380   1.608 -1.3990  0.8469 -0.9678
 6974TIP3    H245118   0.511   5.233   1.601 -0.0883  1.1107 -0.4997
 6975TIP3   OH245119   6.835   1.238   0.147 -0.4681 -0.6842 -0.5552
 6975TIP3    H145120   6.844   1.143   0.147  1.3352 -0.5352 -0.4610
 6975TIP3    H245121   6.830   1.262   0.239  0.0953 -0.6045 -0.5449
 6976TIP3   OH245122   0.219   0.763   0.391  0.3116  0.2776 -0.2538
 6976TIP3    H145123   0.179   0.719   0.316  0.3827 -1.0908  0.4654
 6976TIP3    H245124   0.160   0.834   0.413 -1.8516 -1.7084  0.8154
 6977TIP3   OH245125   6.959   0.151   0.653  0.1384  0.1705 -0.0195
 6977TIP3    H145126   6.869   0.180   0.666  0.5330  1.6950 -0.5180
 6977TIP3    H245127   6.954   0.087   0.582 -0.5071  0.4714 -0.2524
 6978TIP3   OH245128   6.385   2.894   0.545 -0.1436  0.4982 -0.0379
 6978TIP3    H145129   6.308   2.850   0.581 -1.6322  1.2756 -2.0884
 6978TIP3    H245130   6.449   2.892   0.616 -0.7874 -3.2056  0.6445
 6979TIP3   OH245131   1.888   1.491   8.428  0.3518 -0.2436 -0.0312
 6979TIP3    H145132   1.942   1.539   8.365  0.3205  0.6234  0.5745
 6979TIP3    H245133   1.804   1.478   8.384 -0.4747  2.3471  0.5578
 6980TIP3   OH245134   2.254   4.553   1.388  0.2025  0.0964  0.3940
 6980TIP3    H145135   2.324   4.585   1.331  0.9166 -0.9213  0.6817
 6980TIP3    H245136   2.198   4.502   1.329 -1.3496  2.3753 -0.2242
 6981TIP3   OH245137   1.160   5.669   0.678  0.1082 -0.0948  0.1245
 6981TIP3    H145138   1.091   5.695   0.739  0.3657 -0.2081  0.4632
 6981TIP3    H245139   1.208   5.750   0.660  0.3910 -0.1741  0.5240
 6982TIP3   OH245140   5.328   4.224   9.679  0.0287  0.6036 -0.0951
 6982TIP3    H145141   5.358   4.311   9.655  2.6127 -0.5255 -1.2469
 6982TIP3    H245142   5.407   4.171   9.683 -1.3198 -1.4645  1.7686
 6983TIP3   OH245143   5.250   3.248   0.019 -0.1847 -0.0587 -0.2102
 6983TIP3    H145144   5.299   3.325  -0.008  1.8975 -0.7604  1.3332
 6983TIP3    H245145   5.160   3.278   0.027  0.7006  2.4631  1.2554
 6984TIP3   OH245146   5.787   6.854   0.522  0.0339  0.0344  0.0013
 6984TIP3    H145147   5.748   6.769   0.544  0.5119 -0.1328  0.2022
 6984TIP3    H245148   5.840   6.877   0.598  1.1014 -0.1924 -0.6608
 6985TIP3   OH245149   3.058   0.282   6.939  0.0071 -0.0908  0.1965
 6985TIP3    H145150   3.063   0.194   6.903 -0.1073  0.5181 -1.3848
 6985TIP3    H245151   3.013   0.333   6.872 -0.6008  1.0259  1.3888
 6986TIP3   OH245152   4.210   1.873   9.638  0.0731 -0.4782  0.6321
 6986TIP3    H145153   4.300   1.885   9.607 -0.1628 -0.0735  0.0784
 6986TIP3    H245154   4.218   1.818   9.716  0.7616 -0.8182  0.3279
 6987TIP3   OH245155   3.762   0.890   2.430  0.4782 -0.4432 -0.1413
 6987TIP3    H145156   3.803   0.803   2.425 -0.7227 -1.0054 -0.8420
 6987TIP3    H245157   3.715   0.890   2.513  0.6924 -0.3721 -0.0216
 6988TIP3   OH245158   0.296   3.224   9.553 -0.1515 -0.1028  0.2837
 6988TIP3    H145159   0.205   3.246   9.538 -0.2289  0.6519  1.7002
 6988TIP3    H245160   0.345   3.300   9.523 -0.1653  0.4730  1.6506
 6989TIP3   OH245161   0.504   3.091   6.930  0.4920 -0.5035 -0.1988
 6989TIP3    H145162   0.575   3.132   6.979  0.5789  0.1665 -0.8721
 6989TIP3    H245163   0.544   3.062   6.849  0.4921 -2.2053  0.3823
 6990TIP3   OH245164   6.159   6.764   7.779 -0.4475  0.6626  0.6369
 6990TIP3    H145165   6.163   6.858   7.793 -0.0453  0.6998  0.3015
 6990TIP3    H245166   6.172   6.726   7.865 -0.4712  0.9099  0.7510
 6991TIP3   OH245167   4.263   1.633   9.139  0.5711  0.0362  0.4764
 6991TIP3    H145168   4.198   1.610   9.205  1.0041  0.5875  1.1164
 6991TIP3    H245169   4.309   1.709   9.176  0.5688  0.6049 -0.6289
 6992TIP3   OH245170   1.562   5.055   6.741 -0.3157 -0.0846  0.2593
 6992TIP3    H145171   1.590   5.002   6.816  0.5260  0.0099  0.0132
 6992TIP3    H245172   1.642   5.076   6.694 -0.7335  0.6815 -0.1379
 6993TIP3   OH245173   5.224   5.888   1.784  0.1490 -0.2319 -0.8057
 6993TIP3    H145174   5.200   5.831   1.856 -0.3474  0.7456 -0.1766
 6993TIP3    H245175   5.145   5.894   1.730 -0.6518  1.8097  0.4765
 6994TIP3   OH245176   0.081   3.710   0.383 -0.9752 -0.1943 -0.2321
 6994TIP3    H145177   0.050   3.662   0.306  0.5173 -2.0730  0.2437
 6994TIP3    H245178   0.061   3.652   0.456  0.0018  0.3429  0.4831
 6995TIP3   OH245179   0.616   4.174   0.622 -0.3398 -0.3858 -0.2948
 6995TIP3    H145180   0.703   4.145   0.594 -0.9002 -1.1179 -1.3850
 6995TIP3    H245181   0.617   4.269   0.609 -0.2256 -0.5753 -1.8791
 6996TIP3   OH245182   6.631   3.159   1.431 -0.3880  0.2313 -0.0295
 6996TIP3    H145183   6.697   3.120   1.489  1.1153 -1.9962 -2.9355
 6996TIP3    H245184   6.548   3.122   1.462  0.2460 -0.2945  1.1395
 6997TIP3   OH245185   5.205   7.232   9.911  0.2043  0.7715  0.2317
 6997TIP3    H145186   5.262   7.224   9.988  0.3849 -0.8559 -0.0451
 6997TIP3    H245187   5.212   7.148   9.867  0.0741  1.6556 -1.5667
 6998TIP3   OH245188   1.931   6.538   2.852 -0.1179 -0.0310 -0.1251
 6998TIP3    H145189   1.967   6.564   2.937 -1.5345  2.0233 -0.0695
 6998TIP3    H245190   1.849   6.493   2.873 -0.3569  0.2776 -0.3881
 6999TIP3   OH245191   4.108   3.785   8.029  0.0392  0.0513  0.6503
 6999TIP3    H145192   4.124   3.786   8.123  0.4663 -1.4674  0.6215
 6999TIP3    H245193   4.195   3.779   7.989 -0.1674  0.0104  0.1932
 7000TIP3   OH245194   0.540   5.996   0.877  0.5616  0.2914  0.0680
 7000TIP3    H145195   0.568   6.087   0.868 -1.2300  0.8898  0.0146
 7000TIP3    H245196   0.454   5.994   0.835  0.2236 -1.2467  0.7671
 7001TIP3   OH245197   3.250   1.499   2.185 -0.0288  0.5082  0.0596
 7001TIP3    H145198   3.329   1.546   2.213 -0.9699  2.9487 -1.0686
 7001TIP3    H245199   3.189   1.508   2.258  0.7040 -1.4677  0.9739
 7002TIP3   OH245200   0.020   3.006   9.663  0.0552 -0.1089  0.2400
 7002TIP3    H145201  -0.063   3.025   9.618  0.1715 -1.7504 -0.7821
 7002TIP3    H245202   0.023   2.910   9.665  2.4926 -0.1088 -0.8181
 7003TIP3   OH245203   1.572   0.662   0.961 -0.0704  0.1876 -0.0489
 7003TIP3    H145204   1.503   0.596   0.958 -1.8335  1.9405 -2.0159
 7003TIP3    H245205   1.525   0.744   0.980  1.8502  1.0887  1.0976
 7004TIP3   OH245206   5.077   2.652   2.072  0.5372 -0.5331  0.1705
 7004TIP3    H145207   5.004   2.591   2.062  1.8472 -2.2405  0.5413
 7004TIP3    H245208   5.073   2.682   2.162  2.0510 -3.1056  1.1955
 7005TIP3   OH245209   4.988   6.230   0.872 -0.3902  0.3398 -0.4747
 7005TIP3    H145210   4.970   6.208   0.963 -1.8422 -0.0027 -0.8243
 7005TIP3    H245211   5.050   6.304   0.877  1.6054 -1.3073  0.7275
 7006TIP3   OH245212   0.519   5.220   9.841  0.1523 -0.5297  0.3519
 7006TIP3    H145213   0.576   5.289   9.875 -2.1377  0.9903  1.3904
 7006TIP3    H245214   0.508   5.160   9.915  2.1511 -2.1386 -0.5548
 7007TIP3   OH245215   3.766   4.800   1.228  0.1989  0.0606  0.2470
 7007TIP3    H145216   3.772   4.857   1.305  1.5152 -1.2889  1.2051
 7007TIP3    H245217   3.684   4.825   1.185  1.1637  3.3028  0.0656
 7008TIP3   OH245218   0.881   5.677   8.969 -0.0131  0.1693 -0.2657
 7008TIP3    H145219   0.853   5.758   9.013 -1.2700 -0.5729  0.3574
 7008TIP3    H245220   0.945   5.638   9.029  0.9119  0.8778 -0.7601
 7009TIP3   OH245221   2.902   4.070   0.878  0.4283  0.2831 -0.2062
 7009TIP3    H145222   2.929   4.139   0.939 -1.5262  1.3606 -0.5009
 7009TIP3    H245223   2.866   4.001   0.935  0.0286  0.6203 -0.0484
 7010TIP3   OH245224   2.739   2.409   8.946  0.7328  0.5109  0.2804
 7010TIP3    H145225   2.723   2.502   8.932  0.3532  0.1961 -1.5185
 7010TIP3    H245226   2.654   2.367   8.933  1.5144 -0.4259 -2.4401
 7011TIP3   OH245227   1.910   4.760   1.990 -0.1869  0.2988  0.2969
 7011TIP3    H145228   1.921   4.848   2.025 -1.0565  1.0519 -1.2317
 7011TIP3    H245229   1.838   4.722   2.040 -1.7102  1.5194 -0.8552
 7012TIP3   OH245230   1.730   0.861   8.388  0.3241 -0.2407 -0.3091
 7012TIP3    H145231   1.721   0.816   8.472  1.6735  1.6775  0.9647
 7012TIP3    H245232   1.756   0.793   8.326 -0.1196 -1.6032  0.9446
 7013TIP3   OH245233   6.261   2.710   9.692  0.3582  0.6812 -0.1781
 7013TIP3    H145234   6.177   2.734   9.730  0.4823  1.1362 -0.1823
 7013TIP3    H245235   6.263   2.755   9.608  0.7953  1.0430  0.0207
 7014TIP3   OH245236   4.394   1.817   9.284 -0.2317  0.0201  0.2825
 7014TIP3    H145237   4.461   1.873   9.246  1.5072 -2.1366 -0.0378
 7014TIP3    H245238   4.410   1.821   9.379 -1.1774  1.2871  0.4124
 7015TIP3   OH245239   3.821   2.882   2.175 -0.1658  0.6039  0.3605
 7015TIP3    H145240   3.824   2.918   2.086 -1.5671  1.9515  0.7976
 7015TIP3    H245241   3.735   2.908   2.208 -0.2128 -1.0346  1.6554
 7016TIP3   OH245242   1.576   6.035   7.219 -0.2945 -0.1965  0.2111
 7016TIP3    H145243   1.501   6.031   7.160 -0.1222 -1.8822  0.0426
 7016TIP3    H245244   1.537   6.032   7.307 -0.5275  1.8446  0.2199
 7017TIP3   OH245245   0.013   0.898   8.704  0.1712  0.5723 -0.6158
 7017TIP3    H145246   0.089   0.880   8.759  0.2492  0.5737 -0.7221
 7017TIP3    H245247  -0.044   0.822   8.716  1.3060 -0.6442 -2.4556
 7018TIP3   OH245248   0.026   3.929   1.988  0.2650 -0.9234 -0.3771
 7018TIP3    H145249   0.089   3.982   1.939  0.2802 -0.2391  0.3754
 7018TIP3    H245250  -0.055   3.980   1.986 -0.0553 -1.4322 -0.6585
 7019TIP3   OH245251   2.216   6.494   1.005  0.4669  0.3756  0.1439
 7019TIP3    H145252   2.130   6.472   0.969  0.0738  0.6897  0.8547
 7019TIP3    H245253   2.265   6.530   0.931  0.4425 -1.0197 -0.5746
 7020TIP3   OH245254   2.993   3.937   1.383  0.3611 -0.0965  0.3408
 7020TIP3    H145255   2.962   3.895   1.463 -1.0473  0.6574  0.2358
 7020TIP3    H245256   2.914   3.975   1.344  1.3472  1.4066 -0.2894
 7021TIP3   OH245257   1.162   1.171   0.410 -0.6998 -0.8286  0.0777
 7021TIP3    H145258   1.221   1.115   0.459 -0.7847 -1.7695 -0.8493
 7021TIP3    H245259   1.082   1.176   0.463  0.0259  0.0826  1.1155
 7022TIP3   OH245260   7.164   5.585   1.769  0.2384 -0.6853 -0.4541
 7022TIP3    H145261   7.091   5.534   1.804 -1.2823  0.3879 -1.9316
 7022TIP3    H245262   7.133   5.675   1.769  2.5753  0.2011  1.3381
 7023TIP3   OH245263   5.809   0.407   9.353 -1.1617 -0.1738  0.0038
 7023TIP3    H145264   5.870   0.337   9.329 -0.0952  0.3429  1.0756
 7023TIP3    H245265   5.846   0.486   9.314 -1.1934  0.1242  0.5581
 7024TIP3   OH245266   3.706   6.723   7.521 -0.2893 -0.2449  0.1285
 7024TIP3    H145267   3.767   6.772   7.576  0.0333 -0.4296 -0.0654
 7024TIP3    H245268   3.727   6.750   7.432 -0.8329  0.0773  0.0944
 7025TIP3   OH245269   5.747   2.117   0.070 -0.5060 -0.4071  0.0013
 7025TIP3    H145270   5.832   2.073   0.077 -0.7924 -0.7722  1.7482
 7025TIP3    H245271   5.718   2.126   0.161 -2.3567 -0.3430 -0.5608
 7026TIP3   OH245272   1.030   6.352   9.285  0.6300 -0.0019  0.2428
 7026TIP3    H145273   1.028   6.379   9.193 -2.4068  0.8552  0.4437
 7026TIP3    H245274   1.078   6.421   9.330  1.9151 -0.2948 -0.6452
 7027TIP3   OH245275   4.988   0.921   2.447 -0.3217  0.0255 -0.2610
 7027TIP3    H145276   4.913   0.966   2.484 -1.0252  0.0333 -1.6380
 7027TIP3    H245277   5.050   0.914   2.519 -2.4487 -1.8658  1.5621
 7028TIP3   OH245278   1.588   6.461   1.804 -0.1406  1.2995  0.2006
 7028TIP3    H145279   1.680   6.446   1.784  0.2013  3.0611  0.2525
 7028TIP3    H245280   1.549   6.374   1.810  1.8531  0.4386  1.7557
 7029TIP3   OH245281   0.147   5.052   0.924  0.4802  0.0088 -0.4349
 7029TIP3    H145282   0.103   5.043   1.008  1.0965 -1.0999 -0.2062
 7029TIP3    H245283   0.092   5.111   0.873 -0.0005  0.5292  0.6768
 7030TIP3   OH245284   1.070   4.215   1.307 -0.6772  0.0012  0.3011
 7030TIP3    H145285   0.987   4.181   1.341 -0.7004  0.9694  1.2704
 7030TIP3    H245286   1.048   4.249   1.220 -1.4319  0.7106  0.7473
 7031TIP3   OH245287   5.636   6.821   7.848  0.2403  0.5310 -0.7440
 7031TIP3    H145288   5.615   6.757   7.916 -0.0205  1.6963  0.3059
 7031TIP3    H245289   5.708   6.872   7.885 -1.8527  3.1570  0.0034
 7032TIP3   OH245290   6.195   6.973   9.251  0.0299 -0.1044 -0.4642
 7032TIP3    H145291   6.178   7.017   9.168 -1.1059  0.1688 -0.1009
 7032TIP3    H245292   6.260   6.906   9.229  0.2104  0.3641 -1.4385
 7033TIP3   OH245293   6.408   0.865   9.405  0.2405  0.3731 -0.2832
 7033TIP3    H145294   6.343   0.831   9.343  1.8087 -0.5057 -1.5124
 7033TIP3    H245295   6.442   0.788   9.450 -0.5572  0.9592  1.4458
 7034TIP3   OH245296   0.990   7.048   2.266  0.6496 -0.1219 -0.6364
 7034TIP3    H145297   1.085   7.052   2.262  0.7188 -0.0119  0.6182
 7034TIP3    H245298   0.961   7.137   2.248  0.7811 -0.1368 -0.9296
 7035TIP3   OH245299   5.787   6.065   1.000 -0.0969  0.2864 -0.5762
 7035TIP3    H145300   5.766   6.151   1.035 -1.2518 -0.5507  0.8960
 7035TIP3    H245301   5.718   6.048   0.935 -0.0617  0.3340 -0.6258
 7036TIP3   OH245302   3.040   4.504   9.068 -0.3009 -0.4110  0.3429
 7036TIP3    H145303   3.042   4.596   9.044 -0.8324 -0.5039 -0.0843
 7036TIP3    H245304   3.121   4.468   9.032 -0.6668 -0.3593 -0.5775
 7037TIP3   OH245305   0.235   6.247   8.053  0.5381  0.7749  0.4504
 7037TIP3    H145306   0.280   6.292   7.982 -0.8396 -0.0499 -1.0165
 7037TIP3    H245307   0.299   6.242   8.123  3.4664 -1.9147 -2.0970
 7038TIP3   OH245308   4.168   0.402   0.403 -0.4330  0.5405 -0.1492
 7038TIP3    H145309   4.147   0.308   0.403  2.0146 -0.1018  1.0152
 7038TIP3    H245310   4.160   0.428   0.495  1.5307  0.7601 -0.0068
 7039TIP3   OH245311   6.688   4.018   9.405  0.3863  0.4870 -0.4582
 7039TIP3    H145312   6.706   3.924   9.400 -1.3589  0.0875  0.1836
 7039TIP3    H245313   6.696   4.048   9.314  1.6373 -0.1303 -0.5698
 7040TIP3   OH245314   0.624   5.264   1.072  0.0029  0.4056 -0.2406
 7040TIP3    H145315   0.629   5.224   0.985 -0.5303  0.4222 -0.2805
 7040TIP3    H245316   0.532   5.285   1.083  0.2733  1.6928 -0.2536
 7041TIP3   OH245317   1.128   5.910   0.916 -0.2640  0.5801 -0.2802
 7041TIP3    H145318   1.138   5.951   0.830 -0.0396 -0.4412 -0.7535
 7041TIP3    H245319   1.061   5.843   0.903 -3.2182  2.9819  1.3063
 7042TIP3   OH245320   5.934   6.637   8.079  0.0754  0.5829 -0.7410
 7042TIP3    H145321   5.863   6.629   8.142  1.9493 -0.8809  1.3618
 7042TIP3    H245322   5.990   6.706   8.115  0.3082  0.9641 -1.7785
 7043TIP3   OH245323   6.295   3.485   8.195  0.4216  0.0978 -0.4582
 7043TIP3    H145324   6.334   3.488   8.282  0.5240 -1.4586 -0.4186
 7043TIP3    H245325   6.368   3.492   8.134  0.5893 -0.9859 -0.3938
 7044TIP3   OH245326   4.135   2.295   0.802  0.0120  0.1573  0.3421
 7044TIP3    H145327   4.094   2.380   0.792  0.9214  0.5763  0.0196
 7044TIP3    H245328   4.169   2.295   0.892  1.8881  1.0373 -0.2980
 7045TIP3   OH245329   6.859   3.671   1.272  0.1758  0.1118  0.4579
 7045TIP3    H145330   6.855   3.762   1.303 -0.9053 -0.4984  2.2884
 7045TIP3    H245331   6.803   3.669   1.195  0.0297  0.9503  0.5357
 7046TIP3   OH245332   6.961   0.707   0.887 -0.2730 -0.1121 -0.4135
 7046TIP3    H145333   7.021   0.705   0.962 -2.7168 -1.4347  1.6682
 7046TIP3    H245334   6.988   0.633   0.833  0.3397 -0.3352  0.1721
 7047TIP3   OH245335   3.668   5.578   1.293  0.5154  0.9408  0.5604
 7047TIP3    H145336   3.704   5.532   1.218  1.4797  0.6244  1.1895
 7047TIP3    H245337   3.576   5.591   1.272  0.5670  0.0610 -0.2761
 7048TIP3   OH245338   0.019   0.072   9.790 -0.0921 -0.7157 -0.0756
 7048TIP3    H145339   0.092   0.121   9.753  0.0071 -0.4557  0.4712
 7048TIP3    H245340   0.040   0.062   9.883 -0.7185 -0.6957  0.0720
 7049TIP3   OH245341   1.461   1.217   0.584 -0.1589  0.2881 -0.1172
 7049TIP3    H145342   1.407   1.151   0.541  2.8085 -1.6166 -1.2863
 7049TIP3    H245343   1.451   1.200   0.677  0.5734 -1.9801 -0.3916
 7050TIP3   OH245344   3.604   7.007   1.057  0.3344 -0.1222  0.1171
 7050TIP3    H145345   3.585   6.943   1.126 -1.8206  0.2780 -0.0311
 7050TIP3    H245346   3.645   7.080   1.103  0.3398 -0.4955  0.7192
 7051TIP3   OH245347   2.925   1.074   7.328 -0.0865  0.4075  0.3270
 7051TIP3    H145348   2.943   0.982   7.307  1.6033  0.4719  1.3058
 7051TIP3    H245349   2.869   1.070   7.406 -0.1244  0.2090  0.2909
 7052TIP3   OH245350   6.060   4.918   1.738 -0.2184 -0.5914 -0.1198
 7052TIP3    H145351   6.071   4.835   1.692 -0.5901  0.1948 -1.6841
 7052TIP3    H245352   6.145   4.935   1.777 -0.5288 -2.4304  1.5553
 7053TIP3   OH245353   2.197   3.777   8.081  0.5560 -0.3324  0.6285
 7053TIP3    H145354   2.263   3.831   8.125 -0.2870  0.6763  0.6689
 7053TIP3    H245355   2.161   3.834   8.013  0.8764 -1.4253 -0.4904
 7054TIP3   OH245356   5.157   6.216   2.557  0.5556 -0.2034  0.4182
 7054TIP3    H145357   5.180   6.139   2.504  1.6251  0.8253 -0.6973
 7054TIP3    H245358   5.216   6.212   2.632 -0.0628 -0.9741  0.8750
 7055TIP3   OH245359   0.338   2.445   0.222 -0.4618  0.5782  0.0459
 7055TIP3    H145360   0.400   2.374   0.203 -1.1197  0.1978 -0.7093
 7055TIP3    H245361   0.357   2.511   0.156 -0.0365  0.9951  0.5790
 7056TIP3   OH245362   5.401   1.937   0.683  0.1048 -0.2282 -0.0933
 7056TIP3    H145363   5.317   1.939   0.728  0.3344  1.1291  0.3027
 7056TIP3    H245364   5.459   1.890   0.742 -0.3299 -1.0685 -0.3160
 7057TIP3   OH245365   1.001   4.576   6.688  0.0942 -0.1050 -0.4002
 7057TIP3    H145366   0.940   4.598   6.617 -2.7307 -0.6542  1.6976
 7057TIP3    H245367   1.057   4.508   6.650 -1.8405 -0.9700 -1.9173
 7058TIP3   OH245368   7.038   0.681   9.555 -0.3829 -0.3590 -0.7347
 7058TIP3    H145369   6.993   0.678   9.470 -1.0240 -2.3453 -0.3799
 7058TIP3    H245370   7.093   0.603   9.556  0.2772  0.0968  0.3435
 7059TIP3   OH245371   0.353   1.227   7.316 -0.2545 -0.3697  0.4221
 7059TIP3    H145372   0.436   1.192   7.282 -1.5341 -2.0997 -1.1856
 7059TIP3    H245373   0.286   1.174   7.272 -2.1921 -0.0552  2.8077
 7060TIP3   OH245374   5.852   3.365   8.917 -0.0431  0.3523  0.4259
 7060TIP3    H145375   5.904   3.322   8.849 -1.4292 -1.1052  0.2116
 7060TIP3    H245376   5.888   3.453   8.923 -0.5941  0.9485 -3.0250
 7061TIP3   OH245377   3.977   5.994   8.938 -0.1207  0.6177  0.6836
 7061TIP3    H145378   3.995   6.025   8.849  2.9942 -0.5893  0.7481
 7061TIP3    H245379   3.961   5.900   8.928 -2.0100  0.8574  1.2138
 7062TIP3   OH245380   5.725   4.128   9.738  0.2881 -0.2770 -0.2738
 7062TIP3    H145381   5.685   4.110   9.824 -1.8565 -0.2799 -1.2054
 7062TIP3    H245382   5.803   4.073   9.736 -1.9807 -3.8633 -0.0309
 7063TIP3   OH245383   5.176   2.534   0.791  0.2523 -0.1018  0.1415
 7063TIP3    H145384   5.097   2.481   0.803  0.1562 -0.0829 -0.3671
 7063TIP3    H245385   5.175   2.557   0.698 -0.9350  2.6644  0.7346
 7064TIP3   OH245386   6.273   0.263   9.383  0.0603  0.4421 -0.3264
 7064TIP3    H145387   6.327   0.342   9.382 -0.5856  0.9764 -3.0090
 7064TIP3    H245388   6.331   0.193   9.353 -0.3084  0.7466 -1.8556
 7065TIP3   OH245389   4.792   1.276   8.016 -0.4546  0.2728 -0.5334
 7065TIP3    H145390   4.757   1.233   8.094  1.8729  0.5415  0.7706
 7065TIP3    H245391   4.738   1.355   8.006 -0.2817  0.6774  1.3593
 7066TIP3   OH245392   0.682   0.127   0.127 -0.4058 -0.4235 -0.1700
 7066TIP3    H145393   0.730   0.206   0.103 -0.3633 -0.9203 -1.7966
 7066TIP3    H245394   0.750   0.062   0.142 -0.5027 -0.5858 -0.4420
 7067TIP3   OH245395   6.335   5.577   1.033  0.3399 -0.3097 -0.0534
 7067TIP3    H145396   6.328   5.644   0.965 -0.4484 -0.6640 -0.3316
 7067TIP3    H245397   6.244   5.555   1.055  0.5889 -0.6425  0.6766
 7068TIP3   OH245398   5.698   4.723   1.625  0.0529  0.4023 -0.3390
 7068TIP3    H145399   5.730   4.793   1.683  1.0998  0.6930 -1.2364
 7068TIP3    H245400   5.715   4.755   1.537  0.4110 -0.9174 -0.7756
 7069TIP3   OH245401   2.766   6.466   9.622 -1.0794  0.5192  0.7661
 7069TIP3    H145402   2.708   6.390   9.611 -1.0399  0.5487  0.3291
 7069TIP3    H245403   2.735   6.529   9.557  0.7208 -0.2467 -0.9343
 7070TIP3   OH245404   5.445   6.995   0.460 -0.2077 -0.3595 -0.4745
 7070TIP3    H145405   5.424   7.008   0.553 -0.0245  1.1080 -0.6141
 7070TIP3    H245406   5.435   7.082   0.421 -0.1273 -0.9251 -1.8071
 7071TIP3   OH245407   3.729   4.659   1.943  0.3219 -0.4104  0.5286
 7071TIP3    H145408   3.825   4.667   1.941  0.3204 -0.0839  1.4335
 7071TIP3    H245409   3.712   4.600   2.016 -0.2039  0.2229  0.9269
 7072TIP3   OH245410   3.598   3.252   8.129  0.2344 -0.3287  0.2535
 7072TIP3    H145411   3.621   3.171   8.084  1.1316  0.1663 -0.2062
 7072TIP3    H245412   3.638   3.321   8.076 -1.5022  0.5177 -0.0091
 7073TIP3   OH245413   6.381   1.813   9.685 -1.0642  0.0941 -0.6090
 7073TIP3    H145414   6.476   1.797   9.687 -1.3545 -2.1371 -1.6428
 7073TIP3    H245415   6.350   1.783   9.770 -1.0294 -0.7183 -0.8766
 7074TIP3   OH245416   2.916   4.153   1.612  0.0359  0.8258  0.2980
 7074TIP3    H145417   2.891   4.189   1.527 -0.7349 -0.8356 -0.2248
 7074TIP3    H245418   2.856   4.193   1.674 -1.4075 -0.2072 -0.3942
 7075TIP3   OH245419   1.295   4.093   1.907 -0.3575  0.0521  0.2440
 7075TIP3    H145420   1.283   4.098   1.812 -0.3131  2.0883  0.3021
 7075TIP3    H245421   1.390   4.082   1.918 -0.4924 -1.4106  0.0454
 7076TIP3   OH245422   7.053   5.143   7.358  0.2716 -0.1474  0.2759
 7076TIP3    H145423   6.987   5.080   7.330  0.2794  0.9742 -2.4963
 7076TIP3    H245424   7.108   5.157   7.281  1.5168  1.7273  1.4215
 7077TIP3   OH245425   1.577   4.555   9.946 -0.4342  0.0461  0.3723
 7077TIP3    H145426   1.495   4.586   9.907  0.6040  0.7369 -1.4098
 7077TIP3    H245427   1.590   4.467   9.909  0.6600  0.7850 -1.1285
 7078TIP3   OH245428   2.629   0.202   0.749  0.0558 -0.0688 -0.1353
 7078TIP3    H145429   2.586   0.267   0.694 -1.4711  0.1403  1.2278
 7078TIP3    H245430   2.665   0.252   0.823 -2.1212 -0.7855  1.5282
 7079TIP3   OH245431   3.982   0.454   7.299 -0.1911 -0.2103 -0.0680
 7079TIP3    H145432   3.890   0.458   7.275 -0.1104 -1.6039 -0.7503
 7079TIP3    H245433   4.013   0.372   7.261  1.1441 -0.1539  0.8142
 7080TIP3   OH245434   0.381   5.513   6.846 -1.0164 -0.4655  0.5924
 7080TIP3    H145435   0.475   5.501   6.829 -0.9279 -0.6121  1.1695
 7080TIP3    H245436   0.363   5.602   6.816 -1.3551 -1.4026 -2.3210
 7081TIP3   OH245437   7.008   6.921   2.176 -0.4853 -0.0086 -0.3172
 7081TIP3    H145438   6.961   6.999   2.205  1.2369  1.4497 -1.2027
 7081TIP3    H245439   6.942   6.868   2.133 -1.7114  0.9904  0.2755
 7082TIP3   OH245440   2.274   4.803   8.157 -0.3283  0.6133  0.2887
 7082TIP3    H145441   2.200   4.835   8.106 -0.0362  0.2914 -0.3393
 7082TIP3    H245442   2.351   4.822   8.103 -0.0469 -0.0324  0.4618
 7083TIP3   OH245443   5.487   0.572   0.769 -0.4288  0.2522 -0.0270
 7083TIP3    H145444   5.446   0.658   0.780  0.1803  0.6686 -0.9555
 7083TIP3    H245445   5.426   0.511   0.811 -0.8810  1.1276  0.6190
 7084TIP3   OH245446   6.160   4.811   7.299 -0.0531 -0.1166  0.2624
 7084TIP3    H145447   6.119   4.831   7.216 -2.0639  0.0658  1.2442
 7084TIP3    H245448   6.251   4.790   7.277 -0.6556 -0.5613 -2.0063
 7085TIP3   OH245449   5.058   4.480   0.116 -0.8525  0.2733  0.0990
 7085TIP3    H145450   5.060   4.478   0.020 -2.7073  3.6520 -0.1673
 7085TIP3    H245451   4.965   4.480   0.138 -0.4758 -1.4838  2.0226
 7086TIP3   OH245452   3.515   3.184   9.549 -0.4993 -0.0139  0.4575
 7086TIP3    H145453   3.553   3.103   9.580  0.0154 -0.7944 -1.9496
 7086TIP3    H245454   3.423   3.162   9.532  0.3479 -1.3274 -3.5517
 7087TIP3   OH245455   2.950   3.426   1.757  0.8199 -0.1488  0.5276
 7087TIP3    H145456   3.037   3.467   1.765  0.6982  0.8646 -2.2301
 7087TIP3    H245457   2.924   3.408   1.847  3.5083  0.3212  1.4990
 7088TIP3   OH245458   7.040   3.409   0.372 -0.2008  0.3267 -0.1737
 7088TIP3    H145459   7.080   3.465   0.306  0.8515 -1.0303 -0.7340
 7088TIP3    H245460   7.052   3.458   0.454  0.1461  1.1874 -0.7187
 7089TIP3   OH245461   7.207   6.340   8.370 -0.1233 -0.1252 -0.1123
 7089TIP3    H145462   7.254   6.274   8.421  0.2004 -0.0808 -0.3501
 7089TIP3    H245463   7.115   6.330   8.396  0.2719  1.3648  2.1673
 7090TIP3   OH245464   0.191   6.923   2.501 -0.2632 -0.1059 -0.1169
 7090TIP3    H145465   0.099   6.936   2.526  0.1946  1.8834  0.7268
 7090TIP3    H245466   0.220   6.852   2.558 -1.5812 -1.6927 -1.3174
 7091TIP3   OH245467   4.282   2.568   1.858 -0.5692  0.2636  0.4653
 7091TIP3    H145468   4.323   2.654   1.867 -0.1812  0.2111 -0.6483
 7091TIP3    H245469   4.355   2.507   1.852 -0.8395 -0.0834  0.6615
 7092TIP3   OH245470   1.401   2.431   6.901 -0.1525  0.2235  0.1378
 7092TIP3    H145471   1.440   2.490   6.965 -0.2694 -0.4514  0.8437
 7092TIP3    H245472   1.318   2.404   6.941  0.9061 -2.1965  0.8840
 7093TIP3   OH245473   3.616   7.132   9.597  0.5882 -0.5067 -0.0457
 7093TIP3    H145474   3.552   7.201   9.579 -0.6991 -1.1350  1.9065
 7093TIP3    H245475   3.691   7.178   9.635  0.3336 -0.0310 -0.1144
 7094TIP3   OH245476   3.996   4.459   0.280  0.4918 -0.5363  0.1301
 7094TIP3    H145477   3.909   4.486   0.308  0.9196  1.2645 -0.1519
 7094TIP3    H245478   3.991   4.363   0.275 -1.3229 -0.4983  0.5370
 7095TIP3   OH245479   4.451   4.518   0.691 -0.4001 -0.2432 -0.2719
 7095TIP3    H145480   4.418   4.541   0.778  1.0190 -1.2309  0.5672
 7095TIP3    H245481   4.405   4.437   0.668  1.5453 -1.8419  1.0705
 7096TIP3   OH245482   7.255   7.154   7.408 -0.2611 -0.1945 -0.0111
 7096TIP3    H145483   7.343   7.181   7.437 -0.7412  1.3929  0.0632
 7096TIP3    H245484   7.267   7.065   7.377  2.0365  0.9424 -2.8678
 7097TIP3   OH245485   1.497   2.937   1.468 -0.1886  0.2276  0.5307
 7097TIP3    H145486   1.439   2.869   1.504  0.3876  0.3971  1.8146
 7097TIP3    H245487   1.584   2.915   1.501  0.2640  0.7601 -0.2647
 7098TIP3   OH245488   2.504   0.258   7.192  0.2085 -0.5131  0.5130
 7098TIP3    H145489   2.592   0.295   7.191  0.7639 -1.6582 -1.8169
 7098TIP3    H245490   2.499   0.208   7.110 -2.4310 -0.9104  0.8380
 7099TIP3   OH245491   6.304   5.427   8.239  0.2155 -0.3253 -0.0726
 7099TIP3    H145492   6.364   5.476   8.295  2.6620 -4.4047  1.2705
 7099TIP3    H245493   6.243   5.385   8.300 -0.4203 -0.7553 -0.9714
 7100TIP3   OH245494   6.655   4.587   9.118 -0.1033  0.0582  0.3144
 7100TIP3    H145495   6.657   4.629   9.032 -1.7731 -1.0937 -0.3573
 7100TIP3    H245496   6.610   4.650   9.175 -0.5332  0.1368 -0.1045
 7101TIP3   OH245497   2.939   7.004   2.158 -0.0698  0.0271  0.2967
 7101TIP3    H145498   2.925   6.988   2.252  0.1353  0.8631  0.4733
 7101TIP3    H245499   2.920   6.920   2.117 -0.4181 -0.2807  1.0646
 7102TIP3   OH245500   0.793   4.255   2.615  0.7009  0.2989 -0.1405
 7102TIP3    H145501   0.774   4.165   2.591 -0.5806  0.6379 -0.4768
 7102TIP3    H245502   0.856   4.248   2.687 -0.5771 -0.9105  0.9109
 7103TIP3   OH245503   0.451   4.650   0.047  0.4937 -0.1187  0.2709
 7103TIP3    H145504   0.532   4.607   0.074  0.1658 -0.7522  0.2636
 7103TIP3    H245505   0.382   4.592   0.079  0.0228  0.7157  0.8004
 7104TIP3   OH245506   5.188   3.156   9.751  0.5236  0.7960  0.2860
 7104TIP3    H145507   5.237   3.085   9.711  1.7423  1.3894  0.6507
 7104TIP3    H245508   5.233   3.171   9.835 -0.7576  0.8708  0.9761
 7105TIP3   OH245509   3.122   2.867   8.065  0.0934  0.4511  0.2807
 7105TIP3    H145510   3.047   2.810   8.048  0.2321  0.4830 -0.4767
 7105TIP3    H245511   3.085   2.942   8.111 -0.4616  0.7759 -0.6680
 7106TIP3   OH245512   3.415   0.757   2.598  0.5410  0.5925 -0.2722
 7106TIP3    H145513   3.330   0.785   2.633  0.3798 -0.4894  0.2534
 7106TIP3    H245514   3.477   0.823   2.629  0.4056 -0.3238  2.1290
 7107TIP3   OH245515   7.135   2.157   2.353 -0.2157  0.3949 -0.1920
 7107TIP3    H145516   7.147   2.187   2.443  0.2737 -1.3069  0.3420
 7107TIP3    H245517   7.054   2.199   2.324 -1.0506  0.0165  1.4782
 7108TIP3   OH245518   0.470   4.137   7.970  0.0853 -0.2458 -0.8872
 7108TIP3    H145519   0.523   4.147   8.049  1.2781 -0.8519 -1.5832
 7108TIP3    H245520   0.410   4.065   7.991  1.0142 -1.0187 -0.8431
 7109TIP3   OH245521   4.516   3.311   9.525 -0.2834  0.5902 -0.4335
 7109TIP3    H145522   4.451   3.381   9.517 -2.1106 -0.3608  3.5386
 7109TIP3    H245523   4.599   3.357   9.534 -1.0963  2.1457 -0.4979
 7110TIP3   OH245524   2.755   3.917   0.563  0.2735  0.2515 -0.1824
 7110TIP3    H145525   2.826   3.910   0.628 -1.0483 -0.5267  1.2466
 7110TIP3    H245526   2.675   3.905   0.614 -0.8003 -1.0730 -2.0664
 7111TIP3   OH245527   5.178   4.693   7.569  0.4644 -0.2004  0.1191
 7111TIP3    H145528   5.123   4.615   7.572  0.0669 -0.0335 -1.7086
 7111TIP3    H245529   5.226   4.685   7.487 -0.4258  1.9992 -0.6892
 7112TIP3   OH245530   2.270   5.681   0.536  0.1037 -0.1863  0.4892
 7112TIP3    H145531   2.242   5.599   0.576  0.9478 -0.2298  1.0039
 7112TIP3    H245532   2.195   5.708   0.482  0.0140 -1.5366 -0.0863
 7113TIP3   OH245533   0.639   5.764   1.573 -0.1925  0.3605 -0.2702
 7113TIP3    H145534   0.609   5.766   1.482 -0.3065 -0.0023 -0.2414
 7113TIP3    H245535   0.722   5.715   1.570 -0.6050 -0.3609 -0.0641
 7114TIP3   OH245536   3.309   2.780   8.467 -0.2562  0.4038  0.0194
 7114TIP3    H145537   3.269   2.740   8.390  0.4319 -0.6059  0.1696
 7114TIP3    H245538   3.238   2.827   8.510 -0.6565  0.9397 -1.1963
 7115TIP3   OH245539   6.702   4.652   0.044  0.0270 -0.0370 -0.3204
 7115TIP3    H145540   6.786   4.667   0.002 -0.7538  0.8986 -1.6356
 7115TIP3    H245541   6.664   4.578  -0.003  0.7919 -1.5799  1.3884
 7116TIP3   OH245542   4.409   3.421   0.626 -0.6553  0.2977 -0.4971
 7116TIP3    H145543   4.328   3.379   0.597 -0.2481 -1.0741  0.2457
 7116TIP3    H245544   4.386   3.468   0.705 -0.9619  0.8761 -0.9259
 7117TIP3   OH245545   2.476   1.330   1.569 -0.2085  0.5871 -0.1841
 7117TIP3    H145546   2.417   1.306   1.640  0.2156  0.8339  0.2536
 7117TIP3    H245547   2.507   1.418   1.591  1.7789 -0.2502  0.5903
 7118TIP3   OH245548   1.514   0.553   0.438 -0.0418 -0.1639 -0.0412
 7118TIP3    H145549   1.523   0.516   0.350  0.1142  0.9715 -0.5132
 7118TIP3    H245550   1.446   0.499   0.479 -1.3444  0.3364 -1.4390
 7119TIP3   OH245551   4.155   4.101   2.006 -0.0006 -0.1537  0.3075
 7119TIP3    H145552   4.185   4.156   2.078 -1.2740  0.9649  0.0104
 7119TIP3    H245553   4.090   4.043   2.047 -0.5052  0.2804  0.1283
 7120TIP3   OH245554   5.261   4.274   1.663  0.0085  0.4005 -0.7935
 7120TIP3    H145555   5.215   4.358   1.665 -1.0256 -0.0543 -2.7825
 7120TIP3    H245556   5.252   4.239   1.751 -0.1193  2.0606 -0.1144
 7121TIP3   OH245557   2.242   6.340   3.033 -0.3332  0.1897 -0.0542
 7121TIP3    H145558   2.244   6.434   3.050 -0.1340  0.3677 -1.0370
 7121TIP3    H245559   2.166   6.308   3.083 -0.3431  0.8522  0.3550
 7122TIP3   OH245560   2.686   2.544   9.285  0.3030  0.1591  0.5250
 7122TIP3    H145561   2.630   2.477   9.246 -0.2013  0.4652  0.7120
 7122TIP3    H245562   2.765   2.543   9.231 -0.9200  1.5407 -1.4485
 7123TIP3   OH245563   5.289   0.316   2.629  0.3360 -0.2858  0.2570
 7123TIP3    H145564   5.264   0.277   2.545 -0.0722 -2.1515  1.2018
 7123TIP3    H245565   5.206   0.331   2.675  0.5602  0.6393  0.3909
 7124TIP3   OH245566   5.613   5.310   2.073  0.0429  0.4450  0.3585
 7124TIP3    H145567   5.633   5.239   2.011  0.5791 -0.8614  1.9764
 7124TIP3    H245568   5.672   5.382   2.046 -0.9858  0.5815 -1.7171
 7125TIP3   OH245569   3.455   2.095   1.570  0.2346  0.1237  0.0807
 7125TIP3    H145570   3.497   2.010   1.556 -3.7510 -1.9721 -0.3193
 7125TIP3    H245571   3.437   2.128   1.482  1.1238  1.1401  0.2496
 7126TIP3   OH245572   7.094   2.124   9.146 -0.5330  0.7522 -0.2225
 7126TIP3    H145573   7.009   2.140   9.105 -0.1796  0.2941 -1.1503
 7126TIP3    H245574   7.074   2.119   9.240 -1.5977  0.1644 -0.4618
 7127TIP3   OH245575   6.291   0.257   0.253  0.0146 -0.0399  0.0199
 7127TIP3    H145576   6.231   0.305   0.196 -0.7872 -3.4260 -2.2924
 7127TIP3    H245577   6.332   0.191   0.196 -0.0586 -3.0152  3.0604
 7128TIP3   OH245578   6.696   0.690   1.167  0.2940 -0.3559 -0.2802
 7128TIP3    H145579   6.758   0.671   1.238  0.2425 -0.7457 -0.3367
 7128TIP3    H245580   6.709   0.619   1.104 -0.7410 -0.8652  0.0619
 7129TIP3   OH245581   5.316   1.816   2.269 -0.1210  0.2158 -0.1567
 7129TIP3    H145582   5.344   1.835   2.179 -0.8320  1.4290 -0.1406
 7129TIP3    H245583   5.394   1.830   2.322 -0.3122  2.0130 -0.3024
 7130TIP3   OH245584   1.500   3.476   7.811  0.7861 -0.1463  0.4253
 7130TIP3    H145585   1.488   3.511   7.900 -1.2021 -0.7433  0.4520
 7130TIP3    H245586   1.460   3.542   7.754  0.9131 -0.3588  0.0882
 7131TIP3   OH245587   5.866   5.092   0.979  0.4558 -0.5668  0.0164
 7131TIP3    H145588   5.775   5.097   1.010  0.7830  0.7586  0.8881
 7131TIP3    H245589   5.864   5.136   0.894  0.2254 -0.7976 -0.0988
 7132TIP3   OH245590   3.109   5.821   8.111  0.3430 -0.0953 -0.3572
 7132TIP3    H145591   3.071   5.744   8.069 -2.9790  0.7988  0.7368
 7132TIP3    H245592   3.122   5.794   8.202 -0.5517  0.5223 -0.0384
 7133TIP3   OH245593   5.298   3.153   7.559 -0.2377 -0.4708 -0.2133
 7133TIP3    H145594   5.307   3.076   7.615 -0.7854 -0.0245  0.5050
 7133TIP3    H245595   5.302   3.118   7.470  2.0082 -1.0291  0.0585
 7134TIP3   OH245596   0.983   1.054   1.719 -0.3281 -0.2485 -0.1101
 7134TIP3    H145597   1.023   1.038   1.633  0.9327 -1.6143  0.6620
 7134TIP3    H245598   0.891   1.070   1.700 -0.1135 -0.6678 -1.7121
 7135TIP3   OH245599   6.065   3.033   1.818  0.4259 -0.1517  0.1385
 7135TIP3    H145600   6.077   3.117   1.864  1.2703 -0.9329  1.4022
 7135TIP3    H245601   6.153   2.995   1.815 -0.0616 -1.3107  0.2260
 7136TIP3   OH245602   0.918   5.657   0.230 -0.4664 -0.0153  0.8260
 7136TIP3    H145603   0.989   5.615   0.279 -0.5650 -0.5438  0.5163
 7136TIP3    H245604   0.838   5.630   0.275 -0.6292 -1.2659 -0.1560
 7137TIP3   OH245605   6.018   5.451   6.875  0.5734  0.0141 -0.3008
 7137TIP3    H145606   5.956   5.416   6.940 -1.8463  3.2095 -0.6005
 7137TIP3    H245607   5.974   5.439   6.791  1.6475 -0.1187 -0.8580
 7138TIP3   OH245608   0.839   4.097   1.327 -0.4072  0.0536  0.0900
 7138TIP3    H145609   0.790   4.031   1.375  0.6056 -0.7651  0.0335
 7138TIP3    H245610   0.825   4.075   1.235 -0.7095  0.4074  0.0473
 7139TIP3   OH245611   2.236   2.922   1.468 -0.9476  0.4454  0.1886
 7139TIP3    H145612   2.179   2.875   1.529 -0.2247  0.9890  1.3234
 7139TIP3    H245613   2.309   2.861   1.452 -1.1598  0.2850 -0.1802
 7140TIP3   OH245614   0.049   0.133   8.018 -0.1090 -0.1191  0.3633
 7140TIP3    H145615   0.136   0.107   8.049 -0.6689 -2.5047  0.1035
 7140TIP3    H245616   0.049   0.112   7.925 -0.5713  1.0249  0.0940
 7141TIP3   OH245617   6.558   2.658   7.558  0.0732  0.4516  0.0433
 7141TIP3    H145618   6.504   2.605   7.500  0.8967  0.5938 -0.8749
 7141TIP3    H245619   6.558   2.745   7.518 -0.0759  0.7784  0.7436
 7142TIP3   OH245620   3.539   0.829   7.154 -0.5854  0.1139  0.5600
 7142TIP3    H145621   3.603   0.870   7.096 -0.3055 -3.0451 -1.6512
 7142TIP3    H245622   3.461   0.884   7.148 -0.9737 -0.5840 -3.9060
 7143TIP3   OH245623   4.986   4.092   1.580 -0.6566 -0.3247 -0.0819
 7143TIP3    H145624   5.009   4.173   1.625 -2.0652  0.1986 -0.2544
 7143TIP3    H245625   5.071   4.052   1.558  0.1263 -0.5415  2.8460
 7144TIP3   OH245626   1.657   0.744   9.441  0.1981 -0.3063  0.7158
 7144TIP3    H145627   1.699   0.784   9.518 -0.8216  0.3797  0.9500
 7144TIP3    H245628   1.585   0.692   9.478  1.0078 -1.7276  0.3500
 7145TIP3   OH245629   6.321   6.067   9.356  0.5140 -0.0808  0.0260
 7145TIP3    H145630   6.390   6.098   9.297 -1.9861  0.9528 -2.6288
 7145TIP3    H245631   6.302   6.143   9.412  0.1151  0.3680 -0.7039
 7146TIP3   OH245632   2.684   5.514   9.754  0.2598  0.1689  0.4875
 7146TIP3    H145633   2.778   5.529   9.744  0.5746 -1.4930  0.5890
 7146TIP3    H245634   2.649   5.523   9.665  1.0486 -2.2175 -0.1350
 7147TIP3   OH245635   6.511   6.422   0.099 -0.3536  0.2871  0.3932
 7147TIP3    H145636   6.606   6.412   0.102 -0.5298 -1.8866  0.3934
 7147TIP3    H245637   6.497   6.505   0.054  1.5393 -0.0228 -0.8852
 7148TIP3   OH245638   6.401   4.773   1.332 -0.3358  0.7469 -0.3326
 7148TIP3    H145639   6.320   4.824   1.336  0.6687  2.3515  1.3310
 7148TIP3    H245640   6.377   4.693   1.286 -3.1081  0.7303  0.9582
 7149TIP3   OH245641   3.544   0.376   9.887 -0.0755 -0.2299  0.0348
 7149TIP3    H145642   3.573   0.415   9.804  2.1291 -0.0365  0.8268
 7149TIP3    H245643   3.522   0.286   9.865  2.2840 -0.7334 -0.4776
 7150TIP3   OH245644   2.311   0.402   9.444 -0.1983  0.1736 -0.2793
 7150TIP3    H145645   2.277   0.316   9.470 -0.9811  1.2313  2.6443
 7150TIP3    H245646   2.264   0.423   9.364 -1.3111 -1.3931 -0.0838
 7151TIP3   OH245647   1.096   4.849   9.916  0.3677 -0.0343  0.1118
 7151TIP3    H145648   1.042   4.780   9.877  0.3839  0.2826 -0.4926
 7151TIP3    H245649   1.110   4.821  10.006  0.1879 -0.7073 -0.0634
 7152TIP3   OH245650   3.076   3.099   0.932  0.2414  0.0404 -0.0891
 7152TIP3    H145651   3.161   3.131   0.962 -0.2718 -0.0102  1.5053
 7152TIP3    H245652   3.078   3.005   0.950 -0.6043  0.2405  1.1354
 7153TIP3   OH245653   1.425   2.157   9.948 -0.9694  0.0167  0.3524
 7153TIP3    H145654   1.331   2.141   9.933 -0.7565  0.0627 -1.1864
 7153TIP3    H245655   1.430   2.249   9.973 -1.2429  0.3593 -0.7768
 7154TIP3   OH245656   0.157   3.639   2.502  0.3002  0.1646  0.1065
 7154TIP3    H145657   0.106   3.612   2.578  1.7989  0.9014  1.4130
 7154TIP3    H245658   0.247   3.641   2.532  1.1987 -1.3178 -2.2086
 7155TIP3   OH245659   1.880   0.836   8.066  0.2191  0.1471 -0.4050
 7155TIP3    H145660   1.815   0.766   8.069 -2.7455  2.7161  0.9644
 7155TIP3    H245661   1.943   0.813   8.133  0.1571 -1.9044 -1.0063
 7156TIP3   OH245662   1.442   3.594   0.987  0.1125  0.3014  0.2149
 7156TIP3    H145663   1.384   3.572   0.914 -0.1865  3.5264 -0.6438
 7156TIP3    H245664   1.390   3.650   1.043  1.2222  0.0882  1.5017
 7157TIP3   OH245665   2.983   0.609   0.115 -0.0544 -0.2362  1.0218
 7157TIP3    H145666   2.911   0.623   0.176  0.3897  1.9578  1.0915
 7157TIP3    H245667   2.940   0.581   0.034 -1.0092  0.9656  1.0902
 7158TIP3   OH245668   5.678   0.235   8.614 -0.0012 -0.1293 -0.3208
 7158TIP3    H145669   5.679   0.203   8.704 -2.8769 -0.1813 -0.2322
 7158TIP3    H245670   5.621   0.311   8.616 -2.1777 -1.5542 -2.4675
 7159TIP3   OH245671   5.515   7.079   9.461  0.0799 -0.2354  0.5863
 7159TIP3    H145672   5.531   7.021   9.535 -0.7486 -0.2481  0.7651
 7159TIP3    H245673   5.468   7.025   9.397  1.4451 -0.4383 -0.2812
 7160TIP3   OH245674   0.443   1.109   1.740 -0.3091  0.2720  0.5950
 7160TIP3    H145675   0.508   1.117   1.810  0.8035  0.6690 -0.4364
 7160TIP3    H245676   0.430   1.199   1.709  0.4076 -0.0484 -0.7191
 7161TIP3   OH245677   6.577   0.408   7.559  0.6555 -0.2452  0.1272
 7161TIP3    H145678   6.670   0.417   7.581  0.1175  0.3838  2.3922
 7161TIP3    H245679   6.566   0.315   7.540  1.9515 -0.1322 -1.3450
 7162TIP3   OH245680   1.977   1.272   7.068  0.5708  0.6519 -0.3216
 7162TIP3    H145681   1.899   1.231   7.028  0.9318 -0.7862  0.3597
 7162TIP3    H245682   2.013   1.327   6.999  0.6359 -1.0141 -1.7007
 7163TIP3   OH245683   0.475   5.385   8.912  0.5710  0.8269  0.2317
 7163TIP3    H145684   0.493   5.470   8.871  1.2658 -0.5105 -2.5210
 7163TIP3    H245685   0.529   5.323   8.862 -0.5892 -1.3641  1.5451
 7164TIP3   OH245686   6.137   1.216   7.919  0.1052 -0.7384  0.3779
 7164TIP3    H145687   6.096   1.223   8.005  3.0876 -2.5507  2.1215
 7164TIP3    H245688   6.211   1.277   7.923  0.6221 -1.2707 -0.6604
 7165TIP3   OH245689   3.926   2.726   8.030  0.0704 -0.1528  0.9002
 7165TIP3    H145690   4.021   2.726   8.015 -0.0939 -1.8853 -0.5232
 7165TIP3    H245691   3.890   2.783   7.963  0.0077 -0.6563  0.5014
 7166TIP3   OH245692   0.657   3.743   0.763 -0.5793  0.1126 -0.2737
 7166TIP3    H145693   0.649   3.648   0.771 -1.7357  0.2282  0.1294
 7166TIP3    H245694   0.715   3.757   0.688  2.2136 -0.9288  1.5372
 7167TIP3   OH245695   6.581   7.244   2.282 -0.1889  0.1138 -0.3018
 7167TIP3    H145696   6.627   7.294   2.350 -1.4918  0.6649  0.2047
 7167TIP3    H245697   6.543   7.311   2.225  0.4800 -0.3425 -1.3179
 7168TIP3   OH245698   0.566   5.304   0.615 -0.1554 -0.0239 -0.0048
 7168TIP3    H145699   0.512   5.325   0.539 -1.1584 -1.1878  0.3403
 7168TIP3    H245700   0.616   5.384   0.634 -0.4013  0.4873 -1.4531
 7169TIP3   OH245701   7.188   0.230   9.367  0.2134  0.6393  0.5745
 7169TIP3    H145702   7.279   0.224   9.397  0.4576  0.8347 -0.1137
 7169TIP3    H245703   7.192   0.287   9.290 -0.0344 -1.7962 -1.3537
 7170TIP3   OH245704   0.235   5.629   8.287 -0.0599 -0.0281  0.4777
 7170TIP3    H145705   0.327   5.605   8.289  0.0014  0.0886 -0.3135
 7170TIP3    H245706   0.188   5.548   8.308  0.2385  0.3264  2.7576
 7171TIP3   OH245707   1.254   6.982   2.168  0.8619  0.2270 -0.0872
 7171TIP3    H145708   1.217   6.934   2.094  1.4715 -0.4098  0.0174
 7171TIP3    H245709   1.349   6.977   2.155  1.0088 -0.5160  1.1230
 7172TIP3   OH245710   2.975   6.426   2.128  0.2983 -0.8176 -0.5101
 7172TIP3    H145711   2.998   6.377   2.048 -1.0569 -1.8894 -0.2725
 7172TIP3    H245712   3.055   6.474   2.150  0.2244  0.9940 -3.5276
 7173TIP3   OH245713   2.178   2.316   8.388  0.0757 -0.4716 -0.3340
 7173TIP3    H145714   2.128   2.309   8.307 -0.7840  0.9838  0.0437
 7173TIP3    H245715   2.258   2.364   8.363 -0.7261  1.0181 -0.1203
 7174TIP3   OH245716   1.621   6.438   1.336  0.3491 -0.1205  0.4957
 7174TIP3    H145717   1.591   6.396   1.255  0.8106  0.9431 -0.2502
 7174TIP3    H245718   1.542   6.471   1.377 -0.0035 -1.5272  1.0026
 7175TIP3   OH245719   1.516   4.742   7.019  0.2051 -0.0829 -0.5441
 7175TIP3    H145720   1.548   4.702   7.100 -1.0652  1.1831  0.6332
 7175TIP3    H245721   1.569   4.821   7.010 -0.9678  0.8083  0.1558
 7176TIP3   OH245722   0.940   6.339   8.828 -0.0620  0.0035  0.2538
 7176TIP3    H145723   1.009   6.402   8.808  0.9631 -1.3003 -0.5180
 7176TIP3    H245724   0.986   6.255   8.839 -1.4852 -0.8514  0.0137
 7177TIP3   OH245725   3.890   6.186   8.052 -0.1345  0.6754  0.2771
 7177TIP3    H145726   3.850   6.252   8.108 -0.3331  0.5106  0.3299
 7177TIP3    H245727   3.921   6.235   7.975  0.2732  0.9238  0.5950
 7178TIP3   OH245728   4.319   7.081   7.519 -0.0264  0.5560 -0.5116
 7178TIP3    H145729   4.320   7.053   7.427 -4.3379  0.5030 -0.7113
 7178TIP3    H245730   4.305   7.175   7.515  1.7872  0.8939  0.1880
 7179TIP3   OH245731   4.625   6.067   1.012  0.1099 -0.0937  0.3586
 7179TIP3    H145732   4.598   6.119   0.936  0.6336 -0.3304  0.0125
 7179TIP3    H245733   4.561   5.996   1.017  0.3391 -0.3315 -0.1239
 7180TIP3   OH245734   3.394   0.621   9.004  0.2563  0.2929  0.1056
 7180TIP3    H145735   3.450   0.657   9.072  3.6338  0.1913 -2.3659
 7180TIP3    H245736   3.383   0.529   9.026  2.5916 -0.0983 -0.1812
 7181TIP3   OH245737   6.542   6.762   1.479  0.2574 -0.0959 -0.0840
 7181TIP3    H145738   6.493   6.684   1.507 -0.6632  0.2422 -0.6994
 7181TIP3    H245739   6.513   6.777   1.389 -0.2560  1.4592  0.2994
 7182TIP3   OH245740   4.647   1.570   9.796  0.1843  0.0723 -0.4668
 7182TIP3    H145741   4.607   1.501   9.744  1.0724  0.8437 -2.2590
 7182TIP3    H245742   4.740   1.565   9.775  0.2122  2.0880 -1.0287
 7183TIP3   OH245743   0.303   6.256   8.931 -0.4714  0.0114  0.0435
 7183TIP3    H145744   0.360   6.203   8.876  1.8146  0.7449  1.5773
 7183TIP3    H245745   0.245   6.193   8.974 -0.2559 -0.8531 -0.8993
 7184TIP3   OH245746   0.323   7.211   0.794  0.0549  0.4044 -0.0721
 7184TIP3    H145747   0.266   7.204   0.871 -0.2477 -3.2807 -0.4737
 7184TIP3    H245748   0.411   7.198   0.828 -0.2023 -2.8186 -0.3920
 7185TIP3   OH245749   5.998   0.603   9.789 -0.0822  0.2973  0.3060
 7185TIP3    H145750   5.930   0.599   9.857 -0.7734 -0.0457 -0.3881
 7185TIP3    H245751   6.081   0.600   9.838 -0.5626  0.5114  1.1551
 7186TIP3   OH245752   6.925   0.705   1.687  0.3734  0.2189 -0.2277
 7186TIP3    H145753   6.876   0.786   1.706 -0.3340 -0.3146  0.2503
 7186TIP3    H245754   6.962   0.720   1.600  0.9162  1.3791  0.1807
 7187TIP3   OH245755   0.958   2.812   7.053 -0.3829 -0.4804  0.0535
 7187TIP3    H145756   0.878   2.823   7.002 -0.0314  0.8112 -0.2475
 7187TIP3    H245757   1.029   2.814   6.988  0.1596  2.3223  0.5894
 7188TIP3   OH245758   6.722   5.400   9.607 -0.4613 -0.1733 -0.9801
 7188TIP3    H145759   6.634   5.365   9.623 -0.8684  1.1509 -0.0831
 7188TIP3    H245760   6.710   5.465   9.538 -0.0492 -0.5226 -1.3809
 7189TIP3   OH245761   4.008   5.736   8.417  0.3829  0.2156  0.4651
 7189TIP3    H145762   4.035   5.815   8.371  0.8520 -1.1617 -1.7966
 7189TIP3    H245763   3.917   5.721   8.388  0.7425 -0.7618 -0.2376
 7190TIP3   OH245764   1.210   4.986   1.068  0.2594 -0.8145 -0.0755
 7190TIP3    H145765   1.281   5.049   1.082 -0.4617  0.0781 -0.3642
 7190TIP3    H245766   1.221   4.921   1.138  1.2041 -0.5541  0.0326
 7191TIP3   OH245767   6.100   1.822   9.607 -0.1106 -0.3398  0.1849
 7191TIP3    H145768   6.079   1.729   9.600  0.3674 -0.4631  0.3457
 7191TIP3    H245769   6.195   1.825   9.606 -0.0869  0.0192  1.5636
 7192TIP3   OH245770   4.679   5.525   2.832  0.0648  0.1466 -0.4904
 7192TIP3    H145771   4.690   5.600   2.891  0.2241  0.4177 -0.8543
 7192TIP3    H245772   4.602   5.547   2.780 -0.2389 -0.2200 -0.1942
 7193TIP3   OH245773   6.237   5.523   0.485 -0.4401 -0.1736  0.0171
 7193TIP3    H145774   6.228   5.589   0.554  1.2486  0.9405 -0.7647
 7193TIP3    H245775   6.282   5.450   0.528  2.7887  1.4464 -0.3487
 7194TIP3   OH245776   3.627   1.922   1.818  0.2274  0.0925 -0.0639
 7194TIP3    H145777   3.700   1.984   1.817  1.7436 -1.5470  1.4496
 7194TIP3    H245778   3.619   1.893   1.727 -0.0042  1.8530 -0.6443
 7195TIP3   OH245779   0.698   5.839   9.860  0.0674  0.3938 -0.1081
 7195TIP3    H145780   0.792   5.823   9.852  0.3304  1.7395  0.0365
 7195TIP3    H245781   0.691   5.926   9.900 -1.2454 -0.3354  1.4013
 7196TIP3   OH245782   5.176   0.026   9.442  0.1488  0.0940  0.2598
 7196TIP3    H145783   5.271   0.019   9.435  0.2196  1.5111 -0.6945
 7196TIP3    H245784   5.144  -0.063   9.432  1.3140 -0.2444 -0.6528
 7197TIP3   OH245785   6.188   4.459   9.979 -0.4193  0.3395 -0.2265
 7197TIP3    H145786   6.206   4.538  10.029 -0.2011 -0.6371  1.2843
 7197TIP3    H245787   6.250   4.463   9.906 -1.4738  2.3129 -1.1061
 7198TIP3   OH245788   1.710   1.423   1.128  0.2109  0.4797 -0.6738
 7198TIP3    H145789   1.717   1.340   1.082 -0.0996  0.0498  0.0289
 7198TIP3    H245790   1.731   1.402   1.219 -1.4094  0.8318 -0.1751
 7199TIP3   OH245791   0.056   6.210   0.166  0.4887  0.0880 -0.0215
 7199TIP3    H145792   0.032   6.126   0.129 -2.4159  0.0313  1.6584
 7199TIP3    H245793   0.014   6.275   0.110 -0.8432  0.1601  1.0053
 7200TIP3   OH245794   0.058   3.507   0.557 -0.0694 -0.2091  0.3313
 7200TIP3    H145795   0.022   3.438   0.613  0.0158 -0.3269  0.2404
 7200TIP3    H245796   0.149   3.482   0.543 -0.0513 -0.1034  0.2597
 7201TIP3   OH245797   6.542   5.015   9.890 -0.3487  0.2582  0.2202
 7201TIP3    H145798   6.585   5.014   9.975 -0.7947 -1.8986  0.4816
 7201TIP3    H245799   6.613   5.013   9.827 -0.0014  2.2880  0.4861
 7202TIP3   OH245800   5.181   0.428   1.753 -0.2373 -0.0490  0.7861
 7202TIP3    H145801   5.240   0.486   1.705  1.4410 -0.5934  2.1025
 7202TIP3    H245802   5.197   0.341   1.717 -1.9770  0.0757 -0.4424
 7203TIP3   OH245803   1.443   1.447   8.909  0.3154  0.2848  0.2274
 7203TIP3    H145804   1.451   1.477   8.818 -0.9267 -0.8705 -0.2970
 7203TIP3    H245805   1.514   1.492   8.955 -0.1358  2.3082 -0.9209
 7204TIP3   OH245806   3.758   3.265   8.776  0.1156  0.0013  0.1434
 7204TIP3    H145807   3.685   3.327   8.769 -0.5115 -0.7244  0.1514
 7204TIP3    H245808   3.830   3.307   8.729 -0.4750  0.4747 -0.3516
 7205TIP3   OH245809   4.381   4.208   9.825 -0.7430 -0.4664  0.2169
 7205TIP3    H145810   4.354   4.298   9.840 -1.5349 -0.7331  0.5091
 7205TIP3    H245811   4.469   4.214   9.790 -0.2893  0.3749  1.4203
 7206TIP3   OH245812   6.281   5.991   6.874 -0.3913 -0.0048  0.0943
 7206TIP3    H145813   6.341   5.920   6.894 -1.0557 -0.5564  0.1573
 7206TIP3    H245814   6.261   5.981   6.782  0.4623  0.8491 -0.2091
 7207TIP3   OH245815   1.916   2.605   9.546 -0.1706 -0.6127 -0.6745
 7207TIP3    H145816   1.879   2.608   9.458  1.0688 -0.3606 -1.2079
 7207TIP3    H245817   1.920   2.697   9.573 -2.3234 -0.7883  0.4514
 7208TIP3   OH245818   4.922   6.620   1.674  0.1341 -0.3599 -0.3225
 7208TIP3    H145819   4.831   6.616   1.643  0.2566 -2.9382 -0.5577
 7208TIP3    H245820   4.915   6.628   1.769 -0.3855 -1.7669 -0.2246
 7209TIP3   OH245821   5.872   6.430   1.509 -0.3644  0.0932  0.4285
 7209TIP3    H145822   5.783   6.462   1.522 -0.8977 -1.6997  1.6532
 7209TIP3    H245823   5.872   6.342   1.548  1.7985 -0.1770 -0.0194
 7210TIP3   OH245824   1.120   0.001   2.577  0.4450 -0.3443 -0.1616
 7210TIP3    H145825   1.163   0.017   2.494 -1.7536  1.1335 -1.0936
 7210TIP3    H245826   1.123   0.085   2.623  0.9129 -0.9293  0.9245
 7211TIP3   OH245827   5.654   5.474   9.145  0.6842  0.0768  0.0146
 7211TIP3    H145828   5.610   5.517   9.218 -1.2623 -2.8037  0.7006
 7211TIP3    H245829   5.746   5.472   9.171  0.2079  0.1898  1.8327
 7212TIP3   OH245830   3.532   6.463   8.611 -0.4707 -0.5313 -0.5275
 7212TIP3    H145831   3.580   6.528   8.559 -1.3343  0.8596  0.3335
 7212TIP3    H245832   3.538   6.382   8.560  2.2321 -0.2942 -0.7500
 7213TIP3   OH245833   4.491   5.524   6.277  0.0910  0.6416 -0.3681
 7213TIP3    H145834   4.530   5.603   6.240  0.1054  0.2296 -1.2426
 7213TIP3    H245835   4.434   5.491   6.208 -0.1153  0.0265  0.0902
 7214TIP3   OH245836   0.339   6.225   1.424 -0.5024 -0.6474 -0.5092
 7214TIP3    H145837   0.405   6.156   1.429 -0.3870 -0.6254 -1.5149
 7214TIP3    H245838   0.322   6.235   1.331 -1.3842 -0.1295 -0.3029
 7215TIP3   OH245839   0.234   6.672   8.111 -0.2965 -0.5324 -0.1543
 7215TIP3    H145840   0.295   6.616   8.063  0.0331 -0.7971  0.5487
 7215TIP3    H245841   0.192   6.725   8.044 -0.6617 -1.6615 -0.8419
 7216TIP3   OH245842   1.300   3.164   1.506 -0.1665 -0.5276 -0.0398
 7216TIP3    H145843   1.334   3.080   1.475  1.0866  0.5064 -1.5839
 7216TIP3    H245844   1.365   3.195   1.568 -0.0026 -0.1240 -0.4124
 7217TIP3   OH245845   3.489   4.851   9.076 -0.0612  0.9894  0.1735
 7217TIP3    H145846   3.433   4.861   9.152 -0.9422 -1.0916 -0.1288
 7217TIP3    H245847   3.559   4.915   9.089  1.1634 -0.8063  3.9456
 7218TIP3   OH245848   3.570   2.860   9.457 -0.1317  0.5518  0.3256
 7218TIP3    H145849   3.565   2.844   9.363 -0.1106  1.1126  0.2289
 7218TIP3    H245850   3.661   2.838   9.480  0.4111  2.1559 -0.1236
 7219TIP3   OH245851   0.394   1.105   7.024  0.3215  0.9904 -0.1014
 7219TIP3    H145852   0.346   1.061   6.954  1.2382  0.0525 -0.1722
 7219TIP3    H245853   0.327   1.152   7.074 -0.9644 -1.6902  0.8709
 7220TIP3   OH245854   1.287   6.829   8.895  0.4576 -0.2216  0.1933
 7220TIP3    H145855   1.280   6.854   8.803 -2.4921  0.9706  0.6105
 7220TIP3    H245856   1.223   6.884   8.939  0.4711 -2.0425  2.6893
 7221TIP3   OH245857   3.742   5.358   8.984  0.4308 -0.1157 -0.0308
 7221TIP3    H145858   3.670   5.417   8.964 -0.0118 -0.4267  0.5882
 7221TIP3    H245859   3.814   5.388   8.929 -0.5760 -0.6685 -1.7386
 7222TIP3   OH245860   0.127   3.650   8.024  0.2785 -0.3431 -0.1285
 7222TIP3    H145861   0.195   3.631   8.089  1.2440  1.4157 -0.5570
 7222TIP3    H245862   0.157   3.606   7.944  0.0680 -0.9273  0.1128
 7223TIP3   OH245863   3.613   1.203   7.974  0.7270 -0.0698  0.4089
 7223TIP3    H145864   3.672   1.277   7.981  0.4647  0.1573  0.2551
 7223TIP3    H245865   3.664   1.136   7.929 -0.3396  1.5118 -3.5796
 7224TIP3   OH245866   3.631   0.927   2.680 -0.5054 -0.0636  0.1173
 7224TIP3    H145867   3.611   1.014   2.646 -1.2646 -0.6888 -1.1004
 7224TIP3    H245868   3.620   0.936   2.775 -0.0493  1.2856  0.0697
 7225TIP3   OH245869   2.726   3.366   8.063  0.0632  0.4866  0.1578
 7225TIP3    H145870   2.723   3.349   8.157  1.3695  1.5065  0.4083
 7225TIP3    H245871   2.695   3.284   8.023 -0.5838  0.0696  1.4628
 7226TIP3   OH245872   0.381   5.313   8.282  0.6136  0.0867 -0.6502
 7226TIP3    H145873   0.444   5.248   8.312 -1.3120 -0.6250  2.2947
 7226TIP3    H245874   0.405   5.393   8.328  1.1044  0.6398 -1.8390
 7227TIP3   OH245875   0.542   6.079   8.885  0.3870 -0.0861  0.1827
 7227TIP3    H145876   0.475   6.018   8.855  1.1439 -0.1527 -1.4474
 7227TIP3    H245877   0.612   6.023   8.919 -0.5738 -0.0095  2.4648
 7228TIP3   OH245878   4.802   1.588   0.282  0.3093 -0.1808  0.1823
 7228TIP3    H145879   4.834   1.660   0.227 -1.2238  1.3746  1.2160
 7228TIP3    H245880   4.739   1.542   0.226 -0.1666  0.5023  0.1432
 7229TIP3   OH245881   2.477   2.626   1.130 -0.1698 -0.7370  0.2296
 7229TIP3    H145882   2.572   2.623   1.144 -0.4586 -0.8056  2.7634
 7229TIP3    H245883   2.454   2.539   1.100  0.4972 -0.8979  0.1640
 7230TIP3   OH245884   0.225   7.060   0.021 -0.3215 -0.0818  0.3099
 7230TIP3    H145885   0.298   7.079   0.081  0.1398  2.4144 -0.8846
 7230TIP3    H245886   0.147   7.074   0.074  0.0762  0.0287  0.8781
 7231TIP3   OH245887   1.406   1.919   8.743  0.2502  0.4214 -0.4545
 7231TIP3    H145888   1.453   1.989   8.788  1.3084  2.2327 -4.0575
 7231TIP3    H245889   1.468   1.885   8.678 -2.5734  1.5659 -4.0881
 7232TIP3   OH245890   5.228   5.393   6.355  0.2573 -0.1499  0.3143
 7232TIP3    H145891   5.290   5.371   6.285 -1.0817 -0.7921 -0.7392
 7232TIP3    H245892   5.206   5.308   6.395 -0.4610 -0.0275  0.1963
 7233TIP3   OH245893   0.772   2.991   9.243 -0.1307  0.2062  0.1364
 7233TIP3    H145894   0.791   3.083   9.263 -0.7430  0.3553  0.0496
 7233TIP3    H245895   0.852   2.959   9.202  0.4726  0.4074  1.1189
 7234TIP3   OH245896   1.588   0.576   1.880  0.3772 -0.3311 -0.4130
 7234TIP3    H145897   1.679   0.560   1.904  0.1399 -0.3666  0.4811
 7234TIP3    H245898   1.555   0.491   1.850  0.3603 -0.5508  0.2087
 7235TIP3   OH245899   2.486   4.335   0.860 -0.6746  0.3395  0.1288
 7235TIP3    H145900   2.561   4.336   0.802 -2.7620  2.9803 -2.8404
 7235TIP3    H245901   2.480   4.425   0.893 -2.2259  0.0555  0.7040
 7236TIP3   OH245902   5.227   3.130   8.847 -0.0048 -0.3302 -0.0884
 7236TIP3    H145903   5.271   3.089   8.922  0.8193 -0.7057 -0.7641
 7236TIP3    H245904   5.244   3.071   8.774  0.2874  0.6661 -0.8454
 7237TIP3   OH245905   4.107   6.514   0.826  0.3392  0.2183 -0.3444
 7237TIP3    H145906   4.044   6.442   0.837 -0.6439  0.8382 -1.6234
 7237TIP3    H245907   4.076   6.581   0.886  0.5265  0.0407 -0.0494
 7238TIP3   OH245908   4.698   5.242   9.404  0.3327  0.1465  0.2475
 7238TIP3    H145909   4.720   5.185   9.330  1.5595 -0.9392  1.3854
 7238TIP3    H245910   4.628   5.196   9.450  0.6524  0.0271  0.6223
 7239TIP3   OH245911   1.488   0.824   1.979 -0.7575 -0.4593 -0.2848
 7239TIP3    H145912   1.531   0.747   1.941  0.6627  0.5636 -0.8168
 7239TIP3    H245913   1.489   0.889   1.908 -2.4309 -0.1085 -0.0195
 7240TIP3   OH245914   5.790   4.376   2.156 -0.3951  0.5816 -0.4506
 7240TIP3    H145915   5.835   4.406   2.077  1.2589  0.8599  0.5493
 7240TIP3    H245916   5.750   4.455   2.192  1.2695  1.0476  0.4776
 7241TIP3   OH245917   0.188   1.433   1.887 -0.5100  0.1366  0.0578
 7241TIP3    H145918   0.148   1.363   1.837  0.5204 -0.1321 -0.4212
 7241TIP3    H245919   0.264   1.392   1.929 -0.7122  0.6273  0.9418
 7242TIP3   OH245920   4.940   1.534   8.576  0.1334  0.5664 -0.6195
 7242TIP3    H145921   4.858   1.572   8.605  1.0510  1.6688  0.6989
 7242TIP3    H245922   4.938   1.444   8.609 -1.9640 -0.6168 -3.5760
 7243TIP3   OH245923   2.216   6.028   7.135  0.2155  0.3118  0.0209
 7243TIP3    H145924   2.162   6.065   7.204  1.0658 -0.9461  1.4193
 7243TIP3    H245925   2.154   5.996   7.070 -0.8618 -2.1293  2.1036
 7244TIP3   OH245926   1.855   2.649   7.421  0.6006 -0.5152 -0.0405
 7244TIP3    H145927   1.857   2.737   7.459  0.5558 -0.7270  0.4628
 7244TIP3    H245928   1.790   2.654   7.351  0.8115 -0.0708 -0.2092
 7245TIP3   OH245929   4.016   2.531   8.964  0.4457 -0.0546 -0.1418
 7245TIP3    H145930   4.036   2.573   9.047  0.0933  0.6495 -0.4044
 7245TIP3    H245931   4.076   2.457   8.959 -0.4449 -0.9226  1.3493
 7246TIP3   OH245932   0.064   4.901   9.821  0.1485 -0.2248 -0.2916
 7246TIP3    H145933   0.141   4.860   9.782  0.9436  0.3456  0.6433
 7246TIP3    H245934   0.019   4.829   9.866  0.6627 -0.3720 -0.0125
 7247TIP3   OH245935   1.663   0.951   9.712  0.1521 -0.4249 -0.1341
 7247TIP3    H145936   1.608   0.962   9.790  0.3030 -1.4845  0.1375
 7247TIP3    H245937   1.628   1.015   9.649 -0.2615  0.1299  0.6369
 7248TIP3   OH245938   5.948   1.577   2.245  0.0537 -0.3430 -0.0506
 7248TIP3    H145939   5.873   1.612   2.292 -0.3596 -1.0670 -0.1492
 7248TIP3    H245940   5.998   1.528   2.311 -1.0795 -2.2412 -0.5181
 7249TIP3   OH245941   7.124   1.386   1.822  0.1601  0.3363 -0.0121
 7249TIP3    H145942   7.097   1.337   1.900  0.5145  0.1587  0.0018
 7249TIP3    H245943   7.178   1.457   1.856  2.3619 -1.1138 -0.2159
 7250TIP3   OH245944   1.062   0.713   7.680 -0.1973 -0.0814 -0.5134
 7250TIP3    H145945   1.008   0.780   7.636  0.5307  0.9596  0.1228
 7250TIP3    H245946   1.081   0.649   7.611  0.1912  1.0572 -1.5050
 7251TIP3   OH245947   2.400   0.118   8.708  0.7377  0.1826  0.4097
 7251TIP3    H145948   2.306   0.117   8.689  1.0003  0.9943 -1.0746
 7251TIP3    H245949   2.410   0.056   8.780 -0.6776 -1.3813 -0.6574
 7252TIP3   OH245950   2.382   5.752   1.445  0.3115  0.0286  0.1684
 7252TIP3    H145951   2.439   5.693   1.396  1.0128  0.1979  0.7682
 7252TIP3    H245952   2.306   5.764   1.388 -0.0178 -1.7315  0.1780
 7253TIP3   OH245953   4.176   5.078   7.214  0.0961  0.0175 -0.6458
 7253TIP3    H145954   4.236   5.049   7.146  1.3716  0.7772  0.1133
 7253TIP3    H245955   4.201   5.168   7.232  0.7336 -0.5721  1.7712
 7254TIP3   OH245956   3.731   6.418   7.679  0.5941  0.5266  0.7521
 7254TIP3    H145957   3.819   6.431   7.643  1.2272 -0.1434  1.9900
 7254TIP3    H245958   3.697   6.342   7.633  1.3633 -0.2783  1.4836
 7255TIP3   OH245959   2.391   5.559   8.491 -0.0636 -0.9099  0.1180
 7255TIP3    H145960   2.312   5.567   8.544 -0.5348 -0.2509 -0.6666
 7255TIP3    H245961   2.359   5.527   8.406 -0.0028  2.6465 -1.3903
 7256TIP3   OH245962   3.453   0.869   0.349 -0.3524 -0.0591 -0.3745
 7256TIP3    H145963   3.455   0.950   0.299 -1.1869 -0.5841 -1.3069
 7256TIP3    H245964   3.505   0.808   0.296 -0.8191 -0.4808 -0.3565
 7257TIP3   OH245965   6.127   3.031   1.090  0.8035 -0.0616  0.6982
 7257TIP3    H145966   6.175   3.014   1.171  0.5178  2.7836  1.5818
 7257TIP3    H245967   6.035   3.013   1.112  0.7597  0.4269  0.9195
 7258TIP3   OH245968   3.868   4.397   1.690  0.1583  0.1849  0.0173
 7258TIP3    H145969   3.959   4.377   1.713  0.2015  0.5965  0.2137
 7258TIP3    H245970   3.851   4.344   1.612  0.3156 -0.4963  0.4355
 7259TIP3   OH245971   2.168   7.010   1.473 -0.3397 -0.1641  0.1355
 7259TIP3    H145972   2.225   6.933   1.480 -2.1892 -1.4814  1.7436
 7259TIP3    H245973   2.079   6.974   1.471 -1.2062  1.8430 -1.6650
 7260TIP3   OH245974   4.020   0.609   6.471 -0.6760  0.2243 -0.3207
 7260TIP3    H145975   3.962   0.598   6.546 -0.1780  0.1717  0.0619
 7260TIP3    H245976   4.050   0.700   6.475  1.6438 -0.4993  1.2678
 7261TIP3   OH245977   5.470   0.511   1.098  0.0676 -0.2060 -0.3117
 7261TIP3    H145978   5.433   0.595   1.071  0.4216 -0.2959 -1.1081
 7261TIP3    H245979   5.421   0.446   1.047  1.8449 -0.2750 -2.0663
 7262TIP3   OH245980   7.161   0.357   2.856  0.2609  0.2367 -0.3120
 7262TIP3    H145981   7.215   0.421   2.811 -0.4119  0.7663 -0.3875
 7262TIP3    H245982   7.079   0.356   2.806 -0.9996  1.7815  1.5691
 7263TIP3   OH245983   4.746   4.552   9.590 -0.5202 -0.3598  0.1329
 7263TIP3    H145984   4.783   4.639   9.604 -0.0406 -0.3056 -1.3766
 7263TIP3    H245985   4.706   4.557   9.503 -3.3584 -0.6734  1.2988
 7264TIP3   OH245986   0.242   7.127   2.006 -0.3601 -0.0892  0.0688
 7264TIP3    H145987   0.152   7.157   2.011 -0.5671 -0.7864  0.9766
 7264TIP3    H245988   0.265   7.107   2.097  0.0427 -1.7850 -0.3697
 7265TIP3   OH245989   0.009   4.470   0.440 -0.1308 -0.6241  0.3142
 7265TIP3    H145990  -0.004   4.377   0.425  0.6303 -0.8164  0.8122
 7265TIP3    H245991  -0.018   4.484   0.531 -0.3268 -0.3428  0.2135
 7266TIP3   OH245992   6.646   0.138   8.420  0.1176  0.5437  0.6280
 7266TIP3    H145993   6.640   0.053   8.376  0.0911  0.6565  0.4083
 7266TIP3    H245994   6.737   0.165   8.408 -0.4402  1.7389 -1.6032
 7267TIP3   OH245995   7.253   5.184   2.662  0.2736 -0.2276 -1.2529
 7267TIP3    H145996   7.246   5.124   2.588  2.3877  0.1856 -1.8657
 7267TIP3    H245997   7.347   5.202   2.669 -0.1708  2.0892 -0.3624
 7268TIP3   OH245998   0.516   4.721   1.349 -0.4479 -0.0547  0.3998
 7268TIP3    H145999   0.507   4.654   1.281 -0.6126 -0.8672  1.1927
 7268TIP3    H246000   0.437   4.711   1.402 -0.1953  0.3866  0.8620
 7269TIP3   OH246001   5.751   0.495   0.777 -0.2947 -0.0048 -0.6776
 7269TIP3    H146002   5.786   0.568   0.828  0.3195  0.8902 -2.3209
 7269TIP3    H246003   5.660   0.520   0.758 -0.4526 -0.2315 -0.2321
 7270TIP3   OH246004   5.617   4.972   2.278  0.2659  0.3478  0.0608
 7270TIP3    H146005   5.660   5.055   2.298 -2.5008  1.6561  1.1469
 7270TIP3    H246006   5.578   4.945   2.361  0.4344 -1.6653 -0.4660
 7271TIP3   OH246007   1.841   6.345   1.694 -0.2128 -0.6091  0.1541
 7271TIP3    H146008   1.876   6.433   1.682 -1.6770  0.1612  1.1810
 7271TIP3    H246009   1.901   6.288   1.647  1.0436  0.8882 -0.1192
 7272TIP3   OH246010   3.831   6.748   9.568 -0.2352 -0.2280  0.0230
 7272TIP3    H146011   3.925   6.744   9.582 -0.3037 -2.8272  0.1572
 7272TIP3    H246012   3.810   6.671   9.515 -2.1759  0.8403 -0.9087
 7273TIP3   OH246013   2.014   1.992   1.412 -0.1352  0.1128  0.2667
 7273TIP3    H146014   1.994   1.932   1.340 -0.1913  1.4820 -0.9139
 7273TIP3    H246015   1.989   1.944   1.491  0.1164 -1.5114 -0.6001
 7274TIP3   OH246016   4.539   2.613   1.536  0.0217  0.0200  0.0052
 7274TIP3    H146017   4.634   2.618   1.539  0.0129 -0.1344  1.3353
 7274TIP3    H246018   4.517   2.545   1.601 -1.0451  0.8752  0.5701
 7275TIP3   OH246019   5.711   3.196   9.170  0.2646  0.3285 -0.5969
 7275TIP3    H146020   5.700   3.290   9.182 -0.4554  0.0161  1.9266
 7275TIP3    H246021   5.801   3.178   9.197  0.0140  0.1695  0.1717
 7276TIP3   OH246022   3.344   5.550   0.241  0.3123  0.5785 -0.1199
 7276TIP3    H146023   3.356   5.564   0.147  1.0004 -1.4846 -0.3905
 7276TIP3    H246024   3.426   5.510   0.270 -0.3730  0.0196  1.1131
 7277TIP3   OH246025   1.680   4.924   8.416 -0.1532  0.3462 -0.3184
 7277TIP3    H146026   1.667   4.936   8.510 -0.5192  1.2619 -0.4707
 7277TIP3    H246027   1.629   4.994   8.376 -2.4531 -1.7435 -1.3375
 7278TIP3   OH246028   0.630   0.753   7.914 -0.0620 -0.3834  0.0599
 7278TIP3    H146029   0.642   0.842   7.882  0.1577  0.3957  2.1189
 7278TIP3    H246030   0.550   0.757   7.968  0.3043 -1.2600  0.7019
 7279TIP3   OH246031   5.860   4.276   7.836 -0.5802  0.0849 -0.5165
 7279TIP3    H146032   5.881   4.216   7.766  0.4597 -2.8306  2.0795
 7279TIP3    H246033   5.767   4.260   7.855 -0.5211 -0.0961 -0.3782
 7280TIP3   OH246034   0.703   4.318   1.405 -0.2419 -0.0744  0.1994
 7280TIP3    H146035   0.748   4.250   1.356  0.5669  1.9284 -2.0672
 7280TIP3    H246036   0.751   4.325   1.488  1.1768 -0.6266 -0.5503
 7281TIP3   OH246037   0.357   0.283   7.094 -0.3206  0.2203 -0.5396
 7281TIP3    H146038   0.328   0.196   7.066 -0.1226 -0.0458  0.0857
 7281TIP3    H246039   0.347   0.283   7.189 -0.4098  0.9160 -0.5407
 7282TIP3   OH246040   4.950   2.366   0.776 -0.1390  0.0628  0.2472
 7282TIP3    H146041   4.958   2.307   0.702  0.4387 -1.1630  1.2432
 7282TIP3    H246042   4.872   2.336   0.823 -0.4920  0.8171  0.1631
 7283TIP3   OH246043   5.915   2.975   8.844 -0.1551  0.1507 -0.4598
 7283TIP3    H146044   5.998   2.977   8.795 -1.3262 -1.0912 -2.6657
 7283TIP3    H246045   5.866   3.051   8.810 -0.7005 -0.3079 -0.7144
 7284TIP3   OH246046   3.520   1.742   1.213 -0.1718  0.5042  0.6323
 7284TIP3    H146047   3.516   1.723   1.307  0.9125  0.6791  0.7344
 7284TIP3    H246048   3.458   1.814   1.200  0.9182  1.6855  1.5656
 7285TIP3   OH246049   1.509   0.965   9.946 -0.2813  0.0473  0.3657
 7285TIP3    H146050   1.514   1.050   9.988 -0.5142 -0.8961  2.4093
 7285TIP3    H246051   1.416   0.952   9.927 -0.3002  0.0728  0.4418
 7286TIP3   OH246052   5.131   2.322   1.622  0.1377  0.4614  0.1183
 7286TIP3    H146053   5.173   2.405   1.602  0.4277  0.5226  0.9564
 7286TIP3    H246054   5.064   2.343   1.687 -0.3713  0.1695 -0.2979
 7287TIP3   OH246055   1.243   6.210   1.002 -0.0723 -0.4019 -0.0768
 7287TIP3    H146056   1.316   6.180   0.947  1.6542  1.4518  1.0674
 7287TIP3    H246057   1.237   6.145   1.071  0.9285 -0.2735  0.1462
 7288TIP3   OH246058   6.097   6.572   9.648  0.2424  0.4607 -0.1475
 7288TIP3    H146059   6.114   6.665   9.635  0.4553  0.3641 -0.5768
 7288TIP3    H246060   6.097   6.560   9.743  1.4813  0.6665 -0.1084
 7289TIP3   OH246061   4.584   1.458   0.808  0.0273  0.1037 -0.0425
 7289TIP3    H146062   4.594   1.502   0.893 -0.3584 -0.6183  0.3915
 7289TIP3    H246063   4.517   1.391   0.824  0.4518 -0.5058 -0.7304
 7290TIP3   OH246064   4.365   5.986   9.582 -0.5542 -0.2098 -0.2289
 7290TIP3    H146065   4.398   5.902   9.552  0.1565 -1.3442  3.2397
 7290TIP3    H246066   4.419   6.051   9.537  3.7789 -1.8799  1.9362
 7291TIP3   OH246067   6.766   5.068   1.974 -0.6649  0.5156 -0.1453
 7291TIP3    H146068   6.772   5.161   1.993  0.2023  0.5100 -0.3548
 7291TIP3    H246069   6.837   5.028   2.023 -1.8630 -0.2330  1.0324
 7292TIP3   OH246070   2.546   0.519   2.050 -0.3043  0.7026 -0.1177
 7292TIP3    H146071   2.466   0.489   2.091 -0.8416  2.1317 -0.0454
 7292TIP3    H246072   2.610   0.522   2.122  0.2159 -1.6057 -0.4034
 7293TIP3   OH246073   4.683   1.094   8.839  0.1078  0.1098  0.6498
 7293TIP3    H146074   4.689   1.185   8.868  1.7911 -0.1994  1.4012
 7293TIP3    H246075   4.773   1.067   8.824 -0.4806 -0.8812 -1.4420
 7294TIP3   OH246076   3.007   2.014   1.613 -0.1395  0.4752  0.4861
 7294TIP3    H146077   3.073   1.995   1.679 -1.4546  0.9143  1.9998
 7294TIP3    H246078   2.953   2.083   1.652  0.0152  1.9537 -1.7463
 7295TIP3   OH246079   6.563   4.717   0.780 -0.0695  0.9801 -0.1150
 7295TIP3    H146080   6.469   4.709   0.766 -0.0571  0.7475 -0.0713
 7295TIP3    H246081   6.599   4.734   0.693  0.1787 -1.9960 -0.6784
 7296TIP3   OH246082   7.045   2.004   0.919 -0.4468 -0.1653 -0.2287
 7296TIP3    H146083   7.116   1.969   0.972  0.2789  1.4547 -0.0922
 7296TIP3    H246084   6.965   1.984   0.969  0.0575 -0.4196  0.4830
 7297TIP3   OH246085   5.463   3.669   7.902 -0.0579 -0.2719  0.0889
 7297TIP3    H146086   5.431   3.608   7.969 -1.5011  0.7248  0.3246
 7297TIP3    H246087   5.420   3.641   7.821  0.7853 -0.7505 -0.2058
 7298TIP3   OH246088   0.630   3.469   0.796 -0.2657 -0.5326  0.5216
 7298TIP3    H146089   0.695   3.419   0.845 -0.0821  0.8177  1.7175
 7298TIP3    H246090   0.622   3.423   0.712  1.5570 -1.2378  0.6956
 7299TIP3   OH246091   0.365   4.249   9.743 -0.0383  0.6572 -0.1003
 7299TIP3    H146092   0.369   4.321   9.805 -0.6056  1.5435 -1.0613
 7299TIP3    H246093   0.384   4.289   9.658  1.4326 -0.6496 -0.4328
 7300TIP3   OH246094   6.241   0.758   7.652  0.3860  0.1645 -0.1523
 7300TIP3    H146095   6.199   0.813   7.717 -0.5373 -0.2275 -0.4023
 7300TIP3    H246096   6.323   0.730   7.693 -0.7719 -1.1659  1.4115
 7301TIP3   OH246097   6.128   0.475   2.993 -0.3062  0.2054  0.4407
 7301TIP3    H146098   6.169   0.556   3.025  2.4615 -0.1700 -1.7336
 7301TIP3    H246099   6.081   0.501   2.914 -0.8818 -0.0495  0.6936
 7302TIP3   OH246100   4.206   3.560   0.344 -0.3690  0.2288 -0.4946
 7302TIP3    H146101   4.157   3.478   0.357 -0.2383  0.1253 -0.6433
 7302TIP3    H246102   4.276   3.556   0.409 -0.3562  0.2154 -0.5090
 7303TIP3   OH246103   0.326   7.009   1.269 -0.4780 -0.3997 -0.4027
 7303TIP3    H146104   0.249   7.065   1.274 -1.3510 -1.4875 -1.1754
 7303TIP3    H246105   0.300   6.928   1.313  0.9569 -0.0308  1.2232
 7304TIP3   OH246106   0.347   3.053   9.217 -0.6155 -0.2532  0.1200
 7304TIP3    H146107   0.328   2.976   9.271 -0.9956 -0.3176 -0.1039
 7304TIP3    H246108   0.412   3.102   9.267  0.1364 -1.0555 -0.0262
 7305TIP3   OH246109   6.660   1.478   2.036 -0.0069 -0.4218 -0.0920
 7305TIP3    H146110   6.753   1.459   2.052  0.3412 -0.6591 -2.1048
 7305TIP3    H246111   6.654   1.573   2.040  0.3360 -0.4042  0.0561
 7306TIP3   OH246112   6.516   4.993   7.489 -0.2742 -0.0370 -0.3117
 7306TIP3    H146113   6.564   5.073   7.509 -1.0285  0.4678 -0.4702
 7306TIP3    H246114   6.546   4.967   7.402 -0.7643  0.6404 -0.6876
 7307TIP3   OH246115   6.299   1.153   9.187  0.3347  0.5027  0.2724
 7307TIP3    H146116   6.263   1.195   9.108  0.0713  1.3819  0.8493
 7307TIP3    H246117   6.241   1.079   9.203  1.6187 -0.9945 -1.5740
 7308TIP3   OH246118   4.927   6.089   0.665 -0.1994  0.0352  0.0935
 7308TIP3    H146119   4.998   6.106   0.603 -0.7042  1.4175 -0.1308
 7308TIP3    H246120   4.950   6.140   0.743 -0.5039 -0.2128  0.3502
 7309TIP3   OH246121   7.019   2.243   1.126 -0.2445  0.3709 -0.5215
 7309TIP3    H146122   6.935   2.278   1.094 -0.5181 -1.3139 -1.7902
 7309TIP3    H246123   7.001   2.216   1.216 -1.2045 -0.3043 -0.8927
 7310TIP3   OH246124   6.819   5.477   8.414 -0.3959 -0.0820  0.3528
 7310TIP3    H146125   6.738   5.502   8.458  0.1267  0.9944  0.7604
 7310TIP3    H246126   6.791   5.426   8.338 -1.4409  0.1309  0.5772
 7311TIP3   OH246127   4.657   3.374   8.682  0.0552 -0.4248 -0.3220
 7311TIP3    H146128   4.729   3.311   8.687  0.2002 -0.2785 -0.5719
 7311TIP3    H246129   4.616   3.369   8.768 -0.5091 -1.5347 -0.6427
 7312TIP3   OH246130   4.711   5.181   3.103 -0.4734 -0.2017 -0.1642
 7312TIP3    H146131   4.725   5.179   3.198 -1.6613  0.8111  0.0599
 7312TIP3    H246132   4.645   5.249   3.090  1.4332  1.4372 -1.9599
 7313TIP3   OH246133   0.283   3.618   1.242 -0.1334  0.3212  0.7105
 7313TIP3    H146134   0.323   3.679   1.180 -0.6943 -0.1943 -0.1930
 7313TIP3    H246135   0.324   3.534   1.222 -1.8012 -0.2748 -0.4168
 7314TIP3   OH246136   0.364   5.419   0.811 -0.0343  0.2538 -0.3393
 7314TIP3    H146137   0.343   5.344   0.866 -0.8009  0.0246 -0.9336
 7314TIP3    H246138   0.457   5.407   0.789 -0.3478 -0.9559 -1.0947
 7315TIP3   OH246139   4.992   6.485   0.648  0.6126 -0.2366  0.6185
 7315TIP3    H146140   4.989   6.538   0.727  0.9556 -2.0265  1.8989
 7315TIP3    H246141   4.901   6.459   0.634  0.6851 -0.7405  1.0382
 7316TIP3   OH246142   0.098   4.477   7.789 -0.1884 -0.0650  0.2271
 7316TIP3    H146143   0.025   4.490   7.850 -0.3259 -0.9062  0.2589
 7316TIP3    H246144   0.056   4.454   7.706  0.0249  0.1929  0.0466
 7317TIP3   OH246145   2.805   2.250   8.019  0.1706  0.3355 -0.1889
 7317TIP3    H146146   2.823   2.157   8.007  0.7868  0.6351 -1.9886
 7317TIP3    H246147   2.713   2.253   8.046  0.1517 -0.7967 -0.0716
 7318TIP3   OH246148   4.983   2.509   9.967 -0.8320 -0.1923 -0.5820
 7318TIP3    H146149   4.932   2.552  10.036 -1.2590 -0.7328 -0.5555
 7318TIP3    H246150   4.964   2.416   9.978 -2.0762 -0.1931 -2.3494
 7319TIP3   OH246151   0.822   3.540   8.372 -0.7977  0.1687  0.3092
 7319TIP3    H146152   0.836   3.491   8.292 -1.0130 -0.9549  0.9321
 7319TIP3    H246153   0.838   3.477   8.442  0.0903  1.3019  1.1796
 7320TIP3   OH246154   5.696   3.807   0.601  0.3290  0.4566 -0.7678
 7320TIP3    H146155   5.633   3.877   0.585  0.3865  0.6843 -0.0494
 7320TIP3    H246156   5.691   3.752   0.523  1.3506  2.0501 -2.0407
 7321TIP3   OH246157   5.054   5.410   9.078  0.0197 -0.1779 -0.2436
 7321TIP3    H146158   4.990   5.377   9.015 -0.1253 -0.3367 -0.0152
 7321TIP3    H246159   5.123   5.344   9.078 -0.1182 -0.3231 -0.0233
 7322TIP3   OH246160   5.202   1.110   2.652  0.3856 -0.2174  0.4863
 7322TIP3    H146161   5.252   1.181   2.692  1.3669  0.2969 -1.5494
 7322TIP3    H246162   5.114   1.146   2.640  0.8599  0.6653 -0.4689
 7323TIP3   OH246163   4.072   5.339   1.823  0.2622  0.1552 -0.5716
 7323TIP3    H146164   3.981   5.310   1.823  0.3625 -0.1882  0.4227
 7323TIP3    H246165   4.110   5.300   1.902  0.6516  2.2488  0.3311
 7324TIP3   OH246166   3.254   6.273   8.989 -0.2700  0.1161 -0.5151
 7324TIP3    H146167   3.235   6.366   9.003 -0.5758 -0.1943  1.3923
 7324TIP3    H246168   3.172   6.228   9.009  0.1302 -0.6306 -0.5107
 7325TIP3   OH246169   6.836   6.816   0.098  0.3355 -0.6350 -0.0995
 7325TIP3    H146170   6.871   6.732   0.067  1.2106 -0.2570 -0.1504
 7325TIP3    H246171   6.885   6.882   0.050 -0.5500 -0.0899 -0.2643
 7326TIP3   OH246172   6.982   1.841   9.754  0.1617 -0.0449  0.3974
 7326TIP3    H146173   7.077   1.826   9.756  0.1925  0.2262  1.0363
 7326TIP3    H246174   6.957   1.823   9.663  0.8763  0.1920  0.1491
 7327TIP3   OH246175   4.573   0.746   7.013  0.8149 -0.3501  0.5186
 7327TIP3    H146176   4.492   0.762   7.062  0.1509  2.5380 -1.2899
 7327TIP3    H246177   4.548   0.679   6.948  0.3184 -0.6178  0.9750
 7328TIP3   OH246178   3.503   6.940   1.842  0.1929 -0.3103  0.2852
 7328TIP3    H146179   3.453   6.871   1.798  1.5177 -0.0188 -1.8472
 7328TIP3    H246180   3.444   7.016   1.842 -0.3072 -0.6953  0.1674
 7329TIP3   OH246181   0.026   5.918   2.180 -0.1257 -0.2918 -0.0435
 7329TIP3    H146182   0.059   5.999   2.143 -0.7814  0.4526  0.9537
 7329TIP3    H246183  -0.056   5.901   2.134 -0.5390  0.2059  0.4995
 7330TIP3   OH246184   1.954   1.933   1.703 -0.6034  0.6498  0.4854
 7330TIP3    H146185   2.006   2.013   1.703 -0.9471  0.8768 -0.2003
 7330TIP3    H246186   1.992   1.880   1.774  0.5004  0.8561  0.0755
 7331TIP3   OH246187   2.992   6.830   2.882  0.3400  0.7283 -0.0777
 7331TIP3    H146188   2.927   6.851   2.815  0.7178  0.9904 -0.3605
 7331TIP3    H246189   2.945   6.839   2.965  0.1324  1.3305 -0.2610
 7332TIP3   OH246190   6.882   6.531   9.384 -0.2447 -0.0172 -0.5685
 7332TIP3    H146191   6.904   6.486   9.303  1.1101 -0.6667  0.1308
 7332TIP3    H246192   6.899   6.623   9.365  2.0409 -0.3596 -0.4500
 7333TIP3   OH246193   2.444   6.010   2.108  0.0454  0.1289 -0.1134
 7333TIP3    H146194   2.496   6.078   2.151 -0.4853  1.1366 -1.0065
 7333TIP3    H246195   2.354   6.044   2.110 -0.1786 -0.3873 -0.8620
 7334TIP3   OH246196   1.630   6.541   9.311  0.2840  0.0917 -0.6500
 7334TIP3    H146197   1.659   6.602   9.379 -0.3798 -1.1507  0.8020
 7334TIP3    H246198   1.555   6.496   9.349  0.7916 -1.6791 -1.6306
 7335TIP3   OH246199   5.967   3.164   2.163 -0.3154  0.8567 -0.5016
 7335TIP3    H146200   5.872   3.153   2.162 -0.0889 -1.6649 -1.8961
 7335TIP3    H246201   5.986   3.211   2.082 -0.2677 -0.3208 -1.1983
 7336TIP3   OH246202   5.909   3.176   0.219  0.1400  0.3380 -0.0909
 7336TIP3    H146203   5.962   3.104   0.182  0.8548  1.3227 -1.0691
 7336TIP3    H246204   5.874   3.140   0.300 -1.4381 -1.9370 -1.6417
 7337TIP3   OH246205   5.474   4.920   1.312 -0.0322  0.6481  0.3670
 7337TIP3    H146206   5.531   4.890   1.383 -1.1152  2.5003  2.1335
 7337TIP3    H246207   5.420   4.989   1.352 -1.6549  0.8192 -1.9133
 7338TIP3   OH246208   4.576   5.501   8.009  0.0191  0.0926  0.4972
 7338TIP3    H146209   4.503   5.561   8.023 -0.7519 -1.0552  1.5473
 7338TIP3    H246210   4.559   5.428   8.068  1.8633 -0.3507  0.5306
 7339TIP3   OH246211   3.052   1.250   1.441  0.0349 -0.4011  0.4020
 7339TIP3    H146212   3.104   1.241   1.521  2.1493 -0.7309 -0.9308
 7339TIP3    H246213   3.091   1.188   1.380 -1.6167 -0.2567 -0.8669
 7340TIP3   OH246214   6.396   5.721   9.953 -0.0527  0.5989  0.7223
 7340TIP3    H146215   6.422   5.813   9.960 -1.1483  0.8878  1.1325
 7340TIP3    H246216   6.322   5.712  10.012 -0.5169 -0.3449  0.0291
 7341TIP3   OH246217   0.489   0.299   2.060  0.0854  0.1253  0.3201
 7341TIP3    H146218   0.501   0.361   1.988  1.5202 -0.7585 -0.2560
 7341TIP3    H246219   0.448   0.222   2.020 -0.7198  0.2827  0.8182
 7342TIP3   OH246220   3.278   2.764   8.980 -0.0998  0.5095  0.4697
 7342TIP3    H146221   3.297   2.713   9.059  0.1267  1.7377  1.2399
 7342TIP3    H246222   3.274   2.699   8.909 -0.9437 -0.6886  1.5793
 7343TIP3   OH246223   1.298   5.691   2.711  0.1081  0.2781 -0.2343
 7343TIP3    H146224   1.213   5.668   2.750  0.4523  0.5994  0.7230
 7343TIP3    H246225   1.360   5.629   2.750  0.1930 -0.5558 -1.6114
 7344TIP3   OH246226   1.434   3.810   7.854 -0.1599 -0.0531  0.6685
 7344TIP3    H146227   1.405   3.740   7.795 -1.8299  1.4989 -0.4473
 7344TIP3    H246228   1.368   3.811   7.923  0.8920 -0.7652  1.7264
 7345TIP3   OH246229   6.809   5.537   0.865 -0.1547  0.2718  0.4477
 7345TIP3    H146230   6.849   5.607   0.917 -0.7145 -1.1578  2.9627
 7345TIP3    H246231   6.820   5.458   0.918 -0.6598 -1.3507 -1.7165
 7346TIP3   OH246232   2.115   2.745   1.650 -0.3011 -0.6884  0.3430
 7346TIP3    H146233   2.075   2.660   1.635  0.3453 -1.2861  1.8347
 7346TIP3    H246234   2.203   2.725   1.684  1.3181  0.5521 -2.6599
 7347TIP3   OH246235   0.573   0.186   9.303  0.7568 -0.4152  0.5425
 7347TIP3    H146236   0.497   0.128   9.303  0.8181 -0.5564 -0.8956
 7347TIP3    H246237   0.622   0.162   9.381 -0.1263 -1.0768  0.9064
 7348TIP3   OH246238   6.950   4.967   9.990  0.0261  0.2255 -0.4757
 7348TIP3    H146239   6.951   4.880   9.952  0.6956  0.1640 -0.3351
 7348TIP3    H246240   7.014   5.017   9.938  0.6968  0.2323  0.3262
 7349TIP3   OH246241   4.577   6.565   0.496 -0.4694 -0.2059 -0.0201
 7349TIP3    H146242   4.609   6.585   0.584  0.9791 -0.6921 -0.4081
 7349TIP3    H246243   4.482   6.573   0.503 -0.3740 -0.0831  1.5482
 7350TIP3   OH246244   0.842   1.647   2.111  0.0425 -0.2237 -0.2805
 7350TIP3    H146245   0.800   1.604   2.036 -1.7065  0.3888  0.3109
 7350TIP3    H246246   0.816   1.738   2.104  0.6350  0.0199  0.5735
 7351TIP3   OH246247   4.341   6.285   9.733 -0.4058 -0.2962  0.0001
 7351TIP3    H146248   4.390   6.356   9.775 -0.0536 -0.7677  0.4151
 7351TIP3    H246249   4.407   6.238   9.681 -0.4303 -0.8667  0.4699
 7352TIP3   OH246250   0.975   0.861   0.823  0.1678 -0.2025 -0.3176
 7352TIP3    H146251   0.916   0.852   0.897  1.4545  0.9934  0.9385
 7352TIP3    H246252   1.053   0.812   0.849  0.4568 -0.1543 -1.0788
 7353TIP3   OH246253   5.837   2.023   2.826 -0.1298 -0.3267 -0.3969
 7353TIP3    H146254   5.762   1.963   2.834  0.8082 -1.3252  1.4209
 7353TIP3    H246255   5.822   2.089   2.893  0.9565 -0.9674  0.5141
 7354TIP3   OH246256   1.802   6.639   0.722 -0.0561  0.6479  0.3013
 7354TIP3    H146257   1.715   6.677   0.733 -0.1210  0.6155 -0.0833
 7354TIP3    H246258   1.850   6.666   0.800 -0.8979 -0.7261  1.3410
 7355TIP3   OH246259   2.205   6.586   7.581 -0.0035  0.1340  0.6655
 7355TIP3    H146260   2.225   6.679   7.597  1.2530 -0.2922  1.7779
 7355TIP3    H246261   2.244   6.540   7.655 -0.3927 -1.3202  0.0042
 7356TIP3   OH246262   3.551   1.097   7.464 -0.3060  0.4954  0.1893
 7356TIP3    H146263   3.586   1.107   7.552  1.7718 -1.5168 -0.3236
 7356TIP3    H246264   3.550   1.186   7.429  0.7596  1.0851  1.5630
 7357TIP3   OH246265   0.795   1.408   7.492  0.1878 -0.0293 -0.2338
 7357TIP3    H146266   0.811   1.317   7.518  0.9863  0.5749  1.5718
 7357TIP3    H246267   0.700   1.420   7.502 -0.1090 -0.9810 -1.6951
 7358TIP3   OH246268   2.743   0.680   8.655 -0.0154 -0.6584  0.3368
 7358TIP3    H146269   2.777   0.612   8.713  0.9628 -1.0321 -0.6332
 7358TIP3    H246270   2.809   0.687   8.586 -0.0237  1.3753  0.4799
 7359TIP3   OH246271   3.702   0.816   8.784 -0.2339  0.2383 -0.1646
 7359TIP3    H146272   3.741   0.764   8.856 -0.4245 -0.7157 -0.7261
 7359TIP3    H246273   3.609   0.794   8.787 -0.0877 -0.6443 -1.3472
 7360TIP3   OH246274   2.256   0.903   9.140 -0.1560  0.1399 -0.0365
 7360TIP3    H146275   2.206   0.976   9.177 -1.1146  0.3373 -1.6389
 7360TIP3    H246276   2.311   0.874   9.212 -1.5350  0.8576  1.3879
 7361TIP3   OH246277   5.117   0.850   1.185 -0.0940 -0.0589 -0.3475
 7361TIP3    H146278   5.180   0.882   1.250 -0.4784  0.6488 -0.3127
 7361TIP3    H246279   5.054   0.922   1.175 -0.1337 -0.2255 -1.3871
 7362TIP3   OH246280   2.156   2.604   1.257 -0.0739  0.9408  0.0199
 7362TIP3    H146281   2.204   2.635   1.333  0.4876  0.6495 -0.2131
 7362TIP3    H246282   2.223   2.579   1.194 -0.5194 -0.0940 -0.0613
 7363TIP3   OH246283   4.903   5.486   8.173  0.0689 -0.4344 -0.0865
 7363TIP3    H146284   4.820   5.526   8.148  0.4930 -0.2497 -1.2726
 7363TIP3    H246285   4.947   5.553   8.226 -0.7355 -0.7277  0.9810
 7364TIP3   OH246286   2.470   4.954   1.813 -0.6101 -0.6621  0.5525
 7364TIP3    H146287   2.432   4.928   1.897 -0.2252 -1.6627  0.4245
 7364TIP3    H246288   2.551   4.905   1.807  0.2471  0.7257  0.3803
 7365TIP3   OH246289   6.147   7.102   9.521 -0.6180 -0.1985 -0.4432
 7365TIP3    H146290   6.102   7.045   9.584  1.0386 -1.4028 -0.2546
 7365TIP3    H246291   6.166   7.044   9.447 -0.5862  0.6346 -1.0964
 7366TIP3   OH246292   0.356   0.106   9.006 -0.4765  0.3602  0.6483
 7366TIP3    H146293   0.429   0.068   9.054 -0.4046 -0.1626  0.1372
 7366TIP3    H246294   0.394   0.131   8.921 -1.1135 -0.9057 -0.0351
 7367TIP3   OH246295   3.536   4.581   9.224  0.3165 -0.2035 -0.6382
 7367TIP3    H146296   3.474   4.510   9.206  0.3584 -0.4461  0.1597
 7367TIP3    H246297   3.537   4.632   9.143 -0.0156 -0.8817 -1.0792
 7368TIP3   OH246298   3.123   3.747   1.696 -0.1506 -0.2107  0.0794
 7368TIP3    H146299   3.100   3.806   1.625  1.4118 -0.7551 -0.9246
 7368TIP3    H246300   3.113   3.799   1.776  0.6919  1.2412 -0.7450
 7369TIP3   OH246301   2.253   5.821   9.676 -0.2440  0.5092  0.0304
 7369TIP3    H146302   2.267   5.867   9.759  1.0123  0.1829  0.0156
 7369TIP3    H246303   2.158   5.809   9.672 -0.7761  3.8569 -0.3824
 7370TIP3   OH246304   1.836   2.923   7.486 -0.6255  0.1952 -0.2082
 7370TIP3    H146305   1.756   2.947   7.438 -0.2676  0.2093 -0.7955
 7370TIP3    H246306   1.905   2.977   7.446  0.2288 -1.8446 -1.6266
 7371TIP3   OH246307   5.772   2.932   7.795  0.1875 -0.0991  0.2822
 7371TIP3    H146308   5.849   2.989   7.790 -0.9953  1.4565 -1.9824
 7371TIP3    H246309   5.774   2.883   7.713 -1.3507  0.1595  0.0682
 7372TIP3   OH246310   3.148   5.351   1.733 -0.1190  0.3317  0.0056
 7372TIP3    H146311   3.174   5.280   1.674  1.3255  0.3796  0.5408
 7372TIP3    H246312   3.165   5.431   1.683  0.6384  0.3579  0.2930
 7373TIP3   OH246313   3.535   4.244   0.276  0.1410 -0.3375 -0.1780
 7373TIP3    H146314   3.445   4.241   0.244  0.1918  1.7679 -0.7039
 7373TIP3    H246315   3.527   4.260   0.370 -0.0035 -2.2197  0.1591
 7374TIP3   OH246316   3.522   3.936   1.715 -0.1919  0.3275  0.1087
 7374TIP3    H146317   3.483   4.002   1.773  0.6233  0.0326  1.0222
 7374TIP3    H246318   3.472   3.944   1.634 -2.0124  0.0971  1.1467
 7375TIP3   OH246319   0.847   4.886   1.046  0.1388  0.1703 -0.1780
 7375TIP3    H146320   0.900   4.964   1.027  0.1609  0.3864  0.7389
 7375TIP3    H246321   0.756   4.915   1.034  0.1415 -0.8584 -4.3680
 7376TIP3   OH246322   2.095   0.134   2.138  0.1422  0.0723 -0.3544
 7376TIP3    H146323   2.092   0.089   2.223  1.0193 -0.9146 -0.8294
 7376TIP3    H246324   2.122   0.067   2.076  0.6891  1.0718 -1.2272
 7377TIP3   OH246325   3.399   7.147   0.435  0.4828  0.1812 -0.1504
 7377TIP3    H146326   3.336   7.075   0.429  0.0985  0.4427  0.5629
 7377TIP3    H246327   3.424   7.149   0.527  0.9648  0.5606 -0.2897
 7378TIP3   OH246328   1.541   3.024   0.931  0.2364 -0.4804  0.4985
 7378TIP3    H146329   1.580   2.942   0.958 -1.1632 -0.6052  2.2946
 7378TIP3    H246330   1.534   3.076   1.011 -2.0475  0.0195  0.0477
 7379TIP3   OH246331   2.208   6.399   1.568  0.4183 -0.1278 -0.1083
 7379TIP3    H146332   2.231   6.478   1.617  1.5895  0.4468 -1.4978
 7379TIP3    H246333   2.160   6.345   1.630  0.6759  1.1404  1.2470
 7380TIP3   OH246334   4.091   1.017   2.415  0.3359  0.3140  0.2275
 7380TIP3    H146335   4.033   1.042   2.487 -0.6064 -0.3426 -0.2833
 7380TIP3    H246336   4.164   0.972   2.458 -0.3478 -0.3102  0.7687
 7381TIP3   OH246337   0.963   4.638   2.023 -0.4323 -0.8091  0.0509
 7381TIP3    H146338   1.058   4.646   2.011 -0.7061  0.7135 -1.4404
 7381TIP3    H246339   0.930   4.611   1.938 -1.4363 -0.3181  0.2735
 7382TIP3   OH246340   0.966   6.223   1.388 -0.2492 -0.0296 -0.7132
 7382TIP3    H146341   0.998   6.151   1.443  0.6655  0.5612 -0.4357
 7382TIP3    H246342   1.030   6.293   1.402 -1.1085  0.8292 -0.9919
 7383TIP3   OH246343   1.805   4.556   6.932  0.2479 -0.4111  0.2811
 7383TIP3    H146344   1.729   4.540   6.877  0.3386 -0.6928  0.2412
 7383TIP3    H246345   1.842   4.638   6.898 -0.4038  0.0801  0.7037
 7384TIP3   OH246346   6.494   0.851   8.373 -0.3737  0.6468  0.5214
 7384TIP3    H146347   6.528   0.933   8.406 -1.2899  1.3886 -0.2884
 7384TIP3    H246348   6.412   0.837   8.422 -0.5480  0.5514  0.2082
 7385TIP3   OH246349   3.988   3.145   9.036 -0.4803  0.0924 -0.2977
 7385TIP3    H146350   4.036   3.153   8.953 -0.7594  0.4223 -0.4294
 7385TIP3    H246351   3.923   3.077   9.019 -0.5211  0.1423 -0.3415
 7386TIP3   OH246352   0.196   3.799   1.067  0.6074  0.7525  0.2676
 7386TIP3    H146353   0.193   3.801   1.162  3.2780  0.6102  0.4278
 7386TIP3    H246354   0.185   3.890   1.040  1.2379  0.9928  0.8078
 7387TIP3   OH246355   1.411   0.952   0.864  0.3020 -0.1257  0.5462
 7387TIP3    H146356   1.498   0.969   0.829 -0.4263 -0.0905 -1.3787
 7387TIP3    H246357   1.357   1.024   0.831 -0.6298 -0.5952  1.0089
 7388TIP3   OH246358   6.408   6.792   0.204 -0.2928  0.4786 -0.4320
 7388TIP3    H146359   6.420   6.757   0.116  0.2230 -0.1412 -0.1249
 7388TIP3    H246360   6.456   6.875   0.204  1.0687 -0.2767 -0.2774
 7389TIP3   OH246361   6.196   5.632   1.432  0.3134 -0.2252  0.6208
 7389TIP3    H146362   6.191   5.543   1.465  0.4393  0.4122  2.4857
 7389TIP3    H246363   6.263   5.629   1.364  0.7749 -1.4353  1.1067
 7390TIP3   OH246364   3.148   5.510   9.989  0.6034 -0.3975  0.4607
 7390TIP3    H146365   3.182   5.425   9.961 -0.9425 -0.6124 -0.9160
 7390TIP3    H246366   3.214   5.573   9.959  1.2356 -1.0214  0.5284
 7391TIP3   OH246367   0.772   3.876   8.736  0.1442  0.1777 -0.3569
 7391TIP3    H146368   0.826   3.955   8.743  0.1172  0.2675 -1.0399
 7391TIP3    H246369   0.773   3.838   8.823  1.9451 -0.2401 -0.5259
 7392TIP3   OH246370   1.854   7.141   1.617  0.0084  0.3625  0.3887
 7392TIP3    H146371   1.824   7.207   1.679  2.1617  2.7465 -0.9115
 7392TIP3    H246372   1.949   7.152   1.614  0.2524 -1.6269 -1.1970
 7393TIP3   OH246373   2.524   5.809   7.960 -0.3333  0.3425 -0.6458
 7393TIP3    H146374   2.593   5.860   7.918 -0.5814  1.3037  0.0811
 7393TIP3    H246375   2.486   5.757   7.889  0.2368  0.8218 -1.3142
 7394TIP3   OH246376   0.891   5.207   7.406  0.6987  0.2198  0.0609
 7394TIP3    H146377   0.832   5.280   7.427 -0.9950 -0.0042 -3.2178
 7394TIP3    H246378   0.886   5.150   7.483 -2.7649  0.6779  0.3659
 7395TIP3   OH246379   5.813   1.708   9.249  0.2224 -1.0422 -0.2658
 7395TIP3    H146380   5.883   1.764   9.216 -0.9318  0.0163 -0.9831
 7395TIP3    H246381   5.809   1.727   9.342  1.4639 -1.7829 -0.0329
 7396TIP3   OH246382   5.075   1.078   9.631  0.2643  0.2105 -0.1224
 7396TIP3    H146383   5.091   1.170   9.654 -1.6785  0.1537  1.7021
 7396TIP3    H246384   4.991   1.080   9.586 -0.6346 -0.8379  1.4420
 7397TIP3   OH246385   0.938   1.971   0.317 -0.6666 -0.0838  0.1153
 7397TIP3    H146386   0.846   1.946   0.314  0.0340 -3.0417  0.4148
 7397TIP3    H246387   0.972   1.932   0.398  0.6452  1.9279  0.6282
 7398TIP3   OH246388   2.031   6.744   8.756  0.7306  0.5479  0.1743
 7398TIP3    H146389   2.020   6.825   8.706 -0.4306  0.7956  0.7980
 7398TIP3    H246390   1.944   6.726   8.791  0.6690 -1.6119 -0.8994
 7399TIP3   OH246391   3.709   0.100   9.309 -0.2904  0.0333  0.4431
 7399TIP3    H146392   3.614   0.102   9.294 -0.4225  0.1446  1.2117
 7399TIP3    H246393   3.739   0.022   9.263 -0.6951  0.2219 -0.1496
 7400TIP3   OH246394   6.538   0.619   9.531  0.4128 -0.6438  0.2425
 7400TIP3    H146395   6.590   0.658   9.601  2.1776 -0.5300 -1.0755
 7400TIP3    H246396   6.602   0.578   9.473 -0.9041 -0.0945 -1.7082
 7401TIP3   OH246397   4.421   6.436   2.140 -0.2923  0.0391 -0.1386
 7401TIP3    H146398   4.366   6.409   2.067  0.8241  0.7722 -1.2839
 7401TIP3    H246399   4.366   6.495   2.191 -1.0735 -0.4605 -0.3890
 7402TIP3   OH246400   4.921   5.544   2.625  0.1831 -0.4732  0.0308
 7402TIP3    H146401   4.847   5.561   2.684  0.9974 -0.7456  1.1620
 7402TIP3    H246402   4.943   5.630   2.589 -1.0118 -0.4723 -0.7360
 7403TIP3   OH246403   1.958   3.246   7.911 -0.2099 -0.6788  0.2569
 7403TIP3    H146404   1.871   3.285   7.916  0.1566  0.0638  1.4373
 7403TIP3    H246405   2.018   3.319   7.924  0.5928 -1.1964 -0.4351
 7404TIP3   OH246406   3.185   6.444   0.683 -1.1082  0.5183  0.6522
 7404TIP3    H146407   3.183   6.353   0.714  1.2402  0.3947  0.6458
 7404TIP3    H246408   3.165   6.438   0.590 -1.6790  0.0922  0.7987
 7405TIP3   OH246409   6.288   1.174   2.417 -0.0328 -0.1213  0.0901
 7405TIP3    H146410   6.261   1.208   2.502  1.3898 -1.4839  1.1383
 7405TIP3    H246411   6.368   1.223   2.397  0.5900 -1.0050  0.3771
 7406TIP3   OH246412   1.677   1.401   0.658  0.2764  0.0110  0.5720
 7406TIP3    H146413   1.601   1.346   0.638  0.9007 -0.1940 -1.4804
 7406TIP3    H246414   1.638   1.485   0.684 -0.6629 -0.2835  0.1791
 7407TIP3   OH246415   1.020   1.407   7.344  0.0511 -0.3573  0.2636
 7407TIP3    H146416   0.956   1.441   7.406 -0.3378  2.2612 -1.4074
 7407TIP3    H246417   0.968   1.376   7.270  0.5991  0.2402 -0.3938
 7408TIP3   OH246418   3.895   1.575   9.541 -0.4000 -0.0629 -0.4247
 7408TIP3    H146419   3.910   1.491   9.584 -0.4714 -0.5805 -1.3861
 7408TIP3    H246420   3.831   1.619   9.597  0.3668 -0.2281  0.6078
 7409TIP3   OH246421   0.250   6.680   1.786 -0.5027 -0.1266 -0.9329
 7409TIP3    H146422   0.286   6.769   1.787 -1.5407  0.3223 -1.3838
 7409TIP3    H246423   0.212   6.669   1.874 -1.7978  0.5166 -1.3778
 7410TIP3   OH246424   6.833   6.277   2.461  0.3489 -0.7234 -0.6245
 7410TIP3    H146425   6.834   6.197   2.513 -0.5705 -1.0663 -1.1083
 7410TIP3    H246426   6.845   6.348   2.524  2.2049 -1.2883 -0.3134
 7411TIP3   OH246427   2.853   0.306   0.452  0.3826  0.3817  0.3362
 7411TIP3    H146428   2.851   0.211   0.459  0.8525  0.3818  0.5451
 7411TIP3    H246429   2.893   0.324   0.367  0.9522  0.3885  0.5988
 7412TIP3   OH246430   3.334   5.840   6.477 -0.0659  0.1848  0.3124
 7412TIP3    H146431   3.334   5.755   6.521 -0.9135 -0.5790 -1.0605
 7412TIP3    H246432   3.257   5.836   6.420  1.1483  0.9545 -1.4721
 7413TIP3   OH246433   1.513   2.665   1.627  0.0059  0.4259  0.5075
 7413TIP3    H146434   1.591   2.633   1.672  0.1284  0.9703  0.6862
 7413TIP3    H246435   1.443   2.607   1.657  0.7103 -1.5822 -1.4067
 7414TIP3   OH246436   0.549   1.582   0.868  0.3767  0.3226 -0.5323
 7414TIP3    H146437   0.504   1.631   0.800  1.3171  0.8302 -0.8132
 7414TIP3    H246438   0.493   1.591   0.945  0.0145  0.9708 -0.8592
 7415TIP3   OH246439   1.789   2.756   1.508  0.1269  0.0017  0.1570
 7415TIP3    H146440   1.727   2.695   1.466 -0.5990  0.5298  0.4345
 7415TIP3    H246441   1.865   2.756   1.450 -0.9544  0.9048 -1.3159
 7416TIP3   OH246442   7.256   3.391   2.449 -0.0993  0.2679 -0.4121
 7416TIP3    H146443   7.308   3.465   2.417 -1.1791  1.6057  0.7485
 7416TIP3    H246444   7.170   3.430   2.469  0.0368 -0.7273  2.5534
 7417TIP3   OH246445   3.536   4.577   1.010 -0.0282 -0.2652  0.9680
 7417TIP3    H146446   3.507   4.548   0.924  3.3803  1.5167 -0.9827
 7417TIP3    H246447   3.532   4.499   1.065 -1.8428 -1.5505 -0.8703
 7418TIP3   OH246448   1.929   3.684   7.832  0.2646  0.1490 -0.3231
 7418TIP3    H146449   1.905   3.658   7.743  2.1824  0.6306 -1.0214
 7418TIP3    H246450   1.972   3.606   7.869 -0.8778 -0.1850  0.3539
 7419TIP3   OH246451   3.933   3.058   8.119 -0.1783  0.0413  0.1681
 7419TIP3    H146452   4.028   3.043   8.118 -0.1300  0.2766  0.7758
 7419TIP3    H246453   3.924   3.150   8.143 -0.5993 -0.3940  1.7616
 7420TIP3   OH246454   1.336   4.532   1.426  0.4291 -0.1758 -0.5944
 7420TIP3    H146455   1.378   4.461   1.475  1.8043 -0.2239 -1.7682
 7420TIP3    H246456   1.351   4.610   1.479 -1.5539 -0.7880  0.9723
 7421TIP3   OH246457   2.213   6.304   7.287 -0.4055 -0.0107  0.6220
 7421TIP3    H146458   2.130   6.294   7.333 -0.8640  0.6130 -0.0582
 7421TIP3    H246459   2.219   6.397   7.268  0.5058 -0.0323  0.7526
 7422TIP3   OH246460   5.055   0.735   2.276  0.8471  0.3395 -0.1325
 7422TIP3    H146461   5.038   0.655   2.326 -1.5351  1.2582  0.6988
 7422TIP3    H246462   5.025   0.806   2.333  2.1779  1.7944 -1.1514
 7423TIP3   OH246463   4.155   2.503   9.527 -0.3592 -0.5885  0.5159
 7423TIP3    H146464   4.228   2.493   9.466  0.4017 -0.6482  1.4263
 7423TIP3    H246465   4.168   2.434   9.592 -1.8080 -1.2684  0.1301
 7424TIP3   OH246466   0.092   3.484   0.180 -0.2803 -0.5239  0.0911
 7424TIP3    H146467   0.181   3.518   0.175 -0.6730  0.5652  0.2346
 7424TIP3    H246468   0.102   3.389   0.177  0.7527 -0.4020 -1.9783
 7425TIP3   OH246469   5.156   4.530   9.362 -0.2329 -0.2471  0.3412
 7425TIP3    H146470   5.089   4.482   9.410 -0.3184  1.0328  1.5614
 7425TIP3    H246471   5.239   4.503   9.402  0.0485 -1.9349 -1.2587
 7426TIP3   OH246472   4.278   0.618   7.948 -0.2962 -0.1440  0.4336
 7426TIP3    H146473   4.260   0.530   7.913  1.8042 -1.5398  2.5702
 7426TIP3    H246474   4.342   0.655   7.888  1.0467 -1.3149  1.0928
 7427TIP3   OH246475   4.084   1.735   2.194 -0.1576  0.0107  0.4686
 7427TIP3    H146476   4.153   1.670   2.204 -1.1533 -1.4048 -1.1845
 7427TIP3    H246477   4.023   1.717   2.265  0.8159  0.8691  1.5638
 7428TIP3   OH246478   2.725   2.931   1.013 -0.4744 -0.2229  0.1881
 7428TIP3    H146479   2.740   2.844   1.050  0.1382  1.0354  3.1418
 7428TIP3    H246480   2.790   2.987   1.054 -2.9633  2.3046  1.0676
 7429TIP3   OH246481   6.507   3.251   7.780 -0.0950  0.0171 -0.6196
 7429TIP3    H146482   6.564   3.329   7.776  0.0242 -0.0263  0.1231
 7429TIP3    H246483   6.434   3.272   7.721  0.2883  0.3996 -0.9687
 7430TIP3   OH246484   3.341   6.605   8.762  0.0940 -0.0643 -0.3877
 7430TIP3    H146485   3.278   6.628   8.695 -0.5774 -0.2752  0.1570
 7430TIP3    H246486   3.398   6.540   8.721 -1.1234 -1.1909 -0.3491
 7431TIP3   OH246487   4.353   1.066   7.703 -0.6483  0.2104  0.1577
 7431TIP3    H146488   4.357   0.972   7.682 -0.2544  0.4765 -1.0616
 7431TIP3    H246489   4.261   1.089   7.693 -0.5907  0.1554 -0.5552
 7432TIP3   OH246490   2.684   3.207   1.764  0.5775  0.1934  0.1413
 7432TIP3    H146491   2.759   3.207   1.823  0.4028 -0.5117  0.3799
 7432TIP3    H246492   2.719   3.235   1.679  1.0590  0.0817  0.3031
 7433TIP3   OH246493   6.124   5.397   9.876 -0.0596  0.9730 -0.6684
 7433TIP3    H146494   6.095   5.327   9.935  1.7617  0.7049 -0.0233
 7433TIP3    H246495   6.214   5.374   9.854  0.6818  3.2373 -0.2479
 7434TIP3   OH246496   2.813   5.186   9.349  0.4333  0.0615 -0.1276
 7434TIP3    H146497   2.765   5.231   9.279  0.8348  0.9745  0.1664
 7434TIP3    H246498   2.791   5.234   9.428  0.7111 -0.3958  0.2368
 7435TIP3   OH246499   5.836   5.173   7.617  0.2080 -0.3171  0.3107
 7435TIP3    H146500   5.763   5.112   7.630  0.3927 -0.2941  1.6698
 7435TIP3    H246501   5.879   5.142   7.537 -0.9353 -0.6836 -0.1824
 7436TIP3   OH246502   1.500   1.205   7.501 -0.5852 -0.6156 -0.0300
 7436TIP3    H146503   1.583   1.160   7.519 -0.1842  0.0290 -0.2275
 7436TIP3    H246504   1.467   1.229   7.588 -0.1292 -0.1164  0.0107
 7437TIP3   OH246505   4.937   4.482   2.580  0.0879 -0.3988 -0.2536
 7437TIP3    H146506   4.869   4.426   2.618 -0.5221  0.1259 -0.5387
 7437TIP3    H246507   4.891   4.564   2.560  0.7287 -0.1640 -0.7820
 7438TIP3   OH246508   4.253   4.100   9.611 -0.0522  0.3695 -0.0131
 7438TIP3    H146509   4.272   4.141   9.695 -0.7324  1.5733 -0.4357
 7438TIP3    H246510   4.279   4.165   9.545 -0.8374  0.0090 -0.7006
 7439TIP3   OH246511   3.968   0.243   9.957 -0.1832  0.3457 -0.4514
 7439TIP3    H146512   3.904   0.235  10.027  0.2697 -3.0192 -0.2552
 7439TIP3    H246513   4.048   0.273  10.000 -0.8701  1.9727 -0.2465
 7440TIP3   OH246514   3.243   6.606   7.907  0.5105  0.2362 -0.1427
 7440TIP3    H146515   3.162   6.655   7.894 -0.2581 -0.6103  1.2009
 7440TIP3    H246516   3.288   6.610   7.823  0.7350  3.6274 -0.0123
 7441TIP3   OH246517   5.684   0.163   8.924 -0.1392 -0.5463  0.2634
 7441TIP3    H146518   5.618   0.109   8.881 -0.4090 -0.5863  0.7240
 7441TIP3    H246519   5.730   0.103   8.984  1.3155 -0.8746 -1.1128
 7442TIP3   OH246520   2.422   0.397   0.880  0.0401  0.0723  0.9275
 7442TIP3    H146521   2.376   0.481   0.886 -0.2308 -0.0278  0.2529
 7442TIP3    H246522   2.458   0.395   0.792  2.4434  0.7141  1.8075
 7443TIP3   OH246523   5.987   5.643   7.998  0.1043  0.1254 -0.9377
 7443TIP3    H146524   6.019   5.690   8.075  1.4968 -0.6541 -1.0079
 7443TIP3    H246525   5.892   5.658   7.998  0.1868  0.7972  0.4597
 7444TIP3   OH246526   6.154   6.876   0.285 -0.8751 -0.4851 -0.1259
 7444TIP3    H146527   6.152   6.869   0.381 -0.0954 -0.9430 -0.1349
 7444TIP3    H246528   6.239   6.840   0.260 -0.7597  0.3021 -0.9384
 7445TIP3   OH246529   7.127   4.047   1.304 -0.2565 -0.3341 -0.7262
 7445TIP3    H146530   7.060   4.030   1.237 -3.1405 -1.9171  2.2276
 7445TIP3    H246531   7.083   4.103   1.368  0.8793 -2.0876  1.7503
 7446TIP3   OH246532   7.258   3.195   8.766  0.5066 -0.9213 -0.3164
 7446TIP3    H146533   7.287   3.147   8.843  2.0210  0.5085  0.0738
 7446TIP3    H246534   7.189   3.253   8.797  1.3239 -0.1285  0.0692
 7447TIP3   OH246535   1.506   0.116   1.559 -0.1878  0.6187 -0.3803
 7447TIP3    H146536   1.533   0.151   1.475  1.2660  0.2215 -0.1023
 7447TIP3    H246537   1.588   0.094   1.604 -0.9701 -0.5335  0.5517
 7448TIP3   OH246538   0.243   6.527   0.752 -0.0559 -0.1985  0.2780
 7448TIP3    H146539   0.185   6.462   0.791 -0.8100  1.0880  1.4304
 7448TIP3    H246540   0.234   6.604   0.809  1.5126  0.6032 -0.4815
 7449TIP3   OH246541   6.515   2.446   7.331  0.1169  0.0142  0.1250
 7449TIP3    H146542   6.490   2.428   7.240  0.3944  2.3951 -0.5055
 7449TIP3    H246543   6.571   2.373   7.355 -1.7111 -1.7869 -0.8515
 7450TIP3   OH246544   2.609   2.968   8.467  0.1155 -0.2737  0.0800
 7450TIP3    H146545   2.533   2.995   8.518 -0.1218  0.5946 -0.7118
 7450TIP3    H246546   2.582   2.886   8.426 -0.1186 -0.3568  0.3889
 7451TIP3   OH246547   0.460   2.728   0.135  0.2586  0.0533  0.3769
 7451TIP3    H146548   0.539   2.730   0.188 -0.6782  1.3673  1.8127
 7451TIP3    H246549   0.452   2.818   0.101  0.0326 -0.3803 -0.7493
 7452TIP3   OH246550   6.680   6.376   8.184  0.7358  0.0815  0.2730
 7452TIP3    H146551   6.594   6.384   8.144  0.3966  0.1255  0.9966
 7452TIP3    H246552   6.719   6.299   8.143  1.1439  1.1717 -1.4831
 7453TIP3   OH246553   0.180   2.612   0.358  0.5484 -0.0203 -0.3541
 7453TIP3    H146554   0.136   2.552   0.419 -1.5875  1.1973 -0.5836
 7453TIP3    H246555   0.242   2.557   0.311  1.3509 -1.2675  1.9898
 7454TIP3   OH246556   2.943   5.500   9.759 -0.6274 -0.0999 -0.2111
 7454TIP3    H146557   2.982   5.440   9.823  0.2093  0.0353 -0.5729
 7454TIP3    H246558   3.018   5.548   9.724 -1.1561  0.3049 -0.7962
 7455TIP3   OH246559   6.709   1.389   8.840  0.2955  0.0467 -0.3292
 7455TIP3    H146560   6.694   1.332   8.764 -1.9910 -1.3344  1.0177
 7455TIP3    H246561   6.682   1.336   8.915  0.4224  2.0957  1.2585
 7456TIP3   OH246562   6.988   7.223   8.178  0.0866  0.0743  0.3231
 7456TIP3    H146563   6.984   7.293   8.113  1.1183  0.4847  0.6723
 7456TIP3    H246564   7.076   7.230   8.215 -0.8939  0.7423  2.7304
 7457TIP3   OH246565   6.888   5.141   7.972 -0.0500  0.2694  0.1865
 7457TIP3    H146566   6.870   5.158   8.064 -0.7774 -1.8062  0.4604
 7457TIP3    H246567   6.967   5.192   7.954  0.4262  0.2774  2.0909
 7458TIP3   OH246568   4.655   6.474   2.260 -0.5657 -0.5292 -0.0237
 7458TIP3    H146569   4.576   6.456   2.209 -0.2071  0.2355 -0.8837
 7458TIP3    H246570   4.663   6.569   2.259 -0.6582 -0.4780  1.6752
 7459TIP3   OH246571   4.439   6.345   9.121  0.1023  0.2311  0.0600
 7459TIP3    H146572   4.398   6.277   9.173  0.9562 -2.0752 -2.0582
 7459TIP3    H246573   4.400   6.335   9.034  1.4923  1.3247 -0.7341
 7460TIP3   OH246574   4.476   0.399   7.150  0.4666  0.0430  0.3915
 7460TIP3    H146575   4.491   0.487   7.184  0.0721 -0.4679  1.9668
 7460TIP3    H246576   4.551   0.382   7.093  0.3190  1.5501 -0.2941
 7461TIP3   OH246577   0.717   3.333   0.138  0.1819  0.0665  0.3980
 7461TIP3    H146578   0.785   3.379   0.090 -0.1381  0.0375 -0.0962
 7461TIP3    H246579   0.756   3.249   0.162 -0.2807 -0.7908 -1.6076
 7462TIP3   OH246580   0.093   6.264   0.845 -1.0470 -0.1090  0.1868
 7462TIP3    H146581   0.125   6.214   0.770 -1.2426 -0.4875  0.3539
 7462TIP3    H246582  -0.002   6.264   0.836 -1.0103  1.5473 -0.6534
 7463TIP3   OH246583   5.685   1.530   7.797  0.3358 -0.6565 -0.7352
 7463TIP3    H146584   5.638   1.450   7.774  0.6060 -0.8321 -0.6811
 7463TIP3    H246585   5.765   1.527   7.744 -0.0600  0.0121 -1.3935
 7464TIP3   OH246586   4.632   3.988   1.170  0.0202 -0.4407 -0.6135
 7464TIP3    H146587   4.595   3.914   1.219  0.4748 -0.9665 -1.0400
 7464TIP3    H246588   4.711   4.011   1.220 -1.0131  0.8966  0.4839
 7465TIP3   OH246589   0.891   1.641   7.857  0.0226  0.0545 -0.7602
 7465TIP3    H146590   0.914   1.731   7.836 -0.5870  0.0948 -1.3292
 7465TIP3    H246591   0.861   1.643   7.948  3.3248 -0.2253  0.4652
 7466TIP3   OH246592   1.017   1.464   9.138 -1.3566 -0.3206  0.1685
 7466TIP3    H146593   1.098   1.506   9.108 -0.6940 -0.9344  1.0435
 7466TIP3    H246594   0.949   1.496   9.078 -0.4308  0.0366 -0.7096
 7467TIP3   OH246595   4.638   1.517   8.020  0.3325 -0.4891  0.1950
 7467TIP3    H146596   4.612   1.529   7.929  0.4097 -0.5547  0.1641
 7467TIP3    H246597   4.570   1.562   8.071 -0.3322 -1.4458  0.1598
 7468TIP3   OH246598   0.462   4.881   9.882  0.1225 -0.2915 -0.6113
 7468TIP3    H146599   0.482   4.818   9.952  0.7619  0.5107 -0.0587
 7468TIP3    H246600   0.382   4.924   9.912  0.6341  0.3539 -0.1565
 7469TIP3   OH246601   6.468   7.103   9.221  0.4628  0.3811 -0.3137
 7469TIP3    H146602   6.396   7.055   9.261  0.9914  0.1869  0.4324
 7469TIP3    H246603   6.544   7.081   9.275  0.5212  2.9309  0.8227
 7470TIP3   OH246604   2.127   2.181   8.654  0.1238  0.2795  0.0179
 7470TIP3    H146605   2.144   2.087   8.645 -0.5804  0.2815 -1.7347
 7470TIP3    H246606   2.143   2.217   8.566 -1.2717  1.5021  0.2285
 7471TIP3   OH246607   3.838   3.516   2.268 -0.0392 -0.4165 -0.3182
 7471TIP3    H146608   3.869   3.427   2.250  0.6087 -0.1889 -0.3358
 7471TIP3    H246609   3.911   3.559   2.311 -0.4613  0.0195 -0.0333
 7472TIP3   OH246610   4.023   0.862   8.582  0.0241  0.2979 -0.0174
 7472TIP3    H146611   3.958   0.920   8.541 -0.4491  0.8964  1.5186
 7472TIP3    H246612   4.000   0.775   8.550 -0.0095  0.7846 -1.4012
 7473TIP3   OH246613   0.933   2.877   0.538 -0.0377  1.1911  0.4103
 7473TIP3    H146614   0.932   2.894   0.444  2.0273  3.1965  0.6478
 7473TIP3    H246615   0.893   2.791   0.548  1.0634  0.2405 -2.4595
 7474TIP3   OH246616   6.613   1.020   1.797  0.2343 -0.1633  0.5218
 7474TIP3    H146617   6.606   1.112   1.771 -1.5241 -0.0252  1.3196
 7474TIP3    H246618   6.618   1.022   1.892 -0.4438 -0.9112  0.5822
 7475TIP3   OH246619   5.430   0.214   0.446  0.0403 -0.3206  0.3599
 7475TIP3    H146620   5.401   0.128   0.474 -1.8286  0.3466  0.5862
 7475TIP3    H246621   5.390   0.275   0.509  0.2569  0.8026 -0.5522
 7476TIP3   OH246622   5.309   3.062   0.971  0.0096  0.2443  0.0523
 7476TIP3    H146623   5.359   3.051   0.890 -0.8823 -2.8002 -0.2333
 7476TIP3    H246624   5.218   3.073   0.942 -0.2392 -0.3024  0.5907
 7477TIP3   OH246625   6.259   0.545   9.898  0.4399  0.5057  1.1916
 7477TIP3    H146626   6.338   0.547   9.844  0.7740  2.1921  1.7017
 7477TIP3    H246627   6.228   0.454   9.891  1.2873  0.3018 -0.6353
 7478TIP3   OH246628   1.031   5.941   8.394  0.3378 -0.4101  0.2122
 7478TIP3    H146629   1.071   5.952   8.307  2.5097 -0.1283  1.1672
 7478TIP3    H246630   0.972   5.866   8.384  1.3006 -1.0203 -1.2810
 7479TIP3   OH246631   3.388   5.633   9.964  0.2668 -0.1607 -0.2131
 7479TIP3    H146632   3.412   5.711  10.014  0.1763 -0.6491  0.6012
 7479TIP3    H246633   3.363   5.666   9.878  0.9435  0.6406 -0.1139
 7480TIP3   OH246634   1.419   6.049   0.015  0.1185  0.9000  0.0660
 7480TIP3    H146635   1.393   6.070  -0.075  1.4551 -0.2422 -0.6206
 7480TIP3    H246636   1.340   6.063   0.066 -0.8746  0.8795 -1.3978
 7481TIP3   OH246637   4.791   3.454   9.492  0.2548  0.2486 -0.2687
 7481TIP3    H146638   4.805   3.507   9.570 -0.9341 -0.3535  0.3845
 7481TIP3    H246639   4.876   3.451   9.449  0.9232  0.6001  0.9955
 7482TIP3   OH246640   1.897   0.810   1.538  0.1985  0.1446 -0.0010
 7482TIP3    H146641   1.921   0.719   1.519 -0.0247  0.2005 -0.5842
 7482TIP3    H246642   1.967   0.862   1.498  0.1720  0.2382  0.0737
 7483TIP3   OH246643   3.906   4.945   7.730  0.4398  0.5637 -0.0315
 7483TIP3    H146644   3.896   4.968   7.822  1.2031  2.4974 -0.4005
 7483TIP3    H246645   3.999   4.960   7.711  0.6444 -1.3233 -0.7483
 7484TIP3   OH246646   4.199   6.342   8.071 -0.8517 -0.6600 -0.3323
 7484TIP3    H146647   4.142   6.412   8.038  0.3559  0.1748 -0.7277
 7484TIP3    H246648   4.172   6.331   8.162 -1.2373  0.1427 -0.3381
 7485TIP3   OH246649   1.684   3.226   0.322 -0.1419 -0.3374 -0.3998
 7485TIP3    H146650   1.653   3.178   0.399 -1.8682 -0.3702 -1.0753
 7485TIP3    H246651   1.732   3.300   0.359  0.0647 -0.9720  0.6804
 7486TIP3   OH246652   6.413   6.633   0.671 -0.0318  0.6660 -0.1447
 7486TIP3    H146653   6.407   6.608   0.763  0.7704 -1.2169 -0.5660
 7486TIP3    H246654   6.498   6.599   0.642 -1.0696 -0.4717 -2.0489
 7487TIP3   OH246655   4.150   4.593   1.106 -0.0600 -0.6705  0.4308
 7487TIP3    H146656   4.132   4.621   1.196 -1.4086 -1.1765  0.3501
 7487TIP3    H246657   4.084   4.640   1.053  1.6013  0.7152 -0.5046
 7488TIP3   OH246658   0.951   1.284   1.194 -0.1796 -0.2269  0.2601
 7488TIP3    H146659   0.914   1.368   1.166 -0.3651  0.1133  1.4554
 7488TIP3    H246660   0.915   1.270   1.282  0.5455 -1.1251  0.4346
 7489TIP3   OH246661   3.339   6.384   0.980 -0.4502 -0.0474  0.2834
 7489TIP3    H146662   3.397   6.417   0.911  0.3275 -1.7644  0.0562
 7489TIP3    H246663   3.267   6.446   0.982  1.1574  1.9436  0.2744
 7490TIP3   OH246664   1.777   6.417   9.876  0.2274 -0.0963 -0.5103
 7490TIP3    H146665   1.761   6.389   9.966  1.2480 -1.9562 -0.8749
 7490TIP3    H246666   1.871   6.407   9.863  0.0317 -0.3465 -1.9513
 7491TIP3   OH246667   4.770   7.009   6.508  0.0482  0.2797 -0.7113
 7491TIP3    H146668   4.762   7.051   6.593  0.1167 -0.7771 -0.1788
 7491TIP3    H246669   4.715   7.063   6.450  1.1333  1.8604 -0.3517
 7492TIP3   OH246670   5.120   1.299   2.890  0.2072 -0.0269  0.4598
 7492TIP3    H146671   5.187   1.242   2.928 -0.0276 -0.1563  0.6779
 7492TIP3    H246672   5.040   1.247   2.892 -0.1192  0.4942  1.1203
 7493TIP3   OH246673   4.620   0.927   7.924  0.6959  0.3661 -0.0006
 7493TIP3    H146674   4.553   0.979   7.968 -1.0327 -0.2508 -1.7982
 7493TIP3    H246675   4.672   0.991   7.875  0.8978  0.7459  0.6850
 7494TIP3   OH246676   2.462   6.122   1.140  0.4634  0.0201 -0.6503
 7494TIP3    H146677   2.478   6.100   1.232  0.1650  0.1581 -0.5672
 7494TIP3    H246678   2.447   6.216   1.140  2.0816  0.3216 -1.0511
 7495TIP3   OH246679   0.097   2.287   8.020  0.1222  0.4918 -0.2278
 7495TIP3    H146680   0.098   2.192   8.030  0.3225  0.5889  0.7350
 7495TIP3    H246681   0.030   2.304   7.954 -2.2390 -0.1217  1.8880
 7496TIP3   OH246682   6.152   4.634   7.977  0.0783  0.3307 -0.0145
 7496TIP3    H146683   6.065   4.594   7.980  0.4727 -0.5567 -0.0829
 7496TIP3    H246684   6.166   4.654   7.884 -0.3702  1.2250  0.0963
 7497TIP3   OH246685   0.212   1.966   3.237  0.2835  0.2260 -0.1626
 7497TIP3    H146686   0.124   1.996   3.260  0.3673  1.0430 -0.8856
 7497TIP3    H246687   0.198   1.897   3.172  0.1215 -0.9190  1.0307
 7498TIP3   OH246688   0.660   1.790   8.854  0.0107 -0.1190 -0.3693
 7498TIP3    H146689   0.707   1.863   8.895  0.6381 -1.5053  1.5312
 7498TIP3    H246690   0.569   1.818   8.852  0.3987  1.2005 -0.8507
 7499TIP3   OH246691   3.238   0.590   0.699  0.1812  0.4792 -0.2375
 7499TIP3    H146692   3.283   0.512   0.668 -1.1442 -0.1185 -0.7512
 7499TIP3    H246693   3.157   0.593   0.647 -1.4318  0.2525  2.1019
 7500TIP3   OH246694   3.598   3.132   9.265  0.4251  0.4267  0.5347
 7500TIP3    H146695   3.626   3.117   9.355 -1.3308  2.6300  1.5430
 7500TIP3    H246696   3.513   3.089   9.259  0.2142  0.8920  0.1550
 7501TIP3   OH246697   3.476   4.002   8.865 -0.5067 -0.1840  0.2589
 7501TIP3    H146698   3.560   4.002   8.819 -0.7243 -1.3325 -0.1947
 7501TIP3    H246699   3.417   3.954   8.806 -1.6617  1.1568  0.2800
 7502TIP3   OH246700   0.653   1.052   1.924  0.2902 -0.3245  0.6052
 7502TIP3    H146701   0.623   0.961   1.926 -0.4869 -0.0759  0.5371
 7502TIP3    H246702   0.700   1.063   2.006  2.9418 -1.6250 -0.6237
 7503TIP3   OH246703   4.858   2.229   2.604  0.7646 -0.2321 -0.2661
 7503TIP3    H146704   4.912   2.186   2.670  2.9423  1.5520 -0.7617
 7503TIP3    H246705   4.886   2.321   2.607 -1.8790  0.6746 -0.9851
 7504TIP3   OH246706   1.498   2.726   1.172  0.3946  0.1333  0.0939
 7504TIP3    H146707   1.561   2.796   1.191  0.0606  0.4756 -0.0382
 7504TIP3    H246708   1.521   2.696   1.085  0.5877  0.0264  0.1811
 7505TIP3   OH246709   3.795   0.480   0.606 -0.0098 -0.1461  0.1703
 7505TIP3    H146710   3.709   0.459   0.641 -0.4569 -2.1121 -1.8608
 7505TIP3    H246711   3.854   0.415   0.644 -0.4902 -2.2646 -2.3791
 7506TIP3   OH246712   7.245   7.184   0.881 -0.0606  0.3266 -0.2885
 7506TIP3    H146713   7.189   7.232   0.942 -0.4494  0.6460 -0.8983
 7506TIP3    H246714   7.313   7.146   0.937 -1.5163 -1.0583  0.6665
 7507TIP3   OH246715   2.314   0.400   7.899  0.5565  0.4172  0.6287
 7507TIP3    H146716   2.397   0.429   7.862  0.8221  0.2929  1.1096
 7507TIP3    H246717   2.286   0.473   7.955 -0.6467  1.2898 -1.0019
 7508TIP3   OH246718   3.923   3.052   0.433 -0.0770  0.1416 -0.3498
 7508TIP3    H146719   3.867   3.092   0.499  0.8260  1.5511 -0.3948
 7508TIP3    H246720   3.995   3.012   0.483 -0.0529  0.1090 -0.4101
 7509TIP3   OH246721   3.521   1.584   8.049 -0.6632  0.3349  0.7228
 7509TIP3    H146722   3.536   1.643   8.122 -0.9952 -0.1449  1.1897
 7509TIP3    H246723   3.606   1.540   8.036 -0.3334  1.1085  0.1814
 7510TIP3   OH246724   4.732   5.886   1.264  0.0403  0.1182 -0.3733
 7510TIP3    H146725   4.712   5.850   1.350 -1.2279 -0.0429 -0.7023
 7510TIP3    H246726   4.779   5.817   1.218 -0.4500 -0.3031 -0.2521
 7511TIP3   OH246727   3.487   1.183   2.129 -0.2880  0.2835 -0.7512
 7511TIP3    H146728   3.411   1.151   2.082  2.1829 -0.9705 -4.3456
 7511TIP3    H246729   3.525   1.106   2.169 -0.1426  0.6574 -0.1562
 7512TIP3   OH246730   2.404   6.081   2.398  0.5316  0.2513 -0.3507
 7512TIP3    H146731   2.494   6.112   2.388  1.0394 -1.1098 -0.1777
 7512TIP3    H246732   2.413   5.996   2.442 -0.9225  0.7117  0.8916
 7513TIP3   OH246733   6.257   2.785   8.370  1.1897 -0.0379  0.5718
 7513TIP3    H146734   6.276   2.728   8.444  1.0495 -0.5966  0.1917
 7513TIP3    H246735   6.308   2.864   8.386  0.1493  0.4008  1.9361
 7514TIP3   OH246736   0.430   7.215   9.692  0.3018  0.1035 -0.0255
 7514TIP3    H146737   0.519   7.228   9.659 -0.0542  3.1307 -0.1347
 7514TIP3    H246738   0.427   7.267   9.773 -0.5306 -2.4739  1.7004
 7515TIP3   OH246739   3.538   0.677   9.241  0.0225 -0.3084 -0.0835
 7515TIP3    H146740   3.465   0.654   9.298 -1.3248  1.7684 -0.8737
 7515TIP3    H246741   3.596   0.730   9.296 -0.0139 -0.3575  0.0032
 7516TIP3   OH246742   6.701   2.646   8.432  0.1641 -0.6507  0.3483
 7516TIP3    H146743   6.678   2.650   8.525  2.2240  0.6891  0.8792
 7516TIP3    H246744   6.732   2.557   8.419 -2.8916 -1.7929  0.1449
 7517TIP3   OH246745   2.298   4.299   9.352  0.1040 -0.9564 -0.0466
 7517TIP3    H146746   2.386   4.334   9.343 -1.1138  2.2249 -0.7133
 7517TIP3    H246747   2.248   4.369   9.393 -2.1301 -2.6899  0.3717
 7518TIP3   OH246748   1.521   3.062   0.182  0.4792 -0.2329 -0.4744
 7518TIP3    H146749   1.565   3.146   0.193 -0.5428  0.3110 -0.4606
 7518TIP3    H246750   1.493   3.037   0.270  1.6573 -1.0937 -0.3226
 7519TIP3   OH246751   4.638   0.759   2.273  0.4618  0.2325 -0.1028
 7519TIP3    H146752   4.643   0.708   2.354 -0.4355  0.1193 -0.1117
 7519TIP3    H246753   4.545   0.769   2.257  0.6270  1.7590 -0.1962
 7520TIP3   OH246754   5.829   3.434   2.638  0.2398 -0.1143  0.0842
 7520TIP3    H146755   5.858   3.519   2.671  2.3501 -0.1812 -1.3642
 7520TIP3    H246756   5.749   3.453   2.589  0.4779  0.9846  0.1065
 7521TIP3   OH246757   6.686   3.046   7.708 -0.5668  0.2634 -0.0882
 7521TIP3    H146758   6.668   3.132   7.745  0.7575  0.4765  0.1150
 7521TIP3    H246759   6.618   2.990   7.744 -1.8637  1.3460 -0.7781
 7522TIP3   OH246760   1.125   2.962   8.028 -0.7916  0.8372  0.6083
 7522TIP3    H146761   1.102   2.918   7.947  1.5480  0.5137  0.0284
 7522TIP3    H246762   1.042   2.990   8.065 -2.2029 -1.7708 -0.3038
 7523TIP3   OH246763   5.635   6.780   2.703 -0.1602 -0.7700  0.4485
 7523TIP3    H146764   5.707   6.837   2.677 -0.2223 -1.0864 -0.4561
 7523TIP3    H246765   5.677   6.698   2.729 -0.1805 -0.9854 -0.1640
 7524TIP3   OH246766   6.104   3.916   7.521  0.2582 -0.6232  0.5519
 7524TIP3    H146767   6.174   3.980   7.533  0.5700 -1.2851  2.7572
 7524TIP3    H246768   6.025   3.969   7.512  0.8480  0.0992 -0.6084
 7525TIP3   OH246769   7.083   7.264   1.086  0.3319  0.4587  0.4658
 7525TIP3    H146770   7.113   7.328   1.151  1.3686  0.0549  0.4027
 7525TIP3    H246771   7.018   7.312   1.034 -0.3942  0.8323  1.6854
 7526TIP3   OH246772   0.399   5.616   7.258 -0.0963  0.2246  0.1573
 7526TIP3    H146773   0.492   5.602   7.240 -0.4412  0.0328 -1.7244
 7526TIP3    H246774   0.373   5.682   7.194 -1.0437  1.0286  1.3449
 7527TIP3   OH246775   4.943   4.160   9.282 -0.0944  0.3632 -0.4074
 7527TIP3    H146776   4.866   4.194   9.237 -1.4612 -0.7497  0.9840
 7527TIP3    H246777   4.958   4.221   9.354 -0.2430  0.1001 -0.1494
 7528TIP3   OH246778   2.717   5.103   1.657 -0.9967  0.4276 -0.0974
 7528TIP3    H146779   2.770   5.178   1.630 -2.3325  1.7854  0.8523
 7528TIP3    H246780   2.722   5.042   1.584  1.7160  0.5361 -0.1028
 7529TIP3   OH246781   5.299   2.457   7.710 -0.2809  0.0681 -0.0613
 7529TIP3    H146782   5.247   2.380   7.734  0.8010 -1.3742 -2.0501
 7529TIP3    H246783   5.260   2.487   7.628 -0.8624  1.8711  0.8208
 7530TIP3   OH246784   3.494   0.982   9.546  0.0701 -0.0003  0.1327
 7530TIP3    H146785   3.429   1.043   9.579  0.3877  0.3030  0.1984
 7530TIP3    H246786   3.510   1.009   9.456  1.5830  1.1955  0.7177
 7531TIP3   OH246787   7.047   5.013   0.231 -0.4844  0.5516 -0.1541
 7531TIP3    H146788   7.022   4.982   0.144  1.4006  0.8331 -0.8366
 7531TIP3    H246789   7.097   5.093   0.216 -0.7374  1.0156  1.2500
 7532TIP3   OH246790   4.344   4.288   0.585  0.1220  0.2330  0.1058
 7532TIP3    H146791   4.346   4.195   0.566  0.4161  0.1487  0.5222
 7532TIP3    H246792   4.411   4.326   0.528 -2.0618  0.6666 -2.3657
 7533TIP3   OH246793   4.236   5.225   7.478 -0.1030  0.0614  0.4851
 7533TIP3    H146794   4.261   5.263   7.394  0.7560  3.3630  2.0676
 7533TIP3    H246795   4.314   5.179   7.508 -0.3958 -1.0826 -0.4254
 7534TIP3   OH246796   1.321   2.376   0.740 -0.5753  0.7125 -0.0905
 7534TIP3    H146797   1.372   2.455   0.723 -0.8875  1.0990  0.7229
 7534TIP3    H246798   1.246   2.382   0.681 -0.0944  0.5297 -0.7286
 7535TIP3   OH246799   4.797   0.434   1.285  0.1523  0.0535 -0.1995
 7535TIP3    H146800   4.784   0.513   1.338 -1.0616 -1.2043  1.4679
 7535TIP3    H246801   4.886   0.406   1.306  0.0613  0.1627  0.3535
 7536TIP3   OH246802   0.114   1.767   3.086 -0.3811 -0.7762 -0.3177
 7536TIP3    H146803   0.044   1.720   3.040 -0.1405  0.3321 -1.8878
 7536TIP3    H246804   0.194   1.743   3.038 -0.3881  2.0485 -1.9388
 7537TIP3   OH246805   0.683   5.531   0.341 -0.0259 -0.0763 -0.2476
 7537TIP3    H146806   0.720   5.480   0.268  2.5731 -0.3633  1.1387
 7537TIP3    H246807   0.604   5.484   0.366  0.7486 -1.8049 -0.8773
 7538TIP3   OH246808   5.048   4.401   7.646 -0.3849 -0.4263  0.2934
 7538TIP3    H146809   4.962   4.407   7.688 -0.4492 -1.9791  0.4255
 7538TIP3    H246810   5.061   4.308   7.629  1.3972 -0.2711  0.5258
 7539TIP3   OH246811   2.028   1.540   0.053 -0.2037 -0.1272 -0.2447
 7539TIP3    H146812   1.933   1.537   0.043  0.0961 -1.1928 -5.9543
 7539TIP3    H246813   2.049   1.456   0.095 -1.6702  0.0449  0.9578
 7540TIP3   OH246814   4.469   4.743   2.268  0.5255  0.4468  0.2042
 7540TIP3    H146815   4.514   4.730   2.185  0.9947  0.8830  0.3863
 7540TIP3    H246816   4.513   4.683   2.328 -1.4900 -1.8282 -0.4267
 7541TIP3   OH246817   0.082   4.944   0.307  0.0340 -0.0026  0.0626
 7541TIP3    H146818  -0.009   4.956   0.334 -0.6465  0.2736 -2.1821
 7541TIP3    H246819   0.077   4.890   0.228  1.8023  0.3469 -0.3264
 7542TIP3   OH246820   7.083   0.409   9.549  0.1665 -0.6189  0.0092
 7542TIP3    H146821   7.147   0.401   9.619 -0.5927 -1.4761  0.6352
 7542TIP3    H246822   7.114   0.347   9.482 -1.0261 -2.5893  1.1641
 7543TIP3   OH246823   6.750   1.558   1.051  0.4069  0.0556 -0.2564
 7543TIP3    H146824   6.843   1.578   1.046  0.2720  1.2735  1.3482
 7543TIP3    H246825   6.722   1.553   0.959  1.7345  1.2938 -0.7659
 7544TIP3   OH246826   5.529   6.567   7.519  0.2344  0.0969  0.2494
 7544TIP3    H146827   5.541   6.497   7.455  1.2134 -0.9752  1.5633
 7544TIP3    H246828   5.617   6.599   7.538 -0.2275  2.3996 -1.0063
 7545TIP3   OH246829   3.522   5.092   7.100  0.0587  0.1657  0.0541
 7545TIP3    H146830   3.551   5.133   7.019  2.8097  0.6274  1.1615
 7545TIP3    H246831   3.512   4.999   7.077 -1.7264  0.6530 -1.3640
 7546TIP3   OH246832   1.510   5.836   7.827  0.1267  0.3269 -0.2834
 7546TIP3    H146833   1.569   5.814   7.755  1.5603 -1.4607  1.3382
 7546TIP3    H246834   1.559   5.899   7.879  0.6114 -1.0696  1.0061
 7547TIP3   OH246835   4.109   2.419   8.103 -0.5522  0.1534 -0.0388
 7547TIP3    H146836   4.087   2.444   8.013 -2.9088 -0.9897  0.1404
 7547TIP3    H246837   4.028   2.432   8.152  1.0483  2.1170  2.3078
 7548TIP3   OH246838   6.007   3.701   1.110  0.1720  0.0592 -0.1015
 7548TIP3    H146839   5.938   3.767   1.103 -1.8566 -2.0425 -1.2027
 7548TIP3    H246840   6.008   3.658   1.024  1.6913 -1.0881  0.4501
 7549TIP3   OH246841   7.270   7.131   8.986 -0.0825  0.2389  0.1355
 7549TIP3    H146842   7.328   7.102   8.916  0.9567  0.1832  0.9897
 7549TIP3    H246843   7.326   7.184   9.044 -1.1046  0.9752  0.4909
 7550TIP3   OH246844   2.374   1.287   1.311  0.2210  0.3714 -0.2582
 7550TIP3    H146845   2.420   1.305   1.393 -0.9566  0.4286  0.4178
 7550TIP3    H246846   2.281   1.289   1.335 -0.1671  0.9592 -1.7036
 7551TIP3   OH246847   6.999   4.136   1.002 -0.3622  0.2243  0.1842
 7551TIP3    H146848   6.911   4.102   0.988 -0.1498 -0.0605 -0.4872
 7551TIP3    H246849   6.985   4.220   1.047 -1.0444  0.7717 -1.0054
 7552TIP3   OH246850   6.929   3.078   2.426  0.5232  0.8008  0.4595
 7552TIP3    H146851   6.896   3.157   2.470 -1.6703  0.5127 -0.5469
 7552TIP3    H246852   6.866   3.010   2.450  2.6498 -0.8622  1.7437
 7553TIP3   OH246853   4.899   0.281   1.007  0.2132  0.0996  0.0334
 7553TIP3    H146854   4.888   0.376   0.998  1.3299  0.2373 -0.0891
 7553TIP3    H246855   4.946   0.255   0.928  1.3460 -0.2838  0.8031
 7554TIP3   OH246856   0.437   6.062   7.930 -0.0363  0.2710 -0.1791
 7554TIP3    H146857   0.395   6.106   7.856 -0.7074  1.0660  0.6372
 7554TIP3    H246858   0.372   5.998   7.960 -0.9621  1.8422  1.3950
 7555TIP3   OH246859   1.207   5.418   8.837  0.0232  0.3911  0.5385
 7555TIP3    H146860   1.236   5.469   8.761 -1.9624  0.9976  0.1391
 7555TIP3    H246861   1.134   5.365   8.805  0.8742 -1.3846  1.3990
 7556TIP3   OH246862   4.843   1.005   9.487  0.4286 -0.3118 -0.5804
 7556TIP3    H146863   4.815   0.957   9.565 -1.2340 -1.1653 -1.6541
 7556TIP3    H246864   4.790   1.084   9.487  1.2394  0.2387 -0.2528
 7557TIP3   OH246865   2.188   7.176   0.516  0.2271 -0.4637 -0.4229
 7557TIP3    H146866   2.244   7.101   0.539  0.6100 -0.5628 -1.6297
 7557TIP3    H246867   2.249   7.248   0.503 -0.1411  0.0755  0.7018
 7558TIP3   OH246868   1.452   1.574   7.879 -0.6202  0.3450  0.2268
 7558TIP3    H146869   1.408   1.659   7.885 -1.4065 -0.1050  1.1651
 7558TIP3    H246870   1.523   1.588   7.817 -2.2934  1.0205 -1.6599
 7559TIP3   OH246871   2.874   1.311   9.579 -0.1583  0.0640 -0.1659
 7559TIP3    H146872   2.788   1.276   9.600 -0.0962  0.0043 -0.0051
 7559TIP3    H246873   2.929   1.286   9.654  0.2463 -0.7664 -0.7151
 7560TIP3   OH246874   3.018   6.105   9.101 -0.2499 -0.1981  0.3669
 7560TIP3    H146875   3.065   6.128   9.181  1.4107  1.0959 -0.8972
 7560TIP3    H246876   3.011   6.009   9.104  2.0036 -0.3991  0.9191
 7561TIP3   OH246877   2.314   6.272   2.595 -0.7992 -0.4193  0.0169
 7561TIP3    H146878   2.330   6.199   2.536 -2.1939 -0.0605 -0.8376
 7561TIP3    H246879   2.401   6.309   2.612 -0.3833 -0.2654 -2.1714
 7562TIP3   OH246880   4.411   5.151   9.174  0.5643 -0.3178 -0.5547
 7562TIP3    H146881   4.492   5.182   9.134  0.3064 -0.5261 -1.2574
 7562TIP3    H246882   4.405   5.198   9.257  1.0345  0.2362 -0.8320
 7563TIP3   OH246883   2.495   5.977   9.293 -0.1909  0.0122  0.0377
 7563TIP3    H146884   2.529   5.999   9.207  1.5728  0.9980  0.9356
 7563TIP3    H246885   2.400   5.980   9.282 -0.0083  0.7894 -1.6986
 7564TIP3   OH246886   5.604   3.816   1.752 -0.3122  0.4335  0.8242
 7564TIP3    H146887   5.696   3.832   1.731 -0.6315  0.8720 -0.3434
 7564TIP3    H246888   5.590   3.859   1.836  1.1451 -1.7332  2.3065
 7565TIP3   OH246889   2.230   5.722   2.905  0.7791  0.4394 -0.3908
 7565TIP3    H146890   2.231   5.626   2.909 -1.1514  0.4149  0.1783
 7565TIP3    H246891   2.317   5.748   2.938  1.2594 -1.0871 -0.3753
 7566TIP3   OH246892   5.872   5.364   1.333  0.0602  0.3224  0.2655
 7566TIP3    H146893   5.807   5.429   1.361  1.0433  1.4078  0.1337
 7566TIP3    H246894   5.956   5.408   1.346  0.7047  1.3410 -5.0346
 7567TIP3   OH246895   2.353   3.496   2.542 -0.1721  0.2292 -0.1982
 7567TIP3    H146896   2.322   3.421   2.592 -0.9075  0.0464 -0.9130
 7567TIP3    H246897   2.415   3.459   2.478  1.6141  0.5915  1.2313
 7568TIP3   OH246898   5.172   2.112   8.155  0.3865 -0.5399  0.2452
 7568TIP3    H146899   5.218   2.155   8.083  0.1252  0.1540  0.4792
 7568TIP3    H246900   5.091   2.080   8.116 -0.6346  1.4712  0.5927
 7569TIP3   OH246901   2.270   1.140   9.826 -0.4632  0.0074  0.7064
 7569TIP3    H146902   2.245   1.097   9.908 -0.7684  0.0075  0.6148
 7569TIP3    H246903   2.224   1.090   9.758 -0.2768  0.0577  0.5418
 7570TIP3   OH246904   3.509   4.845   2.016  0.3426  0.0268 -0.1164
 7570TIP3    H146905   3.565   4.769   2.000 -0.0022 -1.6379  4.8084
 7570TIP3    H246906   3.570   4.912   2.048  0.1143  0.0265  0.3222
 7571TIP3   OH246907   1.838   4.783   7.531  0.6098 -0.1380 -0.4399
 7571TIP3    H146908   1.907   4.735   7.485  0.9249 -0.3941  0.2856
 7571TIP3    H246909   1.796   4.717   7.586  0.2592  0.1675 -0.3419
 7572TIP3   OH246910   1.893   6.048   3.248 -0.1966  0.0153  0.0795
 7572TIP3    H146911   1.947   5.971   3.229 -0.0388 -0.2565  1.5297
 7572TIP3    H246912   1.807   6.012   3.269  0.1999  0.1042  1.9997
 7573TIP3   OH246913   3.649   4.339   7.824 -0.0404  0.2993 -0.2406
 7573TIP3    H146914   3.557   4.362   7.812  0.0682  1.4470  0.9712
 7573TIP3    H246915   3.650   4.283   7.902  0.4225  1.3446  0.5197
 7574TIP3   OH246916   0.911   0.013   9.847 -0.2882  0.0208  0.3630
 7574TIP3    H146917   0.970  -0.058   9.869  1.2472  0.2055 -2.6231
 7574TIP3    H246918   0.964   0.092   9.855 -0.7269  0.3975 -0.2971
 7575TIP3   OH246919   2.842   7.231   1.379 -0.1943  0.2940 -0.2290
 7575TIP3    H146920   2.871   7.244   1.470  1.3798 -0.9976 -0.5028
 7575TIP3    H246921   2.875   7.308   1.333 -1.3880  1.1811  0.3480
 7576TIP3   OH246922   0.879   2.691   0.011 -0.5810  0.2396  0.1205
 7576TIP3    H146923   0.914   2.646  -0.066 -0.4467  1.4110 -0.5213
 7576TIP3    H246924   0.791   2.718  -0.013 -0.4096  0.9296  0.2327
 7577TIP3   OH246925   7.100   3.752   7.568  0.2594 -0.3906 -0.1890
 7577TIP3    H146926   7.085   3.698   7.646 -0.6595  0.2696  0.1043
 7577TIP3    H246927   7.140   3.832   7.602 -0.0743 -0.1303 -0.4060
 7578TIP3   OH246928   0.118   0.214   1.841  0.3655 -0.0955  0.0984
 7578TIP3    H146929   0.027   0.223   1.871  0.9113  1.4041  1.4510
 7578TIP3    H246930   0.144   0.302   1.814  2.4929  0.3657  3.1336
 7579TIP3   OH246931   0.445   2.800   8.087  0.8991  0.0244  0.4815
 7579TIP3    H146932   0.527   2.756   8.066  0.6641 -0.2462  0.1103
 7579TIP3    H246933   0.465   2.893   8.080  1.4546 -0.0118  1.4890
 7580TIP3   OH246934   3.280   5.246   8.613 -0.0155  0.1945  0.3864
 7580TIP3    H146935   3.199   5.232   8.662  0.6261  0.7447  1.6579
 7580TIP3    H246936   3.293   5.164   8.565  0.0309 -0.9281  2.2073
 7581TIP3   OH246937   6.091   0.298   9.890  0.4641  0.3296  0.2540
 7581TIP3    H146938   6.032   0.224   9.905 -2.5604  1.6719 -3.4023
 7581TIP3    H246939   6.071   0.358   9.962 -1.7225  0.1069 -0.0690
 7582TIP3   OH246940   0.803   5.053   8.641  0.5425  0.9802  0.5059
 7582TIP3    H146941   0.770   4.976   8.686 -1.4358  0.4223 -1.6862
 7582TIP3    H246942   0.855   5.019   8.568 -1.6518  1.5529 -1.4399
 7583TIP3   OH246943   4.124   0.896   6.498 -0.1597 -0.3635  0.0165
 7583TIP3    H146944   4.204   0.924   6.541 -1.3157 -0.1970  2.2386
 7583TIP3    H246945   4.080   0.977   6.473  0.1928 -0.4430 -0.8674
 7584TIP3   OH246946   2.408   3.686   2.110  0.1779 -0.9011 -0.1330
 7584TIP3    H146947   2.391   3.742   2.186 -1.9738  0.5069 -1.5384
 7584TIP3    H246948   2.464   3.616   2.144 -0.9768 -0.5458  2.8290
 7585TIP3   OH246949   5.213   1.214   0.173  0.0703  0.1932  0.2335
 7585TIP3    H146950   5.184   1.303   0.193  0.4051  0.0741  1.3446
 7585TIP3    H246951   5.182   1.162   0.247 -0.0568 -0.6009 -0.3724
 7586TIP3   OH246952   3.092   1.767   8.691 -0.3162 -0.1022  0.0531
 7586TIP3    H146953   3.064   1.856   8.711  0.1254  0.2566 -0.8936
 7586TIP3    H246954   3.087   1.760   8.595 -1.5143 -1.4854  0.1706
 7587TIP3   OH246955   2.496   1.570   1.684  0.3120 -0.0067 -0.8973
 7587TIP3    H146956   2.427   1.546   1.746  1.5949  0.4709  0.7631
 7587TIP3    H246957   2.477   1.661   1.662 -0.0012 -0.1025 -1.0407
 7588TIP3   OH246958   2.437   5.708   7.692  0.3180  0.0986 -0.1843
 7588TIP3    H146959   2.507   5.652   7.725 -1.0232 -0.9807  0.9901
 7588TIP3    H246960   2.450   5.711   7.597  1.7459 -0.3301 -0.0177
 7589TIP3   OH246961   2.200   4.259   0.920 -0.3673 -0.3783 -0.2738
 7589TIP3    H146962   2.268   4.325   0.905  0.7316 -1.0948  1.2962
 7589TIP3    H246963   2.231   4.181   0.874 -0.0219 -0.7559  0.5786
 7590TIP3   OH246964   2.640   7.262   9.233  0.2532 -0.1985 -0.0041
 7590TIP3    H146965   2.710   7.197   9.240  0.3012 -0.1237  0.2607
 7590TIP3    H246966   2.559   7.211   9.232  0.3147 -0.2892 -0.3862
 7591TIP3   OH246967   4.787   0.373   2.221  0.0904  0.4160 -0.0918
 7591TIP3    H146968   4.778   0.419   2.138 -1.4746 -0.0533 -0.2072
 7591TIP3    H246969   4.703   0.385   2.265  0.8070  0.4784  1.3512
 7592TIP3   OH246970   4.673   6.287   0.092 -0.1552  0.2587  0.0570
 7592TIP3    H146971   4.717   6.371   0.074 -0.0428  0.0262 -0.8328
 7592TIP3    H246972   4.730   6.243   0.154  0.0830  0.6057  0.0902
 7593TIP3   OH246973   6.698   4.360   2.341 -0.1458 -0.7001 -0.5981
 7593TIP3    H146974   6.662   4.332   2.426  1.2463 -0.0242  0.2504
 7593TIP3    H246975   6.647   4.438   2.319  0.6309  0.1646  0.5226
 7594TIP3   OH246976   6.517   6.538   1.300  0.6325 -0.1500  0.7348
 7594TIP3    H146977   6.544   6.523   1.391 -0.1917 -0.4012  0.9439
 7594TIP3    H246978   6.545   6.460   1.253 -0.1639 -0.6427  1.0542
 7595TIP3   OH246979   1.033   4.357   8.709  0.5284 -0.2292 -0.0215
 7595TIP3    H146980   1.124   4.328   8.719  0.2108 -0.8875  1.1177
 7595TIP3    H246981   1.033   4.408   8.628  1.5471 -1.6710 -0.9860
 7596TIP3   OH246982   2.850   0.811   1.654 -0.3642  0.4156 -0.1933
 7596TIP3    H146983   2.925   0.865   1.676  1.3623 -0.5894 -3.0327
 7596TIP3    H246984   2.802   0.862   1.589  0.2389 -0.6156 -1.4895
 7597TIP3   OH246985   4.700   3.465   7.644 -0.7067  0.2886 -0.1155
 7597TIP3    H146986   4.747   3.449   7.562 -0.0995  1.3951  0.0011
 7597TIP3    H246987   4.615   3.423   7.631  0.3982 -2.0818 -0.1875
 7598TIP3   OH246988   0.071   1.851   1.175  0.0095  0.0529  0.3434
 7598TIP3    H146989   0.130   1.875   1.246 -0.7244 -0.5158  1.1581
 7598TIP3    H246990   0.007   1.792   1.215 -0.5173 -0.1426 -0.7481
 7599TIP3   OH246991   1.240   5.213   2.448  0.1999 -0.0894 -0.1363
 7599TIP3    H146992   1.170   5.251   2.395 -0.3300 -0.0496  0.5664
 7599TIP3    H246993   1.278   5.288   2.494  0.9355 -0.0672 -0.7603
 7600TIP3   OH246994   0.679   1.405   2.328  0.2549  0.4176  0.1868
 7600TIP3    H146995   0.598   1.355   2.317 -0.4577  1.1933  1.6455
 7600TIP3    H246996   0.727   1.391   2.246 -2.3510  1.7805 -1.7112
 7601TIP3   OH246997   2.265   2.436   2.092  0.2259  0.2241 -0.4596
 7601TIP3    H146998   2.285   2.361   2.036  1.2222 -0.4282  0.7117
 7601TIP3    H246999   2.329   2.502   2.066 -0.7455  0.7621 -1.5940
 7602TIP3   OH247000   2.364   5.802   7.120 -0.0806  0.7402 -0.2967
 7602TIP3    H147001   2.444   5.854   7.117  0.3660  0.1370  0.5224
 7602TIP3    H247002   2.296   5.860   7.088  0.1348  2.3331  1.9160
 7603TIP3   OH247003   6.724   4.912   1.393  0.7541 -0.0396 -0.6615
 7603TIP3    H147004   6.749   4.973   1.463  2.8449  0.2836 -1.6052
 7603TIP3    H247005   6.633   4.933   1.374  0.9728  1.7597  0.0913
 7604TIP3   OH247006   5.637   7.273   1.733  0.8484 -0.0395  0.8855
 7604TIP3    H147007   5.592   7.204   1.783  0.9288 -0.3859  0.4844
 7604TIP3    H247008   5.602   7.354   1.769 -1.7223 -0.2785 -0.8104
 7605TIP3   OH247009   3.797   0.107   0.436 -0.1258  0.5928 -0.2439
 7605TIP3    H147010   3.736   0.134   0.505 -0.8904  1.1586 -1.1231
 7605TIP3    H247011   3.745   0.053   0.377  0.4854  0.2223 -0.4544
 7606TIP3   OH247012   4.097   3.097   1.178  0.0059 -0.7284  0.2416
 7606TIP3    H147013   4.122   3.089   1.269 -1.0819 -0.5342  0.5723
 7606TIP3    H247014   4.098   3.191   1.160 -0.1194 -0.7434  0.1505
 7607TIP3   OH247015   3.466   2.576   0.703  0.0653  0.4337  0.6212
 7607TIP3    H147016   3.412   2.625   0.641 -0.0285  1.4537  1.4905
 7607TIP3    H247017   3.408   2.508   0.738 -1.0353  2.1723  2.3387
 7608TIP3   OH247018   5.939   1.598   1.466 -0.0278  0.6367 -0.0309
 7608TIP3    H147019   6.003   1.661   1.432 -0.7683  1.0840 -0.6072
 7608TIP3    H247020   5.884   1.649   1.525 -0.2206  0.3795  0.0103
 7609TIP3   OH247021   5.222   6.635   8.819  0.3095 -0.3816 -0.1154
 7609TIP3    H147022   5.242   6.594   8.735 -0.5622 -0.2756 -0.3797
 7609TIP3    H247023   5.249   6.726   8.809 -1.3562  0.0524 -0.8811
 7610TIP3   OH247024   6.128   6.229   0.301  0.3353 -0.4076 -0.0028
 7610TIP3    H147025   6.067   6.156   0.304  1.5687 -1.4788  2.6796
 7610TIP3    H247026   6.099   6.288   0.370  0.3382  0.8365 -1.0298
 7611TIP3   OH247027   0.251   3.671   8.369 -0.0164 -0.0714 -0.0009
 7611TIP3    H147028   0.306   3.734   8.414 -0.0154 -0.0189 -0.0752
 7611TIP3    H247029   0.301   3.648   8.290  0.6135 -1.1950  0.7010
 7612TIP3   OH247030   5.763   1.210   7.125 -0.1269 -0.0782  0.0644
 7612TIP3    H147031   5.720   1.248   7.202 -1.5968 -0.6067 -0.4562
 7612TIP3    H247032   5.822   1.279   7.095 -0.5194  0.6493  0.8970
 7613TIP3   OH247033   5.532   1.290   8.851 -0.6587 -1.0805  0.3054
 7613TIP3    H147034   5.563   1.216   8.903 -1.7393  0.1477  2.8831
 7613TIP3    H247035   5.580   1.365   8.886 -2.1145 -0.0637  0.1942
 7614TIP3   OH247036   1.905   4.816   7.881 -0.3581  0.0480 -0.7624
 7614TIP3    H147037   1.812   4.823   7.863 -1.3090  0.0933  3.1865
 7614TIP3    H247038   1.920   4.722   7.894 -0.1243  0.1441 -0.3128
 7615TIP3   OH247039   0.670   4.183   9.439 -0.4208  0.4180 -0.2851
 7615TIP3    H147040   0.652   4.265   9.484  0.5074  0.8608 -0.6903
 7615TIP3    H247041   0.750   4.150   9.481 -0.6898 -0.1910 -0.2435
 7616TIP3   OH247042   4.899   3.879   2.632 -0.1834 -0.6374  0.0590
 7616TIP3    H147043   4.824   3.934   2.611  1.5532  1.3061 -1.5716
 7616TIP3    H247044   4.914   3.893   2.725 -0.9381  0.1553  0.0746
 7617TIP3   OH247045   6.366   4.542   8.231 -0.3251 -0.0818 -0.3932
 7617TIP3    H147046   6.316   4.585   8.162 -0.3474 -1.4033 -1.2315
 7617TIP3    H247047   6.415   4.613   8.273 -0.8316  0.8402 -1.3159
 7618TIP3   OH247048   5.187   3.747   8.613 -0.1967 -0.4704  0.6015
 7618TIP3    H147049   5.197   3.769   8.705 -0.0964 -1.9550  0.9776
 7618TIP3    H247050   5.221   3.658   8.606  0.0201 -0.2923 -0.9226
 7619TIP3   OH247051   2.527   5.336   2.266  0.0914 -0.2165 -0.1394
 7619TIP3    H147052   2.533   5.432   2.275 -0.3928 -0.1766 -0.2112
 7619TIP3    H247053   2.578   5.302   2.339  0.2844  0.0993 -0.1246
 7620TIP3   OH247054   2.909   5.394   8.198  0.1553  0.6355 -0.7028
 7620TIP3    H147055   2.950   5.352   8.274  1.7887 -2.3774 -3.0042
 7620TIP3    H247056   2.819   5.413   8.227  0.8293  0.0898  2.0743
 7621TIP3   OH247057   0.545   3.440   2.313  0.0649 -0.1112  0.0688
 7621TIP3    H147058   0.631   3.416   2.279  0.4225 -1.1070  1.5809
 7621TIP3    H247059   0.525   3.373   2.378 -2.5893 -0.8286 -1.3452
 7622TIP3   OH247060   3.923   4.526   9.839  0.6914  0.3840 -0.4391
 7622TIP3    H147061   4.015   4.506   9.821  0.8842  1.7341 -1.0933
 7622TIP3    H247062   3.908   4.609   9.794 -0.8954  0.1078 -0.4559
 7623TIP3   OH247063   0.928   5.968   7.545 -0.4709  0.4268 -0.0263
 7623TIP3    H147064   0.908   6.052   7.503 -1.6419  1.8187  3.0309
 7623TIP3    H247065   0.888   5.974   7.631 -0.7866 -3.4181  0.2789
 7624TIP3   OH247066   3.065   5.983   1.206  0.0855 -0.5969 -0.0347
 7624TIP3    H147067   3.126   6.035   1.154  0.1700  0.2169  0.8495
 7624TIP3    H247068   2.978   6.010   1.175  0.0919  0.9749  1.2119
 7625TIP3   OH247069   2.946   1.231   7.647 -0.2747  0.4433  0.2715
 7625TIP3    H147070   3.031   1.188   7.649 -1.3499 -1.8204  0.0619
 7625TIP3    H247071   2.959   1.312   7.698  2.1223  0.4945 -0.3134
 7626TIP3   OH247072   5.249   4.127   6.564 -0.4031 -0.7049  0.1089
 7626TIP3    H147073   5.330   4.106   6.611 -0.1467  0.0362  0.0229
 7626TIP3    H247074   5.279   4.172   6.484 -0.9197  0.2893  0.4575
 7627TIP3   OH247075   7.033   0.204   9.708 -0.5672  0.3884 -0.0116
 7627TIP3    H147076   7.041   0.286   9.659 -0.1505  0.5700  0.3592
 7627TIP3    H247077   7.123   0.180   9.730 -0.5164 -1.0456 -1.5379
 7628TIP3   OH247078   1.466   0.438   2.193  0.9037  0.1690  0.4798
 7628TIP3    H147079   1.451   0.533   2.198 -1.9089 -0.1098 -0.6663
 7628TIP3    H247080   1.473   0.410   2.284 -3.8170  0.8876  1.3407
 7629TIP3   OH247081   1.880   3.017   2.546 -0.2939  0.0612 -0.2569
 7629TIP3    H147082   1.964   3.040   2.507  1.1485 -2.4445  1.1222
 7629TIP3    H247083   1.902   2.968   2.625 -3.0718 -0.4670  0.3202
 7630TIP3   OH247084   0.901   2.543   9.790  0.0568 -0.2155  0.1522
 7630TIP3    H147085   0.840   2.587   9.732 -0.4423 -0.1224  0.7388
 7630TIP3    H247086   0.959   2.493   9.732  1.3271  2.0350 -0.6384
 7631TIP3   OH247087   2.858   4.253   7.908  0.1279  0.0112  0.3147
 7631TIP3    H147088   2.780   4.306   7.898  0.7868  1.2282  1.3162
 7631TIP3    H247089   2.927   4.304   7.866  0.4274 -0.9969 -0.4643
 7632TIP3   OH247090   6.840   6.747   2.037 -0.0174 -0.0802  0.0858
 7632TIP3    H147091   6.757   6.722   1.996 -0.6143  0.8899  0.6665
 7632TIP3    H247092   6.865   6.670   2.088 -1.1432 -0.0008  0.7940
 7633TIP3   OH247093   4.969   3.954   0.140  0.5905 -0.1626 -0.6375
 7633TIP3    H147094   4.938   4.044   0.155  0.1800 -0.6362  1.8848
 7633TIP3    H247095   5.033   3.940   0.210  0.7961 -1.7707 -1.1221
 7634TIP3   OH247096   3.074   2.497   8.388 -0.3601 -0.7917  0.1184
 7634TIP3    H147097   3.135   2.429   8.416  0.2035 -0.0869  0.6366
 7634TIP3    H247098   3.119   2.541   8.316 -1.0340 -1.4197 -0.7098
 7635TIP3   OH247099   5.137   0.767   8.036 -0.1138 -0.0394  0.2290
 7635TIP3    H147100   5.196   0.697   8.010  0.3782  0.4403  0.0417
 7635TIP3    H247101   5.054   0.747   7.992 -0.5060 -1.4214  1.5010
 7636TIP3   OH247102   5.435   6.442   1.098  0.3275 -0.2620  0.2184
 7636TIP3    H147103   5.462   6.455   1.189 -2.6068 -0.2769  1.2014
 7636TIP3    H247104   5.479   6.511   1.049  1.7247 -0.0623  1.6890
 7637TIP3   OH247105   5.202   2.992   1.780  0.4261  0.0614 -0.4245
 7637TIP3    H147106   5.287   2.949   1.775  1.1974  1.1202  2.1009
 7637TIP3    H247107   5.221   3.085   1.774 -0.7919  0.2640 -1.6946
 7638TIP3   OH247108   4.489   5.881   1.659  0.3449 -0.1439 -0.2030
 7638TIP3    H147109   4.550   5.949   1.687 -0.2694 -0.0502  0.9677
 7638TIP3    H247110   4.412   5.893   1.715 -0.8346 -0.1362 -1.7553
 7639TIP3   OH247111   6.560   6.076   2.191 -0.4365  0.2110  0.3673
 7639TIP3    H147112   6.496   6.092   2.260 -0.5971  0.8489  0.0847
 7639TIP3    H247113   6.541   5.987   2.160 -1.1566  0.3726  0.3226
 7640TIP3   OH247114   5.360   3.453   8.643 -0.2819 -0.2325  0.0215
 7640TIP3    H147115   5.288   3.392   8.626  1.7238 -2.6344 -0.4925
 7640TIP3    H247116   5.423   3.402   8.694  2.2786  0.7803 -1.8817
 7641TIP3   OH247117   2.275   4.830   1.189  0.4913 -0.3713 -0.2789
 7641TIP3    H147118   2.347   4.894   1.188  1.1816 -1.1291 -0.7810
 7641TIP3    H247119   2.212   4.864   1.126  0.5026  0.1962  0.0067
 7642TIP3   OH247120   6.437   2.086   7.304 -0.2961  0.5712  0.4530
 7642TIP3    H147121   6.498   2.125   7.242  0.8945 -1.1754  0.4820
 7642TIP3    H247122   6.400   2.011   7.258  0.5350 -0.7038  1.7645
 7643TIP3   OH247123   5.756   4.405   9.104 -0.3677 -0.4090 -0.6186
 7643TIP3    H147124   5.715   4.428   9.187 -0.6262 -2.1641 -0.2201
 7643TIP3    H247125   5.772   4.310   9.110 -0.4775 -0.6053 -2.5905
 7644TIP3   OH247126   2.508   0.404   9.262  0.0269 -0.2990 -0.5291
 7644TIP3    H147127   2.452   0.328   9.244 -0.6557  0.5718 -2.2608
 7644TIP3    H247128   2.494   0.422   9.355 -0.8073 -1.4975 -0.3935
 7645TIP3   OH247129   0.158   0.717   7.492  0.2459 -0.2902  0.3453
 7645TIP3    H147130   0.208   0.764   7.559 -0.2012  1.0418 -0.2223
 7645TIP3    H247131   0.069   0.750   7.501  0.4321  0.9946 -1.7897
 7646TIP3   OH247132   0.971   2.801   3.077  0.0950 -0.0005 -0.1495
 7646TIP3    H147133   0.999   2.887   3.046  0.8973  0.0345  0.6114
 7646TIP3    H247134   0.881   2.792   3.049  0.5433  0.3546 -1.7701
 7647TIP3   OH247135   0.928   5.752   6.580  0.0362  0.4048 -0.2242
 7647TIP3    H147136   0.886   5.750   6.666 -1.1128 -2.4738 -0.7462
 7647TIP3    H247137   0.865   5.711   6.521  1.4141  0.9405 -2.1690
 7648TIP3   OH247138   1.630   7.218   7.224  0.1191  0.3815 -0.3198
 7648TIP3    H147139   1.642   7.238   7.317  2.4245 -1.9146  0.0130
 7648TIP3    H247140   1.688   7.143   7.209 -0.9225  0.0751 -3.4098
 7649TIP3   OH247141   1.561   4.809   0.671  0.1684 -0.4151 -0.1187
 7649TIP3    H147142   1.483   4.853   0.705 -0.0455 -0.0487 -1.0686
 7649TIP3    H247143   1.605   4.775   0.749 -1.1278 -0.9470  0.3955
 7650TIP3   OH247144   5.277   5.686   2.317  0.4410 -0.0178 -0.4946
 7650TIP3    H147145   5.188   5.689   2.351  1.0832 -0.2784  1.3570
 7650TIP3    H247146   5.331   5.664   2.394  2.3583  2.4927 -0.9893
 7651TIP3   OH247147   2.342   4.616   9.473 -0.0510  0.5114 -0.5785
 7651TIP3    H147148   2.249   4.638   9.472 -0.3929 -0.7656  0.2967
 7651TIP3    H247149   2.373   4.642   9.386 -1.5425 -0.2415 -1.3997
 7652TIP3   OH247150   5.324   7.115   8.940 -0.5025 -0.0735 -0.0287
 7652TIP3    H147151   5.320   7.199   8.987  0.2667  0.2243 -0.4677
 7652TIP3    H247152   5.234   7.083   8.941 -0.5465  0.0123  1.4731
 7653TIP3   OH247153   6.080   6.568   1.950  0.0433  0.3033 -0.0693
 7653TIP3    H147154   6.017   6.586   1.879  0.2771 -0.6174 -0.5174
 7653TIP3    H247155   6.039   6.606   2.028 -0.9671 -0.0633 -0.4034
 7654TIP3   OH247156   5.312   0.806   0.253  0.0458  0.3254  0.4154
 7654TIP3    H147157   5.386   0.745   0.247  0.4090  0.8714 -1.6076
 7654TIP3    H247158   5.254   0.779   0.182 -0.8145  1.0557  0.8254
 7655TIP3   OH247159   1.324   3.948   2.703 -0.1844  0.4276  0.5239
 7655TIP3    H147160   1.307   4.037   2.673 -1.5804  0.3310  0.9306
 7655TIP3    H247161   1.387   3.957   2.774 -1.5203  1.2710  1.6350
 7656TIP3   OH247162   2.298   5.688   0.982  0.3330  0.1173  0.0771
 7656TIP3    H147163   2.389   5.689   1.012  0.1647 -1.0888  0.6672
 7656TIP3    H247164   2.286   5.774   0.941  1.6606  0.3884  0.2002
 7657TIP3   OH247165   2.828   7.247   8.982  0.2057  0.2550  0.5229
 7657TIP3    H147166   2.790   7.174   8.934 -0.8969  1.9405 -1.2909
 7657TIP3    H247167   2.777   7.251   9.063 -0.0618 -0.6345  0.4145
 7658TIP3   OH247168   3.323   3.680   9.455 -0.2336  0.0298  0.1768
 7658TIP3    H147169   3.250   3.623   9.481 -1.5879  1.9790  0.8073
 7658TIP3    H247170   3.398   3.646   9.504 -0.4107 -2.5928 -1.1779
 7659TIP3   OH247171   1.559   6.301   8.090  0.5462 -0.1518  0.4737
 7659TIP3    H147172   1.554   6.220   8.139  1.8392 -0.5827 -0.0604
 7659TIP3    H247173   1.637   6.345   8.125  0.5018  0.3298 -0.0226
 7660TIP3   OH247174   4.850   1.432   0.698  0.1072 -0.6896  0.3392
 7660TIP3    H147175   4.759   1.440   0.727  0.4000 -1.0856  1.4004
 7660TIP3    H247176   4.849   1.358   0.637 -0.1689 -1.0989  0.8344
 7661TIP3   OH247177   1.721   5.746   8.152 -0.7704 -0.0589  0.6424
 7661TIP3    H147178   1.651   5.686   8.124  0.9402 -2.2638  0.7844
 7661TIP3    H247179   1.728   5.731   8.247  1.3712 -1.7001  0.3130
 7662TIP3   OH247180   4.926   3.911   8.518 -0.1915 -0.2366 -0.2241
 7662TIP3    H147181   5.019   3.897   8.538 -0.3684 -0.7797  0.2427
 7662TIP3    H247182   4.890   3.951   8.597 -0.1901  0.7356 -0.7024
 7663TIP3   OH247183   1.217   6.641   0.243  0.4314 -0.4978 -0.3416
 7663TIP3    H147184   1.140   6.646   0.300  0.4738  2.4806 -0.3643
 7663TIP3    H247185   1.186   6.670   0.158  1.8288  2.7711  0.1054
 7664TIP3   OH247186   0.566   3.809   1.751  0.1492 -0.1425 -0.5564
 7664TIP3    H147187   0.471   3.809   1.739  0.0704 -1.5340 -0.0703
 7664TIP3    H247188   0.588   3.901   1.767 -0.6664  0.7373 -3.7371
 7665TIP3   OH247189   4.435   5.738   7.946  0.7529 -0.9911 -0.0138
 7665TIP3    H147190   4.502   5.701   7.888  0.2847 -0.5552 -0.8477
 7665TIP3    H247191   4.480   5.810   7.991  0.3399  0.7324 -2.1609
 7666TIP3   OH247192   1.131   3.329   1.666  0.1384 -0.2307 -0.4455
 7666TIP3    H147193   1.043   3.320   1.629  0.2989 -0.1422 -0.8442
 7666TIP3    H247194   1.182   3.259   1.626 -0.4258 -2.1289  1.8800
 7667TIP3   OH247195   0.225   2.668   7.178 -0.3484  0.4275 -0.4048
 7667TIP3    H147196   0.206   2.603   7.110 -0.2422 -1.0494  0.9240
 7667TIP3    H247197   0.319   2.682   7.172 -0.2112 -0.3036 -0.0647
 7668TIP3   OH247198   6.091   1.612   0.581 -0.2289  0.2881  0.2792
 7668TIP3    H147199   6.059   1.618   0.491 -0.1683  0.0102  0.2392
 7668TIP3    H247200   6.047   1.535   0.617 -0.0348  0.2312  0.3977
 7669TIP3   OH247201   3.357   5.510   2.538 -0.1142  0.0311  0.6979
 7669TIP3    H147202   3.296   5.500   2.611 -1.4747 -0.2337 -0.4274
 7669TIP3    H247203   3.320   5.455   2.468  1.9143 -0.8923  0.2641
 7670TIP3   OH247204   5.566   1.736   0.002  0.3304 -0.5721  0.0587
 7670TIP3    H147205   5.540   1.649  -0.028  0.7268 -0.8617  0.5411
 7670TIP3    H247206   5.488   1.769   0.048 -0.3715 -0.0140 -1.4789
 7671TIP3   OH247207   2.378   3.736   8.802 -0.4545  0.5038  0.2071
 7671TIP3    H147208   2.397   3.768   8.714 -0.7737 -0.5195 -0.2586
 7671TIP3    H247209   2.437   3.785   8.859 -0.9649  1.9301 -0.4378
 7672TIP3   OH247210   3.863   1.060   9.154 -0.3426  0.0387  0.2531
 7672TIP3    H147211   3.924   1.045   9.082  0.1440 -0.8799  0.8457
 7672TIP3    H247212   3.795   0.994   9.142 -0.1649 -0.2365  0.7337
 7673TIP3   OH247213   7.100   3.273   1.979 -0.5863  0.2758 -0.0648
 7673TIP3    H147214   7.105   3.334   1.906 -3.4957  0.8149  0.0759
 7673TIP3    H247215   7.123   3.188   1.941  1.8949  1.1112 -0.6223
 7674TIP3   OH247216   6.949   3.062   8.704  0.0459 -0.3397 -0.3236
 7674TIP3    H147217   7.035   3.066   8.746 -0.6464 -3.0979  1.6239
 7674TIP3    H247218   6.953   2.987   8.645 -1.3969 -1.5310  0.9818
 7675TIP3   OH247219   0.110   0.239   7.539 -0.1188 -0.2887  0.8765
 7675TIP3    H147220   0.068   0.297   7.476  0.7007  1.2590  1.7118
 7675TIP3    H247221   0.140   0.164   7.487 -0.5710  0.3605 -0.3426
 7676TIP3   OH247222   3.480   2.457   8.292 -0.4559 -0.5829  0.0202
 7676TIP3    H147223   3.421   2.435   8.220 -0.5137 -1.6918  0.3914
 7676TIP3    H247224   3.557   2.493   8.249 -1.0418  0.0750 -0.5143
 7677TIP3   OH247225   6.359   6.232   1.001 -0.8614 -0.2771 -0.3900
 7677TIP3    H147226   6.443   6.276   1.012 -2.0634  1.9957  0.3919
 7677TIP3    H247227   6.358   6.205   0.909  1.4150 -2.0237  0.0154
 7678TIP3   OH247228   3.177   4.768   6.848 -0.0424 -0.0488 -0.0497
 7678TIP3    H147229   3.097   4.764   6.795 -0.4283 -0.5833  0.5591
 7678TIP3    H247230   3.179   4.857   6.881 -1.0903 -0.3870  0.9843
 7679TIP3   OH247231   0.781   2.083   2.258  0.6662 -0.2252 -0.9084
 7679TIP3    H147232   0.730   2.162   2.274  1.0008  0.2361 -1.9987
 7679TIP3    H247233   0.718   2.022   2.219  0.5704 -0.2467 -0.7217
 7680TIP3   OH247234   4.113   4.087   0.877  0.6100  0.5347  0.1499
 7680TIP3    H147235   4.103   4.179   0.899  0.2682  0.7497 -0.8477
 7680TIP3    H247236   4.200   4.081   0.835  0.6385  0.4018  0.2272
 7681TIP3   OH247237   2.525   5.062   8.867  0.1697  0.0945  0.1910
 7681TIP3    H147238   2.481   5.061   8.782  1.3800  0.8309 -0.4578
 7681TIP3    H247239   2.489   5.139   8.911 -1.1862 -0.8231  0.7796
 7682TIP3   OH247240   3.127   5.179   7.416  0.1773 -1.0834  0.1553
 7682TIP3    H147241   3.069   5.162   7.490 -2.1030  3.2240 -0.3078
 7682TIP3    H247242   3.093   5.124   7.346 -0.9469 -1.4493  0.9546
 7683TIP3   OH247243   0.755   3.723   9.384  0.2145 -0.8186  0.0628
 7683TIP3    H147244   0.673   3.770   9.368 -0.0210 -0.2134  2.6282
 7683TIP3    H247245   0.823   3.783   9.352 -0.2628 -0.5073 -0.3881
 7684TIP3   OH247246   4.085   5.745   7.453 -0.1767 -0.1466  0.4433
 7684TIP3    H147247   4.020   5.800   7.412 -0.2272 -1.9023 -2.0693
 7684TIP3    H247248   4.039   5.704   7.527 -0.1951  2.8005  2.2102
 7685TIP3   OH247249   4.678   1.780   0.759 -0.1501 -0.6586 -0.5435
 7685TIP3    H147250   4.651   1.715   0.694  1.7052 -2.7694  0.6281
 7685TIP3    H247251   4.772   1.792   0.742 -0.3605  1.3921 -0.4156
 7686TIP3   OH247252   1.637   5.284   8.949  0.0474  0.1976 -0.3299
 7686TIP3    H147253   1.726   5.303   8.919  0.1089  0.8448  0.2268
 7686TIP3    H247254   1.618   5.198   8.913  0.8858  0.0667 -0.4951
 7687TIP3   OH247255   0.711   5.021   0.043 -0.9467  0.1865  0.7649
 7687TIP3    H147256   0.627   4.979   0.023 -1.1112  0.2112  1.4001
 7687TIP3    H247257   0.729   4.998   0.134 -0.7055  0.9364  0.9144
 7688TIP3   OH247258   4.581   3.058   9.096  0.0955 -0.6888 -0.4117
 7688TIP3    H147259   4.513   3.052   9.163 -0.4753  0.5868 -0.8538
 7688TIP3    H247260   4.588   2.969   9.062 -0.4813 -1.0910  0.4808
 7689TIP3   OH247261   6.141   4.645   7.675  0.0240  0.2246 -0.1983
 7689TIP3    H147262   6.175   4.732   7.654  0.3299  0.4086  0.9603
 7689TIP3    H247263   6.064   4.635   7.619  0.9469  0.5319 -1.5730
 7690TIP3   OH247264   7.278   1.486   8.850  0.1365 -0.2262  0.1579
 7690TIP3    H147265   7.234   1.510   8.932 -1.0279  1.2337 -0.8315
 7690TIP3    H247266   7.214   1.507   8.782  2.3735  2.1954 -1.4061
 7691TIP3   OH247267   6.095   2.876   7.743  0.2833  0.1258 -0.0735
 7691TIP3    H147268   6.188   2.896   7.744  0.6591 -1.5376  0.5956
 7691TIP3    H247269   6.075   2.845   7.831 -0.6229 -0.7098 -0.5476
 7692TIP3   OH247270   1.649   0.716   9.892  0.2122  0.0892 -0.2126
 7692TIP3    H147271   1.664   0.666   9.972  0.2260  2.0058  1.0430
 7692TIP3    H247272   1.591   0.788   9.919 -1.1691 -0.1551 -2.2927
 7693TIP3   OH247273   6.216   0.878   1.638 -0.1861 -0.1270  0.2812
 7693TIP3    H147274   6.278   0.921   1.579 -1.5371  0.5866 -0.6417
 7693TIP3    H247275   6.272   0.842   1.707  1.1538  1.7061  0.2425
 7694TIP3   OH247276   6.448   1.327   9.705  0.1883  0.6866  0.3213
 7694TIP3    H147277   6.520   1.330   9.642  0.3240  0.7368  0.4764
 7694TIP3    H247278   6.394   1.253   9.676  0.6094  0.2928  0.5326
 7695TIP3   OH247279   1.470   0.534   7.691 -0.0967 -0.1891 -0.1263
 7695TIP3    H147280   1.448   0.615   7.644  1.2600  0.0321 -0.4089
 7695TIP3    H247281   1.444   0.551   7.781  0.0339  0.5120 -0.2141
 7696TIP3   OH247282   0.890   6.454   0.590  0.3886  0.4763 -0.1337
 7696TIP3    H147283   0.807   6.495   0.565  0.5478  1.2210  0.5439
 7696TIP3    H247284   0.892   6.373   0.539 -0.2014  1.0220 -1.0553
 7697TIP3   OH247285   4.979   2.825   8.603 -0.1683  0.4621  0.5687
 7697TIP3    H147286   5.004   2.917   8.600  1.1302  0.1084 -1.4156
 7697TIP3    H247287   4.899   2.820   8.551  0.1065  0.3862  0.1489
 7698TIP3   OH247288   6.421   3.381   0.854  0.3110 -0.0994 -0.0471
 7698TIP3    H147289   6.477   3.376   0.931 -0.0742 -0.8186  0.1914
 7698TIP3    H247290   6.387   3.292   0.842  1.5027 -0.3607 -1.9012
 7699TIP3   OH247291   6.510   2.987   9.031  0.0628  0.9690 -0.5449
 7699TIP3    H147292   6.571   2.974   9.103 -1.2467  0.2017  0.4756
 7699TIP3    H247293   6.475   3.075   9.046 -1.4314  0.2084  0.7939
 7700TIP3   OH247294   3.931   5.751   1.713  0.1617  0.2150  0.6291
 7700TIP3    H147295   3.903   5.685   1.649  0.9188 -2.2310  2.6708
 7700TIP3    H247296   4.026   5.741   1.717  0.4786  2.4433  0.0348
 7701TIP3   OH247297   0.003   3.830   0.711  0.1068 -0.0115  0.0624
 7701TIP3    H147298  -0.085   3.845   0.745  0.4512 -0.1721  1.0495
 7701TIP3    H247299   0.037   3.759   0.765  0.5088 -0.5808 -0.9242
 7702TIP3   OH247300   0.269   2.768   7.871  0.4035  0.5988 -0.2507
 7702TIP3    H147301   0.255   2.674   7.867 -2.9852  0.8604  1.8550
 7702TIP3    H247302   0.335   2.779   7.940  0.3510 -0.1847 -0.0644
 7703TIP3   OH247303   1.862   6.690   0.185 -0.1617  0.7264 -0.9045
 7703TIP3    H147304   1.792   6.745   0.221 -1.3131 -2.1704  1.7349
 7703TIP3    H247305   1.913   6.664   0.262  0.5437 -1.5359 -2.0673
 7704TIP3   OH247306   4.347   6.688   7.398 -0.1044 -0.5381  0.0962
 7704TIP3    H147307   4.280   6.757   7.400 -0.2545 -0.7078  1.7964
 7704TIP3    H247308   4.429   6.734   7.414  0.0924 -0.4647 -1.0355
 7705TIP3   OH247309   6.057   2.436   0.888 -0.4704 -0.0949  0.4523
 7705TIP3    H147310   6.148   2.409   0.898 -0.4043  0.6574  2.3693
 7705TIP3    H247311   6.061   2.531   0.873 -0.9126 -0.1221  0.1476
 7706TIP3   OH247312   2.575   4.416   8.248  0.0646 -0.0432  0.4443
 7706TIP3    H147313   2.542   4.435   8.161 -1.3965  1.3142  1.2334
 7706TIP3    H247314   2.640   4.485   8.265  1.6682 -1.3248 -0.1914
 7707TIP3   OH247315   4.847   2.475   9.703  0.6160  0.1857  0.4271
 7707TIP3    H147316   4.782   2.415   9.739 -1.3886  1.2793 -1.2179
 7707TIP3    H247317   4.873   2.530   9.778 -0.6158 -0.0435  1.0451
 7708TIP3   OH247318   1.122   2.954   9.565  0.3579 -0.4658  0.7880
 7708TIP3    H147319   1.193   2.926   9.623 -0.1023 -2.7355  0.3430
 7708TIP3    H247320   1.044   2.948   9.620  0.2435  0.0802  0.6938
 7709TIP3   OH247321   4.372   1.048   0.312  0.1674  0.2851  0.2217
 7709TIP3    H147322   4.348   0.957   0.293 -0.4270  0.3641  0.5606
 7709TIP3    H247323   4.307   1.100   0.265 -0.9040  0.4905  1.8782
 7710TIP3   OH247324   6.618   2.689   8.704  0.4778 -0.5953 -0.7989
 7710TIP3    H147325   6.542   2.715   8.757  1.4279  1.6559 -0.4540
 7710TIP3    H247326   6.687   2.673   8.768  0.7850 -0.9144 -1.2087
 7711TIP3   OH247327   3.598   1.558   1.876 -0.4929  0.4690 -0.8509
 7711TIP3    H147328   3.547   1.487   1.838  0.5094 -0.1162 -1.1516
 7711TIP3    H247329   3.582   1.551   1.970  1.0119 -1.3501 -0.6762
 7712TIP3   OH247330   4.430   1.657   8.119 -0.3166 -0.0215 -0.2847
 7712TIP3    H147331   4.437   1.652   8.215 -0.9394  1.2892 -0.1615
 7712TIP3    H247332   4.435   1.750   8.099  0.3488 -0.3203 -1.5885
 7713TIP3   OH247333   6.520   5.791   9.317  0.3174 -0.1885 -0.5592
 7713TIP3    H147334   6.547   5.877   9.286  1.9557 -0.9388 -1.3173
 7713TIP3    H247335   6.478   5.751   9.240 -0.5456 -0.0500 -0.1753
 7714TIP3   OH247336   2.711   6.801   2.637  0.3183 -0.3803 -0.4099
 7714TIP3    H147337   2.690   6.886   2.597  0.8035 -0.6788 -1.3310
 7714TIP3    H247338   2.654   6.797   2.714  1.1017  1.2759  0.3142
 7715TIP3   OH247339   5.736   4.136   1.181  0.4032  0.1016 -0.0983
 7715TIP3    H147340   5.707   4.170   1.265 -0.9992 -0.8299 -0.1638
 7715TIP3    H247341   5.782   4.208   1.140 -0.6554  1.2324  0.6364
 7716TIP3   OH247342   0.217   0.520   7.307 -0.1974 -0.8410 -0.2361
 7716TIP3    H147343   0.163   0.445   7.283 -1.0262 -1.0732  2.1492
 7716TIP3    H247344   0.162   0.572   7.364  0.0411  2.1293 -2.4873
 7717TIP3   OH247345   2.013   5.026   8.189 -0.1913  0.4518  0.1915
 7717TIP3    H147346   2.059   5.013   8.106 -1.8862 -0.3615 -0.6637
 7717TIP3    H247347   2.072   5.080   8.240  2.8123 -2.4165  0.1017
 7718TIP3   OH247348   1.295   0.900   9.519 -0.2170 -0.5774  0.1443
 7718TIP3    H147349   1.283   0.813   9.481  3.2235 -0.6178 -1.2381
 7718TIP3    H247350   1.298   0.885   9.614 -0.4200 -1.8724 -0.0353
 7719TIP3   OH247351   2.621   0.884   8.800  0.3536 -0.1574 -0.5395
 7719TIP3    H147352   2.543   0.829   8.813  1.5779 -2.1312 -1.1116
 7719TIP3    H247353   2.669   0.842   8.729  1.2653  1.8374 -1.1838
 7720TIP3   OH247354   5.301   1.251   8.656 -0.8534 -0.3696  0.2883
 7720TIP3    H147355   5.249   1.172   8.668  0.8610 -1.3577  1.7366
 7720TIP3    H247356   5.368   1.246   8.724  0.0425  1.7288 -0.3644
 7721TIP3   OH247357   4.168   2.739   9.882  0.3110  0.6248 -0.6794
 7721TIP3    H147358   4.131   2.700   9.962  1.6900  0.5138 -0.0800
 7721TIP3    H247359   4.148   2.832   9.889 -1.3752  0.3487 -1.2288
 7722TIP3   OH247360   4.819   1.922   7.746 -0.1337 -1.2490 -0.0090
 7722TIP3    H147361   4.762   1.943   7.672 -1.1546  1.8769  1.4827
 7722TIP3    H247362   4.907   1.932   7.712 -0.5884 -0.0587 -0.8931
 7723TIP3   OH247363   5.085   1.954   7.688  0.3816 -0.3024 -0.2552
 7723TIP3    H147364   5.077   2.048   7.702  1.5498 -0.3147  0.5633
 7723TIP3    H247365   5.138   1.946   7.608  1.8314 -0.2471  0.6700
 7724TIP3   OH247366   0.661   4.428   9.598  0.2610 -0.1242  0.2518
 7724TIP3    H147367   0.678   4.495   9.664  1.6665  0.2562 -0.4644
 7724TIP3    H247368   0.638   4.477   9.519 -0.3890 -0.5443  0.1733
 7725TIP3   OH247369   4.665   2.289   7.302  0.3817 -0.3036 -0.6982
 7725TIP3    H147370   4.717   2.294   7.382  0.9963 -0.3228 -1.0938
 7725TIP3    H247371   4.594   2.351   7.315  0.0682 -0.8305  0.1630
 7726TIP3   OH247372   3.050   6.268   8.625  0.6672 -0.1524 -0.1049
 7726TIP3    H147373   3.072   6.301   8.538 -0.5568  1.3297  0.1176
 7726TIP3    H247374   3.133   6.271   8.673  1.5917 -1.9805 -1.4709
 7727TIP3   OH247375   3.119   0.517   8.503  0.0998 -0.1184 -0.2164
 7727TIP3    H147376   3.104   0.423   8.490 -0.1985 -0.2623  1.0447
 7727TIP3    H247377   3.039   0.559   8.472 -0.5626 -0.4416  1.0079
 7728TIP3   OH247378   0.974   4.942   8.874 -0.3360  0.2145 -0.9791
 7728TIP3    H147379   1.044   5.005   8.888 -1.1842  1.0129 -0.1749
 7728TIP3    H247380   0.998   4.867   8.930  0.6415 -0.1827 -1.8954
 7729TIP3   OH247381   4.614   5.343   1.346 -0.3801  0.4326 -0.1736
 7729TIP3    H147382   4.632   5.333   1.252  0.2741  0.2161 -0.0342
 7729TIP3    H247383   4.566   5.264   1.370  1.7602 -0.8156  0.2051
 7730TIP3   OH247384   2.908   6.903   1.268 -0.0758 -1.0390 -0.2241
 7730TIP3    H147385   2.931   6.863   1.352  2.5399  1.7784  0.5881
 7730TIP3    H247386   2.877   6.991   1.290  0.8842 -0.1366 -2.1765
 7731TIP3   OH247387   5.791   6.724   7.288  0.0013 -0.3544  0.1470
 7731TIP3    H147388   5.796   6.819   7.281  1.3513 -0.5138 -1.9682
 7731TIP3    H247389   5.732   6.698   7.218  0.6362 -1.1397 -0.1091
 7732TIP3   OH247390   0.616   0.702   0.508  0.1225  0.1328  0.2323
 7732TIP3    H147391   0.708   0.720   0.528  0.8009  0.4887 -2.8021
 7732TIP3    H247392   0.587   0.778   0.457 -1.2720 -0.8796 -0.5467
 7733TIP3   OH247393   7.184   1.566   7.725 -0.7423  0.1815  0.9332
 7733TIP3    H147394   7.261   1.575   7.669 -1.3230 -0.5466 -0.0323
 7733TIP3    H247395   7.112   1.550   7.663 -1.0467 -3.0222  1.9429
 7734TIP3   OH247396   5.573   4.890   2.017 -0.3444  0.0771  0.0535
 7734TIP3    H147397   5.586   4.945   2.094  1.8366  0.4719 -0.5418
 7734TIP3    H247398   5.654   4.839   2.009 -0.4871  0.0674 -1.9787
 7735TIP3   OH247399   4.855   4.074   8.752 -0.2749  0.1366  0.4619
 7735TIP3    H147400   4.776   4.105   8.796  0.8060  0.6033  2.1493
 7735TIP3    H247401   4.927   4.102   8.808  1.0444 -1.2978 -0.4272
 7736TIP3   OH247402   0.919   5.570   9.622  0.7588 -0.1548 -0.4640
 7736TIP3    H147403   0.826   5.593   9.621  0.0872 -2.5639 -0.0421
 7736TIP3    H247404   0.943   5.569   9.714  0.8175 -0.8201 -0.4781
 7737TIP3   OH247405   4.916   6.539   0.203  0.0107 -0.1108  0.1940
 7737TIP3    H147406   4.915   6.472   0.272 -1.7075 -0.3069  0.0145
 7737TIP3    H247407   4.824   6.552   0.181  0.5189 -0.6760 -2.6839
 7738TIP3   OH247408   4.078   4.722   0.184  0.2613  0.0188  0.3213
 7738TIP3    H147409   3.992   4.764   0.186  0.0135 -0.4725  0.1447
 7738TIP3    H247410   4.064   4.636   0.224  0.5344 -0.2871 -0.2209
 7739TIP3   OH247411   0.350   6.932   1.852  0.9490 -0.1518 -0.1539
 7739TIP3    H147412   0.296   6.987   1.909  2.1144  0.3964  0.4609
 7739TIP3    H247413   0.373   6.989   1.779  1.1675 -0.2027 -0.1242
 7740TIP3   OH247414   5.195   0.124   2.232  0.7492 -0.0873 -0.5008
 7740TIP3    H147415   5.252   0.193   2.201  0.4938  0.5808  0.4545
 7740TIP3    H247416   5.141   0.166   2.300 -0.8514 -0.6916 -1.3421
 7741TIP3   OH247417   3.743   4.300   8.824  0.4046 -0.9394 -0.0406
 7741TIP3    H147418   3.762   4.229   8.886 -0.6236 -1.7653 -0.6591
 7741TIP3    H247419   3.668   4.270   8.774 -1.0582  1.2268  0.7032
 7742TIP3   OH247420   6.997   4.250   0.151 -0.5910  0.0658  0.3438
 7742TIP3    H147421   6.904   4.245   0.127 -0.8102  0.1917  1.1429
 7742TIP3    H247422   7.017   4.343   0.148 -0.3978  0.0124 -0.1456
 7743TIP3   OH247423   6.180   0.712   0.978 -0.3520  0.0412 -0.3264
 7743TIP3    H147424   6.210   0.645   1.039  1.7299  1.3291  0.1613
 7743TIP3    H247425   6.184   0.670   0.892  1.7338 -0.2632 -0.1271
 7744TIP3   OH247426   6.203   0.595   0.707  0.4169  0.3724  0.2169
 7744TIP3    H147427   6.137   0.663   0.693 -1.5658 -1.4966 -0.0250
 7744TIP3    H247428   6.157   0.526   0.756  2.1055 -1.1400 -0.2117
 7745TIP3   OH247429   3.215   3.617   8.703 -0.0459 -0.2805 -0.6695
 7745TIP3    H147430   3.250   3.622   8.792  0.7857 -0.9061 -0.9473
 7745TIP3    H247431   3.166   3.535   8.701 -0.4160 -0.0621 -0.6721
 7746TIP3   OH247432   1.749   3.865   1.585  0.0989 -0.4285  0.0832
 7746TIP3    H147433   1.752   3.876   1.490 -1.0356  1.2177  0.1970
 7746TIP3    H247434   1.666   3.818   1.600  0.4726 -1.0453  0.2418
 7747TIP3   OH247435   4.114   5.641   0.134  0.1424 -0.1771 -0.7727
 7747TIP3    H147436   4.111   5.682   0.047 -0.8767 -0.8217 -1.0576
 7747TIP3    H247437   4.168   5.563   0.122 -0.4695 -0.5755 -0.9723
 7748TIP3   OH247438   3.187   6.740   2.012  0.1544  0.2950  0.3944
 7748TIP3    H147439   3.213   6.754   1.921  0.6489  0.5081  0.5643
 7748TIP3    H247440   3.092   6.747   2.011  0.1037 -0.3511 -0.2162
 7749TIP3   OH247441   0.891   3.844   1.525  0.1704 -0.2366  0.0360
 7749TIP3    H147442   0.960   3.905   1.551  1.2255 -1.0295 -0.8423
 7749TIP3    H247443   0.845   3.824   1.607 -0.7500  2.3444  0.2246
 7750TIP3   OH247444   6.719   4.654   2.545 -0.1183 -0.4617  1.0082
 7750TIP3    H147445   6.809   4.683   2.562  0.6186 -1.9416 -0.0782
 7750TIP3    H247446   6.706   4.581   2.605 -1.1559  0.6423  2.1786
 7751TIP3   OH247447   0.707   2.405   9.977  0.4633  0.3156  0.1961
 7751TIP3    H147448   0.779   2.463   9.951  2.5717 -0.8059  2.9894
 7751TIP3    H247449   0.741   2.317   9.962 -0.9710 -0.2596  0.1764
 7752TIP3   OH247450   4.210   4.362   1.344  0.0234 -0.1119 -0.2392
 7752TIP3    H147451   4.191   4.371   1.438  0.4502 -1.7004  0.0171
 7752TIP3    H247452   4.197   4.269   1.325 -1.5178  0.4110 -2.1114
 7753TIP3   OH247453   1.686   3.163   7.672 -0.6534 -0.3977 -0.3278
 7753TIP3    H147454   1.734   3.096   7.721  0.3972  0.4074 -0.2308
 7753TIP3    H247455   1.648   3.219   7.740 -0.4264 -0.1390 -0.4108
 7754TIP3   OH247456   7.019   4.714   0.939 -0.4228 -0.1300 -0.3700
 7754TIP3    H147457   6.941   4.768   0.953 -0.5855 -0.6852  1.0580
 7754TIP3    H247458   6.993   4.653   0.870 -1.1896 -0.1804 -0.0495
 7755TIP3   OH247459   4.182   6.088   1.310  0.0591 -0.0339 -0.2962
 7755TIP3    H147460   4.252   6.040   1.352  0.2169  0.5052  0.0696
 7755TIP3    H247461   4.112   6.091   1.375 -1.2377 -2.5508 -1.4499
 7756TIP3   OH247462   0.746   0.194   0.966 -0.2061 -0.1354 -0.4913
 7756TIP3    H147463   0.806   0.238   1.026 -0.8105 -0.3094  0.2427
 7756TIP3    H247464   0.726   0.260   0.899  0.5456  0.0224 -0.5640
 7757TIP3   OH247465   2.229   1.195   9.224  0.0298 -0.3657 -0.1540
 7757TIP3    H147466   2.142   1.209   9.262  0.5285 -0.1734  0.9380
 7757TIP3    H247467   2.282   1.160   9.296 -0.1050 -4.2320 -1.6852
 7758TIP3   OH247468   0.759   4.089   7.931 -0.3385 -0.2912 -0.2895
 7758TIP3    H147469   0.775   4.175   7.969 -0.5112 -0.1367 -0.5591
 7758TIP3    H247470   0.668   4.093   7.900 -0.6091 -0.8360  0.3924
 7759TIP3   OH247471   3.732   3.984   8.421  0.3057 -0.3746  0.1471
 7759TIP3    H147472   3.766   3.895   8.412  0.7867 -0.1197 -0.6385
 7759TIP3    H247473   3.805   4.040   8.396  0.8531  0.3567  3.0009
 7760TIP3   OH247474   3.549   5.446   8.345  0.2433 -0.3953 -0.1552
 7760TIP3    H147475   3.455   5.463   8.357  0.7075  1.4441  1.4705
 7760TIP3    H247476   3.570   5.487   8.261  0.0659  1.6829  0.7480
 7761TIP3   OH247477   2.868   3.227   1.558 -0.1318 -0.3337 -0.2087
 7761TIP3    H147478   2.908   3.236   1.472 -0.1724  2.4127 -0.0494
 7761TIP3    H247479   2.912   3.294   1.611 -2.2043  0.1358  1.0297
 7762TIP3   OH247480   6.038   6.087   1.955 -0.0962 -0.4317  0.1368
 7762TIP3    H147481   5.982   6.132   1.892  0.5378  0.6860  0.3509
 7762TIP3    H247482   6.064   6.154   2.017 -0.2900 -1.4126  1.3114
 7763TIP3   OH247483   2.654   0.332   7.715 -0.6561  0.4371  0.0282
 7763TIP3    H147484   2.586   0.275   7.678 -0.0016 -0.4795  0.2074
 7763TIP3    H247485   2.639   0.327   7.809  0.0252 -0.2463  0.1049
 7764TIP3   OH247486   1.542   3.660   8.943 -0.8712  0.2708  0.1514
 7764TIP3    H147487   1.567   3.584   8.995 -2.5584  1.0580  2.2496
 7764TIP3    H247488   1.459   3.634   8.902 -0.1556  0.0922 -1.2262
 7765TIP3   OH247489   0.829   5.527   8.591  0.0733  0.6165 -0.4907
 7765TIP3    H147490   0.892   5.461   8.562  0.5662  0.5067  0.7403
 7765TIP3    H247491   0.783   5.485   8.664 -1.7774  0.5297 -1.6646
 7766TIP3   OH247492   4.812   5.735   2.951  0.5671 -0.1443 -0.5262
 7766TIP3    H147493   4.801   5.797   3.023 -0.3258  0.6371 -1.3020
 7766TIP3    H247494   4.893   5.761   2.908  0.7828 -0.2245 -0.1603
 7767TIP3   OH247495   5.857   2.107   1.368 -0.0469  0.0340 -0.0576
 7767TIP3    H147496   5.823   2.196   1.374 -2.5321 -0.9543  2.9955
 7767TIP3    H247497   5.827   2.064   1.448  0.2737 -3.8449 -1.7993
 7768TIP3   OH247498   1.206   2.119   8.810  0.4224 -0.2344 -0.1855
 7768TIP3    H147499   1.269   2.046   8.804 -0.6859 -1.2418 -0.0366
 7768TIP3    H247500   1.188   2.142   8.718  0.1114 -0.7702 -0.2694
 7769TIP3   OH247501   3.605   4.977   8.654 -0.5597 -0.5123  0.2397
 7769TIP3    H147502   3.570   4.917   8.720 -0.3667 -0.7123  0.1630
 7769TIP3    H247503   3.534   4.986   8.590 -1.3247  0.8931  1.2465
 7770TIP3   OH247504   4.785   7.243   9.314 -0.5022  0.3214 -0.0085
 7770TIP3    H147505   4.695   7.244   9.281  0.2351 -1.1785 -2.2903
 7770TIP3    H247506   4.782   7.181   9.387 -1.2895  0.1119 -0.2054
 7771TIP3   OH247507   3.628   6.365   6.879  0.0407 -0.4037 -0.5640
 7771TIP3    H147508   3.539   6.386   6.853 -0.0675  0.6575  0.5741
 7771TIP3    H247509   3.682   6.392   6.805 -0.4885 -0.1898 -0.8767
 7772TIP3   OH247510   5.498   3.524   8.405 -0.5134  0.0663  0.0724
 7772TIP3    H147511   5.471   3.511   8.496  0.5029 -1.0833  0.2472
 7772TIP3    H247512   5.584   3.566   8.411  0.7055 -2.1937 -0.2210
 7773TIP3   OH247513   5.207   0.939   0.469 -0.4454 -0.2876 -0.1074
 7773TIP3    H147514   5.129   0.988   0.443  0.7302  1.4605 -0.5089
 7773TIP3    H247515   5.233   0.892   0.389 -0.8463 -0.5820 -0.0726
 7774TIP3   OH247516   1.532   6.731   1.677 -0.0423  0.0896 -0.4212
 7774TIP3    H147517   1.558   6.644   1.708  2.4414  0.6341 -0.7570
 7774TIP3    H247518   1.524   6.783   1.757  1.8834  0.3553 -0.3476
 7775TIP3   OH247519   6.098   0.130   7.811  0.2503  0.3984 -0.2355
 7775TIP3    H147520   6.015   0.110   7.768  0.1795  0.3769 -0.0892
 7775TIP3    H247521   6.165   0.095   7.751  0.1592  0.5090 -0.4036
 7776TIP3   OH247522   5.727   4.845   8.022  0.1478  0.3042 -0.0166
 7776TIP3    H147523   5.780   4.807   8.092 -3.6894 -1.5495  2.1703
 7776TIP3    H247524   5.728   4.780   7.953 -0.6958 -0.6103  0.8022
 7777TIP3   OH247525   6.035   1.519   8.355  0.2980  0.0610  0.0541
 7777TIP3    H147526   6.064   1.590   8.298  0.8957 -0.7492 -0.6743
 7777TIP3    H247527   5.940   1.514   8.341  0.5326 -0.6666 -1.5400
 7778TIP3   OH247528   5.929   6.649   2.168  0.0591 -0.1675 -0.3890
 7778TIP3    H147529   5.836   6.640   2.145 -0.7037  1.5182  1.6972
 7778TIP3    H247530   5.937   6.740   2.197  2.2650 -0.4273 -0.0715
 7779TIP3   OH247531   4.307   6.359   0.979  0.2567  0.0510 -0.5844
 7779TIP3    H147532   4.253   6.406   0.915  1.8222  1.3011 -1.0663
 7779TIP3    H247533   4.346   6.287   0.929  1.4359  0.9950 -1.0915
 7780TIP3   OH247534   7.167   3.044   3.181 -0.2034 -0.1545  0.1273
 7780TIP3    H147535   7.083   3.090   3.180  1.0484  2.4123  1.9213
 7780TIP3    H247536   7.213   3.077   3.104  0.0086  0.1950  0.4031
 7781TIP3   OH247537   4.971   1.921   2.668  0.6721  0.2861  0.3320
 7781TIP3    H147538   5.014   1.991   2.718  0.6800  1.4367 -1.2186
 7781TIP3    H247539   4.991   1.941   2.577 -1.1395 -0.5107 -0.2866
 7782TIP3   OH247540   2.433   4.653   9.713 -0.2304 -0.1597  0.1761
 7782TIP3    H147541   2.420   4.636   9.619 -0.2766 -0.1528  0.1814
 7782TIP3    H247542   2.372   4.723   9.734  2.2019  2.3905 -0.5824
 7783TIP3   OH247543   1.311   5.268   6.481  0.4703 -0.5735  0.0287
 7783TIP3    H147544   1.346   5.339   6.427  0.1792  0.3003  0.9620
 7783TIP3    H247545   1.241   5.309   6.532  0.9010 -1.3184  1.2537
 7784TIP3   OH247546   0.173   2.782   8.326  0.3958  0.0244  0.0446
 7784TIP3    H147547   0.187   2.726   8.250  1.2839  3.2564 -2.4123
 7784TIP3    H247548   0.086   2.821   8.312 -0.6785 -1.3463  2.2493
 7785TIP3   OH247549   4.057   4.677   8.613 -0.0554 -0.5208 -0.2857
 7785TIP3    H147550   4.046   4.712   8.524 -0.7373  0.7506  0.2681
 7785TIP3    H247551   4.149   4.652   8.617  0.1288 -0.0704 -1.1765
 7786TIP3   OH247552   4.520   6.832   8.341 -0.5668 -0.3051  0.1212
 7786TIP3    H147553   4.429   6.847   8.317 -0.7863  0.7324  1.5349
 7786TIP3    H247554   4.559   6.919   8.344 -0.4724 -0.3606  3.1177
 7787TIP3   OH247555   7.026   4.783   8.657  0.2497 -0.0108 -0.6667
 7787TIP3    H147556   7.121   4.773   8.653  0.5185  1.5583  0.7320
 7787TIP3    H247557   7.009   4.865   8.610  0.0112  1.4454  1.7952
 7788TIP3   OH247558   0.016   4.165   8.937 -0.6756 -0.3806  0.0935
 7788TIP3    H147559  -0.049   4.109   8.894 -1.3448  0.4282  0.0241
 7788TIP3    H247560  -0.028   4.249   8.947  0.5881  0.3998 -0.5706
 7789TIP3   OH247561   5.568   2.021   7.811 -0.5233 -0.0584 -0.5891
 7789TIP3    H147562   5.545   1.928   7.812 -0.5203 -0.0682 -1.1593
 7789TIP3    H247563   5.607   2.037   7.898 -1.1274 -0.4283 -0.2414
 7790TIP3   OH247564   6.369   1.037   8.130 -0.4915  0.0202 -0.1315
 7790TIP3    H147565   6.423   1.026   8.208 -0.4192 -1.2280 -0.3353
 7790TIP3    H247566   6.282   1.058   8.164 -0.2325  0.5004  0.2459
 7791TIP3   OH247567   2.600   3.183   8.688  0.2669 -0.4627 -0.4268
 7791TIP3    H147568   2.682   3.175   8.639  3.1559  0.3117  3.7129
 7791TIP3    H247569   2.566   3.269   8.664  1.3257 -0.2781 -1.3504
 7792TIP3   OH247570   2.675   2.189   7.740  0.4008  0.0448  0.0452
 7792TIP3    H147571   2.658   2.202   7.646  0.9445 -0.0228 -0.0632
 7792TIP3    H247572   2.612   2.247   7.784 -1.6492 -1.7676 -0.2928
 7793TIP3   OH247573   2.643   4.732   2.608  0.1852 -0.2886  0.1569
 7793TIP3    H147574   2.634   4.767   2.696  0.8379  0.3495 -0.0176
 7793TIP3    H247575   2.558   4.692   2.589  0.4102 -1.4722  1.5019
 7794TIP3   OH247576   2.946   1.350   8.798  0.6150  1.2982  0.1069
 7794TIP3    H147577   2.995   1.344   8.879  0.1902  0.1667  0.2974
 7794TIP3    H247578   2.869   1.295   8.812  0.0376  1.8694 -0.7124
 7795TIP3   OH247579   5.231   0.812   7.738 -0.3256 -0.2357  0.2633
 7795TIP3    H147580   5.276   0.849   7.814  0.3986  2.1788 -1.2158
 7795TIP3    H247581   5.180   0.885   7.703 -0.7911 -1.3274 -1.4410
 7796TIP3   OH247582   2.623   2.678   8.885 -0.1730 -0.0713  0.4100
 7796TIP3    H147583   2.598   2.768   8.864  1.2373  0.4254  0.7155
 7796TIP3    H247584   2.562   2.650   8.952 -1.1233  0.3724 -0.2549
 7797TIP3   OH247585   7.212   5.118   7.142 -0.2396 -0.2240 -0.0115
 7797TIP3    H147586   7.258   5.038   7.168  0.4156  0.8148  2.2134
 7797TIP3    H247587   7.225   5.122   7.047  1.3007 -1.7697  0.0711
 7798TIP3   OH247588   3.081   5.181   0.210 -0.2514 -0.2326 -0.8258
 7798TIP3    H147589   3.158   5.199   0.157 -0.3467 -1.0785 -1.2657
 7798TIP3    H247590   3.036   5.265   0.216  1.0242  0.4228 -0.0181
 7799TIP3   OH247591   6.968   1.694   2.232 -0.6009  0.1863 -0.1684
 7799TIP3    H147592   6.945   1.602   2.224 -3.3401  0.6735  0.9252
 7799TIP3    H247593   7.047   1.695   2.287  0.1924 -1.5152 -1.2064
 7800TIP3   OH247594   6.285   2.634   7.722 -0.0116  0.0439  0.3273
 7800TIP3    H147595   6.277   2.541   7.701  1.1302  0.2863 -1.3802
 7800TIP3    H247596   6.332   2.636   7.805  0.1272 -0.9025  0.2828
 7801TIP3   OH247597   3.084   4.281   0.941  0.3206 -0.0160 -0.0087
 7801TIP3    H147598   3.063   4.373   0.921  0.3543 -0.2259 -1.0442
 7801TIP3    H247599   3.077   4.276   1.036 -1.4548  0.6324 -0.0658
 7802TIP3   OH247600   3.710   3.339   1.704  0.2200  0.0244  0.4759
 7802TIP3    H147601   3.671   3.253   1.687 -0.7892  0.5936 -0.2273
 7802TIP3    H247602   3.677   3.363   1.791 -0.7078  0.3219  0.0572
 7803TIP3   OH247603   1.344   3.204   0.808 -0.1832  0.3829 -0.1844
 7803TIP3    H147604   1.405   3.134   0.831 -0.7932 -0.7168 -1.7683
 7803TIP3    H247605   1.296   3.170   0.733 -0.9887  2.2376 -0.5561
 7804TIP3   OH247606   5.548   6.186   7.832 -0.9602  0.2588  0.5025
 7804TIP3    H147607   5.464   6.142   7.845 -0.9256 -0.1787 -0.6898
 7804TIP3    H247608   5.558   6.193   7.737  1.2248 -1.4619  0.5019
 7805TIP3   OH247609   3.989   4.609   1.994 -0.3159 -0.1691  0.4445
 7805TIP3    H147610   4.009   4.641   2.082  0.0163  0.5246  0.1299
 7805TIP3    H247611   4.063   4.553   1.971 -0.4893 -0.4955  0.6685
 7806TIP3   OH247612   5.076   2.147   1.982  0.2280 -0.3380  0.0933
 7806TIP3    H147613   5.020   2.087   1.932  1.4247 -1.4333  0.0085
 7806TIP3    H247614   5.150   2.165   1.924  0.0527  0.9788  0.2537
 7807TIP3   OH247615   1.126   2.354   0.542 -0.6802  0.2583  0.0693
 7807TIP3    H147616   1.038   2.338   0.577 -0.8816 -1.2416 -1.0087
 7807TIP3    H247617   1.145   2.277   0.488  0.9813  0.9186 -0.3636
 7808TIP3   OH247618   1.919   6.562   9.289  0.0867 -0.4306  0.8028
 7808TIP3    H147619   1.829   6.534   9.303  0.2741 -0.9122  1.0829
 7808TIP3    H247620   1.960   6.556   9.375  0.0571  1.0550  0.9498
 7809TIP3   OH247621   5.527   2.209   7.409 -0.4717  0.4056 -0.4522
 7809TIP3    H147622   5.440   2.174   7.428 -0.1262  0.5486  1.6232
 7809TIP3    H247623   5.553   2.165   7.327 -2.0655 -0.3830 -0.5803
 7810TIP3   OH247624   1.554   2.615   0.903  0.6942 -0.5776 -0.8480
 7810TIP3    H147625   1.624   2.560   0.868  0.0747 -1.0293 -1.4069
 7810TIP3    H247626   1.500   2.637   0.826 -0.3807 -1.1351 -0.2690
 7811TIP3   OH247627   4.994   4.212   2.726  0.2526  0.2886 -0.1641
 7811TIP3    H147628   4.904   4.217   2.758  0.1845 -0.1109 -0.2882
 7811TIP3    H247629   5.032   4.136   2.770 -0.2515 -1.0796 -1.9870
 7812TIP3   OH247630   0.038   1.133   7.671 -0.3907  0.4323 -0.2056
 7812TIP3    H147631   0.072   1.200   7.612 -0.0177 -0.5674 -1.1611
 7812TIP3    H247632   0.032   1.054   7.617 -0.5492 -0.3807  0.9579
 7813TIP3   OH247633   4.669   2.754   9.360 -0.2874 -0.2123  0.3188
 7813TIP3    H147634   4.675   2.819   9.430  0.5982 -1.1095  1.1267
 7813TIP3    H247635   4.687   2.802   9.280  0.0511  0.5863  0.8664
 7814TIP3   OH247636   1.164   4.261   0.886  0.2388 -0.4524  0.1835
 7814TIP3    H147637   1.077   4.252   0.926 -0.4020 -1.6708 -1.3896
 7814TIP3    H247638   1.196   4.172   0.875  2.1849 -0.0042  1.6601
 7815TIP3   OH247639   0.364   4.528   2.969  0.4059  0.2500 -0.5283
 7815TIP3    H147640   0.299   4.528   3.039 -0.6751 -0.4066 -1.4870
 7815TIP3    H247641   0.415   4.608   2.982  0.0499  0.2717  0.8281
 7816TIP3   OH247642   6.531   2.751   0.340  0.1338 -0.2938  0.0667
 7816TIP3    H147643   6.533   2.816   0.270 -0.8899 -0.6974 -0.3492
 7816TIP3    H247644   6.490   2.795   0.414 -2.5032 -1.0330 -0.8570
 7817TIP3   OH247645   1.640   1.962   9.361  0.1599 -0.3979 -0.5183
 7817TIP3    H147646   1.656   1.978   9.268  0.1279 -0.2260 -0.4948
 7817TIP3    H247647   1.638   2.049   9.400 -1.5904 -0.3424 -0.6353
 7818TIP3   OH247648   0.979   7.169   8.436 -0.8678  0.9624  0.7061
 7818TIP3    H147649   0.893   7.156   8.396 -0.7661  1.1205  0.4340
 7818TIP3    H247650   1.039   7.177   8.362 -0.7429  1.7023  0.8715
 7819TIP3   OH247651   6.109   6.009   8.449  0.0521  0.0835  0.2470
 7819TIP3    H147652   6.153   6.084   8.488 -0.1136  0.4535 -0.2647
 7819TIP3    H247653   6.113   6.025   8.355  1.2496 -1.2383  0.0456
 7820TIP3   OH247654   1.393   5.641   7.970 -0.1299 -0.3072 -0.0374
 7820TIP3    H147655   1.458   5.623   8.038 -0.8161 -0.2849  0.6525
 7820TIP3    H247656   1.435   5.705   7.913  0.3150  0.0057  0.6178
 7821TIP3   OH247657   5.985   6.929   2.255 -0.1327 -0.0226  0.4603
 7821TIP3    H147658   6.049   6.985   2.299  0.9454  0.1907 -1.2909
 7821TIP3    H247659   5.919   6.990   2.223  0.0333  0.0320  0.2193
 7822TIP3   OH247660   6.078   5.740   9.187 -0.4302 -0.1205 -0.1353
 7822TIP3    H147661   6.122   5.803   9.130 -0.3850  1.0640  1.1470
 7822TIP3    H247662   6.079   5.658   9.138 -2.1458  1.2676 -2.6740
 7823TIP3   OH247663   2.433   4.678   7.273 -0.4302  0.1051 -0.1431
 7823TIP3    H147664   2.338   4.691   7.273 -0.4286  0.1513 -0.6311
 7823TIP3    H247665   2.460   4.701   7.184  0.4199  2.8895  0.7123
 7824TIP3   OH247666   0.789   5.394   8.854  0.6111 -0.1405  0.7404
 7824TIP3    H147667   0.785   5.312   8.904  1.2944  0.0222  1.0646
 7824TIP3    H247668   0.818   5.459   8.917  1.7938  0.0105  0.0702
 7825TIP3   OH247669   4.606   4.641   8.849  0.8021 -0.2007 -0.1911
 7825TIP3    H147670   4.675   4.706   8.839  1.3620 -0.9907 -1.7145
 7825TIP3    H247671   4.594   4.604   8.762  0.2043 -1.8313  0.5296
 7826TIP3   OH247672   7.022   2.744   1.447  0.2239  0.0263 -0.0498
 7826TIP3    H147673   6.987   2.829   1.420 -0.2306 -0.2007 -0.1684
 7826TIP3    H247674   7.117   2.757   1.447  0.1373  1.4150  2.6655
 7827TIP3   OH247675   4.352   3.574   9.224  0.3874  0.4922 -0.1559
 7827TIP3    H147676   4.443   3.547   9.220  0.3408  0.3734 -0.4040
 7827TIP3    H247677   4.313   3.519   9.292  0.3251  0.0271 -0.5615
 7828TIP3   OH247678   0.089   1.049   2.414  0.5505 -0.6369  0.0823
 7828TIP3    H147679  -0.006   1.046   2.398  0.4461  2.5854 -0.5732
 7828TIP3    H247680   0.122   0.967   2.375 -1.5880 -0.2681 -2.8939
 7829TIP3   OH247681   3.711   2.178   1.977 -0.5858  0.6098  0.5094
 7829TIP3    H147682   3.753   2.194   2.062 -0.9953  1.3073  0.5920
 7829TIP3    H247683   3.745   2.248   1.921 -0.5306  0.3129  0.1699
 7830TIP3   OH247684   0.604   1.724   0.267  0.4590 -0.2050  0.0685
 7830TIP3    H147685   0.537   1.679   0.216  0.9981 -1.0636  0.1016
 7830TIP3    H247686   0.590   1.694   0.357 -0.4008  1.1939  0.4474
 7831TIP3   OH247687   3.002   5.811   7.493  0.2011 -0.4357  0.2859
 7831TIP3    H147688   2.919   5.763   7.492  0.4614 -0.8904 -1.0871
 7831TIP3    H247689   2.981   5.896   7.456 -0.3391  0.7317  3.0571
 7832TIP3   OH247690   3.683   1.450   9.842  0.1600 -0.3181 -0.0327
 7832TIP3    H147691   3.757   1.391   9.832  0.8315  0.5814 -0.5394
 7832TIP3    H247692   3.643   1.425   9.925 -0.1226 -2.0552 -0.6515
 7833TIP3   OH247693   4.978   4.368   9.488 -0.6500  0.3748 -0.2915
 7833TIP3    H147694   4.893   4.410   9.504 -1.5780 -1.3054 -0.5416
 7833TIP3    H247695   5.018   4.364   9.575 -0.8999  1.0258 -0.1367
 7834TIP3   OH247696   2.368   0.044   7.312 -0.0780 -0.1278 -0.3685
 7834TIP3    H147697   2.309   0.104   7.265  0.5307  0.6139 -0.2086
 7834TIP3    H247698   2.425   0.102   7.364 -0.3953 -0.9006  0.8912
 7835TIP3   OH247699   4.109   2.012   8.253 -0.3584 -0.4213  0.3603
 7835TIP3    H147700   4.045   2.021   8.323 -0.4981  1.4841  0.0438
 7835TIP3    H247701   4.168   2.087   8.264  1.9029 -2.1365  0.6808
 7836TIP3   OH247702   5.123   1.933   1.625  0.1781  0.4506  0.2247
 7836TIP3    H147703   5.117   1.839   1.644  1.4185  0.4786  0.8368
 7836TIP3    H247704   5.216   1.948   1.607 -0.1493  1.4002 -0.7922
 7837TIP3   OH247705   5.911   4.197   8.536  0.5484 -0.1322  0.1275
 7837TIP3    H147706   5.925   4.126   8.599 -0.5993 -0.4804  0.0031
 7837TIP3    H247707   5.900   4.152   8.452 -0.6063  0.1443  0.1147
 7838TIP3   OH247708   3.400   4.462   0.788  0.3762  0.3713  0.2631
 7838TIP3    H147709   3.369   4.397   0.726  0.7231  1.3102 -0.9347
 7838TIP3    H247710   3.323   4.515   0.808  0.6630  1.2623 -0.8997
 7839TIP3   OH247711   6.809   5.311   1.042  0.9478  0.2839 -0.5913
 7839TIP3    H147712   6.826   5.249   0.971  2.0541  0.4665 -0.5064
 7839TIP3    H247713   6.854   5.274   1.118 -1.8698 -0.9374  0.5978
 7840TIP3   OH247714   5.779   0.735   0.491  0.4015  0.4353  0.1676
 7840TIP3    H147715   5.687   0.709   0.493  0.3757  0.4523 -0.5698
 7840TIP3    H247716   5.805   0.738   0.583 -0.5413  1.1623  0.4250
 7841TIP3   OH247717   2.974   4.959   9.308 -0.0333  0.2147 -0.2431
 7841TIP3    H147718   2.932   4.925   9.229 -0.0470 -0.8179  0.1908
 7841TIP3    H247719   2.924   5.038   9.329  1.0192  1.4866 -2.1935
 7842TIP3   OH247720   5.138   2.543   1.300 -0.8665 -0.9044  0.2228
 7842TIP3    H147721   5.190   2.513   1.226  0.7721  0.3724  0.8022
 7842TIP3    H247722   5.053   2.567   1.261 -0.1941 -0.6551 -1.1556
 7843TIP3   OH247723   5.648   1.261   8.608  0.1799  0.0428 -0.0974
 7843TIP3    H147724   5.618   1.258   8.699 -0.5242 -1.8079 -0.3415
 7843TIP3    H247725   5.588   1.322   8.565 -0.6358 -0.4293  0.3290
 7844TIP3   OH247726   2.774   4.310   1.391  0.1313 -0.0546  0.6275
 7844TIP3    H147727   2.692   4.355   1.407  0.3434  0.0320  1.5174
 7844TIP3    H247728   2.750   4.217   1.389 -0.0426 -0.0075  0.4935
 7845TIP3   OH247729   1.675   3.962   0.260  0.0070 -0.0738 -0.0104
 7845TIP3    H147730   1.650   3.957   0.168  2.4421  1.0433 -0.8247
 7845TIP3    H247731   1.690   3.871   0.286  1.7813 -0.2618 -1.5355
 7846TIP3   OH247732   7.039   1.220   7.372 -0.5110 -0.1494 -0.2084
 7846TIP3    H147733   6.990   1.148   7.332  1.8552 -0.6925 -2.4749
 7846TIP3    H247734   7.112   1.235   7.311  0.8631  2.0476  1.8079
 7847TIP3   OH247735   6.223   3.312   7.658 -0.4698 -0.0496 -0.2389
 7847TIP3    H147736   6.220   3.406   7.676  0.2277 -0.0365 -0.1790
 7847TIP3    H247737   6.192   3.304   7.568 -0.9528  0.1948 -0.0956
 7848TIP3   OH247738   2.899   0.935   9.770 -0.3283 -0.1885  0.9810
 7848TIP3    H147739   2.869   0.862   9.824 -1.2025 -1.5626 -1.2181
 7848TIP3    H247740   2.859   1.013   9.810 -1.1188 -1.1596  2.1605
 7849TIP3   OH247741   4.979   4.923   9.798 -0.0468 -0.2173  0.3743
 7849TIP3    H147742   5.065   4.911   9.839  0.6741 -1.1319 -1.3102
 7849TIP3    H247743   4.998   4.955   9.710 -1.2715 -2.4638 -0.8071
 7850TIP3   OH247744   6.843   4.389   7.684  0.5754 -0.4609  0.7486
 7850TIP3    H147745   6.898   4.461   7.655  0.7221 -1.1047 -0.6149
 7850TIP3    H247746   6.767   4.432   7.725  0.9833  0.4489  0.5675
 7851TIP3   OH247747   1.289   1.482   0.753  0.7417 -0.5491 -0.4670
 7851TIP3    H147748   1.201   1.448   0.772  0.5899  0.2432  0.3310
 7851TIP3    H247749   1.347   1.407   0.765  0.2717 -0.8540 -0.0375
 7852TIP3   OH247750   0.454   1.793   9.157 -0.2805 -0.1892 -0.3753
 7852TIP3    H147751   0.537   1.840   9.165  0.0679 -0.9403  0.7019
 7852TIP3    H247752   0.391   1.859   9.129  0.9894  0.0672 -2.9510
 7853TIP3   OH247753   0.949   0.895   7.158  0.0505  0.2910  0.0966
 7853TIP3    H147754   0.943   0.990   7.152 -2.1275  0.1242 -1.8221
 7853TIP3    H247755   0.859   0.865   7.146  0.4832 -2.0028  1.8952
 7854TIP3   OH247756   0.708   5.783   0.795 -0.4671 -0.1221  0.3101
 7854TIP3    H147757   0.762   5.859   0.775  0.6632 -1.3878 -1.8083
 7854TIP3    H247758   0.624   5.820   0.823 -0.3188  1.9130 -1.6613
 7855TIP3   OH247759   5.465   3.075   9.642 -0.2414 -0.3130  0.3819
 7855TIP3    H147760   5.488   2.986   9.669 -1.7119 -0.2523  2.0109
 7855TIP3    H247761   5.470   3.073   9.546  0.0121 -2.0714  0.3974
 7856TIP3   OH247762   2.185   1.049   2.005  0.6731  0.0856  0.0191
 7856TIP3    H147763   2.131   1.122   1.975  2.0598  0.8986 -0.5940
 7856TIP3    H247764   2.123   0.976   2.016 -0.5564  1.0205 -0.4697
 7857TIP3   OH247765   0.711   5.572   2.381 -0.5493 -0.5908 -0.6216
 7857TIP3    H147766   0.686   5.493   2.429  1.1359 -0.7162  0.1201
 7857TIP3    H247767   0.765   5.539   2.309 -0.8520 -0.1868 -1.0377
 7858TIP3   OH247768   2.303   7.274   0.966 -0.4232  0.1927  0.0051
 7858TIP3    H147769   2.282   7.363   0.993 -0.1438  0.3686 -0.3580
 7858TIP3    H247770   2.218   7.235   0.945 -0.6528  0.0521  1.1040
 7859TIP3   OH247771   3.523   5.824   0.094 -0.1451  0.2138  0.2327
 7859TIP3    H147772   3.586   5.752   0.089 -0.5465 -0.0402 -1.8728
 7859TIP3    H247773   3.577   5.903   0.086 -0.0361  0.0030 -1.4119
 7860TIP3   OH247774   4.454   5.335   6.461  0.1099 -0.0642 -0.3058
 7860TIP3    H147775   4.480   5.404   6.400  0.5736 -0.2567 -0.3259
 7860TIP3    H247776   4.376   5.370   6.504  0.3845  0.5129 -0.2601
 7861TIP3   OH247777   0.655   3.041   8.765 -0.1269 -0.1066 -0.0911
 7861TIP3    H147778   0.685   3.131   8.777 -0.4335  0.0910 -0.7717
 7861TIP3    H247779   0.608   3.020   8.846  0.3961  0.1584  0.2880
 7862TIP3   OH247780   3.453   0.347   7.196 -0.3030 -0.3149  0.1586
 7862TIP3    H147781   3.414   0.297   7.124  1.8251 -1.2117 -0.4511
 7862TIP3    H247782   3.486   0.279   7.256 -0.2701  0.4142  0.9836
 7863TIP3   OH247783   0.003   5.344   8.183 -0.5124  0.0468 -0.2123
 7863TIP3    H147784  -0.037   5.408   8.242 -0.7639 -0.5025  0.2153
 7863TIP3    H247785   0.083   5.388   8.152 -0.5402  0.4666  0.2877
 7864TIP3   OH247786   3.318   7.078   8.196 -0.2365  0.1413 -0.0270
 7864TIP3    H147787   3.371   7.113   8.268  0.7106  1.5179 -1.3321
 7864TIP3    H247788   3.339   6.985   8.195  0.6110  0.3078  0.7576
 7865TIP3   OH247789   4.300   5.125   6.753  0.0292 -0.1152 -0.6635
 7865TIP3    H147790   4.341   5.090   6.675  2.6335 -0.5994  0.8129
 7865TIP3    H247791   4.254   5.051   6.793  1.4536 -0.7015 -0.0691
 7866TIP3   OH247792   6.965   5.226   1.267 -0.1706 -0.3567  0.3832
 7866TIP3    H147793   6.976   5.188   1.355  1.5709  0.0791  0.3943
 7866TIP3    H247794   6.958   5.150   1.209  1.0186 -0.6935  0.6592
 7867TIP3   OH247795   0.557   5.494   7.706 -0.3669 -0.4470  0.4669
 7867TIP3    H147796   0.486   5.510   7.644  1.3484 -1.6302 -1.9641
 7867TIP3    H247797   0.609   5.575   7.704 -1.6990  0.5393  2.4789
 7868TIP3   OH247798   3.588   1.273   2.379  0.0020 -0.0294  0.1667
 7868TIP3    H147799   3.539   1.246   2.302  0.2060  1.2555 -0.4267
 7868TIP3    H247800   3.522   1.309   2.438  0.1240  1.0459 -0.3396
 7869TIP3   OH247801   4.016   4.433   8.876 -0.1360  0.9189  0.2174
 7869TIP3    H147802   3.944   4.397   8.825  0.7551 -0.2412 -0.2652
 7869TIP3    H247803   3.999   4.403   8.965  0.3994 -0.4256 -0.1156
 7870TIP3   OH247804   0.443   4.865   0.452  0.0371 -0.5588 -0.2353
 7870TIP3    H147805   0.417   4.929   0.385  0.3559 -0.9501 -0.7474
 7870TIP3    H247806   0.504   4.913   0.508 -0.7956 -0.0113  0.2218
 7871TIP3   OH247807   6.178   2.355   1.454 -0.0933 -0.1344  0.3439
 7871TIP3    H147808   6.210   2.444   1.470 -2.0435  0.6915 -0.0125
 7871TIP3    H247809   6.246   2.314   1.402  0.3822  1.5122 -0.3921
 7872TIP3   OH247810   0.952   3.943   9.228 -0.1427  0.9529  0.1069
 7872TIP3    H147811   1.034   3.956   9.180  0.3699  0.2014  0.7609
 7872TIP3    H247812   0.888   3.995   9.180  0.1912 -0.3155 -1.8381
 7873TIP3   OH247813   4.183   5.315   1.282 -0.6269  0.1100 -0.5640
 7873TIP3    H147814   4.229   5.356   1.355 -0.6229  0.2294 -0.6323
 7873TIP3    H247815   4.152   5.389   1.229 -1.7489  0.0670 -0.0003
 7874TIP3   OH247816   7.055   6.487   6.797 -0.2093 -0.0335  0.2717
 7874TIP3    H147817   6.960   6.486   6.796 -0.3241 -1.5647  3.2218
 7874TIP3    H247818   7.080   6.406   6.841  2.4143  1.0867  1.0590
 7875TIP3   OH247819   1.339   5.314   8.187  0.4104  0.3460  0.6363
 7875TIP3    H147820   1.320   5.242   8.126 -0.2577 -0.1304  1.3783
 7875TIP3    H247821   1.274   5.381   8.166  0.2328  0.2151  0.7634
 7876TIP3   OH247822   3.236   4.981   9.662  0.3454 -0.7238 -0.3698
 7876TIP3    H147823   3.279   5.065   9.677  1.3259 -1.0093 -1.3960
 7876TIP3    H247824   3.144   5.002   9.651  0.4557  0.1083  0.2490
 7877TIP3   OH247825   6.852   2.590   1.280 -0.0061 -0.5801  0.3154
 7877TIP3    H147826   6.800   2.669   1.292 -1.3697 -1.4275  0.2419
 7877TIP3    H247827   6.927   2.601   1.338 -0.8929  0.1594  1.3645
 7878TIP3   OH247828   2.748   4.674   2.122 -0.7783 -0.4900 -0.6367
 7878TIP3    H147829   2.745   4.766   2.149 -0.4326 -0.3892 -0.9384
 7878TIP3    H247830   2.658   4.654   2.097 -1.3514 -0.8748  1.4851
 7879TIP3   OH247831   3.391   0.697   1.769 -0.0751  0.0018  0.1594
 7879TIP3    H147832   3.469   0.752   1.761 -1.0930  1.4055 -0.5650
 7879TIP3    H247833   3.366   0.706   1.862  1.2003 -1.3203  0.6588
 7880TIP3   OH247834   5.677   6.286   0.550  0.7343 -0.0261 -0.8182
 7880TIP3    H147835   5.645   6.199   0.522  0.9979 -0.0099 -1.1681
 7880TIP3    H247836   5.698   6.331   0.468  3.0655 -0.5586 -0.5669
 7881TIP3   OH247837   6.069   5.142   1.548  0.2263 -0.3737 -0.3910
 7881TIP3    H147838   6.074   5.077   1.618  1.0258 -0.1506 -0.2330
 7881TIP3    H247839   5.980   5.134   1.515  0.2265 -1.3639 -0.1954
 7882TIP3   OH247840   6.453   7.251   9.848  0.7044  0.3103 -0.4019
 7882TIP3    H147841   6.440   7.164   9.887  1.4884 -0.0300 -0.8944
 7882TIP3    H247842   6.477   7.234   9.757 -0.3443  1.0852 -0.8532
 7883TIP3   OH247843   0.941   3.440   7.877 -0.7466  0.4878  0.4641
 7883TIP3    H147844   0.940   3.533   7.854 -1.9432  0.4565  0.3201
 7883TIP3    H247845   1.034   3.419   7.888 -0.3536  1.3586 -0.8660
 7884TIP3   OH247846   4.301   2.072   1.102  0.1523 -0.1339  0.0136
 7884TIP3    H147847   4.290   2.028   1.018 -0.3397 -0.8522  0.4459
 7884TIP3    H247848   4.342   2.007   1.158 -0.2589  0.0697  0.5574
 7885TIP3   OH247849   2.989   2.973   1.607 -0.0259  0.3267  0.2233
 7885TIP3    H147850   2.960   3.060   1.579 -0.3308  0.0881 -0.2181
 7885TIP3    H247851   3.057   2.949   1.544 -0.4911 -0.0782 -0.1342
 7886TIP3   OH247852   6.636   1.336   7.982  0.7099  0.1585  0.1076
 7886TIP3    H147853   6.587   1.277   7.925  1.1897  1.2171 -1.4550
 7886TIP3    H247854   6.570   1.372   8.042  0.0001 -0.1455 -0.4805
 7887TIP3   OH247855   3.793   5.882   1.319 -0.3068  0.6553  0.3792
 7887TIP3    H147856   3.836   5.801   1.344 -2.6755 -0.7048  0.3046
 7887TIP3    H247857   3.701   5.858   1.307 -0.9313  3.1793 -0.4836
 7888TIP3   OH247858   2.252   1.443   6.996  0.4431 -0.0756 -0.0456
 7888TIP3    H147859   2.320   1.427   7.062 -1.0783 -1.3620  1.3020
 7888TIP3    H247860   2.188   1.499   7.040 -1.2233 -1.9791  0.1084
 7889TIP3   OH247861   1.250   7.090   9.665 -0.5022 -0.9358 -0.8029
 7889TIP3    H147862   1.314   7.154   9.698 -0.1180 -1.1388 -1.1435
 7889TIP3    H247863   1.236   7.114   9.574  0.1848 -1.7516 -1.1417
 7890TIP3   OH247864   2.076   0.786   2.724  0.7480  0.0526 -1.0472
 7890TIP3    H147865   2.126   0.719   2.677 -0.7075 -0.7528 -1.5163
 7890TIP3    H247866   2.060   0.854   2.659 -1.9091 -1.3971 -2.0967
 7891TIP3   OH247867   1.399   3.534   9.866 -0.4406 -0.0018  0.4504
 7891TIP3    H147868   1.377   3.441   9.857  0.6164 -0.1440 -1.1164
 7891TIP3    H247869   1.473   3.547   9.806 -0.3361  1.7752  0.9096
 7892TIP3   OH247870   5.397   6.907   7.780 -0.4870  0.3049 -0.3910
 7892TIP3    H147871   5.387   6.982   7.838  0.2848  0.0013  0.1405
 7892TIP3    H247872   5.479   6.867   7.806 -1.3399 -1.2747 -0.0512
 7893TIP3   OH247873   6.499   4.272   2.523 -0.5308 -0.8468  0.0890
 7893TIP3    H147874   6.480   4.188   2.566 -3.8106 -0.5082 -0.4790
 7893TIP3    H247875   6.460   4.338   2.580  2.6905  0.5228  0.9461
 7894TIP3   OH247876   0.934   6.602   9.856  0.3200  0.6766 -0.1355
 7894TIP3    H147877   0.850   6.575   9.892  1.9568 -1.0856  2.6664
 7894TIP3    H247878   0.949   6.543   9.782 -0.2975  0.1468  0.1556
 7895TIP3   OH247879   5.937   5.532   0.523  0.2405 -0.6675  0.4682
 7895TIP3    H147880   6.025   5.502   0.502  0.5116  0.7144 -0.4767
 7895TIP3    H247881   5.883   5.505   0.448  0.3888  0.6977 -0.1545
 7896TIP3   OH247882   2.743   3.185   8.294 -0.3167  0.5415  0.6564
 7896TIP3    H147883   2.753   3.159   8.385 -0.2936  4.7269  2.0321
 7896TIP3    H247884   2.781   3.112   8.244  0.2431 -1.6161  3.9411
 7897TIP3   OH247885   5.158   3.620   8.921 -0.3273 -0.1641 -0.5496
 7897TIP3    H147886   5.243   3.586   8.948 -0.5621 -0.0044  0.4148
 7897TIP3    H247887   5.119   3.548   8.870  0.6365  0.0062 -1.5760
 7898TIP3   OH247888   5.792   2.857   8.067  0.0387  0.1133 -0.0645
 7898TIP3    H147889   5.745   2.901   7.997  0.1935  0.9335  0.3308
 7898TIP3    H247890   5.748   2.773   8.077 -0.5434  0.3578 -0.5419
 7899TIP3   OH247891   4.170   6.886   1.545 -0.0960 -0.3665  0.0425
 7899TIP3    H147892   4.132   6.819   1.603 -1.6797 -0.5933 -1.1971
 7899TIP3    H247893   4.130   6.869   1.460  0.7992  1.1050 -0.7004
 7900TIP3   OH247894   0.088   3.054   2.099  0.0930  0.1008  0.4832
 7900TIP3    H147895   0.040   3.043   2.018 -0.6677  0.7965  0.8231
 7900TIP3    H247896   0.023   3.088   2.161  0.9328  0.7123  1.0534
 7901TIP3   OH247897   3.578   7.183   6.845 -0.1656 -0.3181 -0.4462
 7901TIP3    H147898   3.583   7.239   6.768  0.4481 -0.8980 -0.8441
 7901TIP3    H247899   3.658   7.129   6.841  0.3977  0.3261  1.1354
 7902TIP3   OH247900   6.152   1.803   2.581 -0.0700  0.2730 -0.1777
 7902TIP3    H147901   6.246   1.791   2.593  0.8521  1.3008 -4.5916
 7902TIP3    H247902   6.136   1.893   2.610  0.0274 -0.2342  1.5407
 7903TIP3   OH247903   6.036   1.924   8.712 -0.5519  0.6574 -0.6456
 7903TIP3    H147904   5.980   1.901   8.786 -0.8267  1.5654 -0.5606
 7903TIP3    H247905   5.986   1.989   8.662 -0.0184  0.6902 -1.1575
 7904TIP3   OH247906   1.939   4.223   2.264  0.2433  0.5322 -0.0102
 7904TIP3    H147907   1.939   4.306   2.216  0.1731  0.4795 -0.1033
 7904TIP3    H247908   2.030   4.210   2.291  0.1143  1.0547  0.7293
 7905TIP3   OH247909   2.272   5.367   8.783 -0.1918 -0.0702  0.4072
 7905TIP3    H147910   2.297   5.291   8.730  0.3180 -0.8536  1.7105
 7905TIP3    H247911   2.188   5.396   8.747 -0.8326 -1.8021  0.4099
 7906TIP3   OH247912   1.075   4.195   8.084  0.4013 -0.7167  0.0820
 7906TIP3    H147913   1.123   4.115   8.104 -0.6609 -1.2770  0.4647
 7906TIP3    H247914   1.018   4.209   8.161  1.7306  1.3190  0.7732
 7907TIP3   OH247915   5.487   2.266   6.794  0.3383 -0.0169  0.1068
 7907TIP3    H147916   5.541   2.345   6.786 -0.4475  0.4766 -0.4693
 7907TIP3    H247917   5.548   2.198   6.822  0.8691  0.9900  1.5291
 7908TIP3   OH247918   6.085   4.568   9.417  0.1612  0.1994 -0.3856
 7908TIP3    H147919   6.026   4.498   9.390 -0.3059  0.1106  0.8199
 7908TIP3    H247920   6.142   4.528   9.483 -0.9647  1.2352  1.2973
 7909TIP3   OH247921   6.388   5.047   1.599 -0.2059  0.4009  0.5306
 7909TIP3    H147922   6.312   5.045   1.541  0.1866 -2.1275 -0.0340
 7909TIP3    H247923   6.372   4.977   1.663  0.5866  1.3855  1.8536
 7910TIP3   OH247924   6.941   2.117   7.495  0.2529  0.9089 -0.3705
 7910TIP3    H147925   6.894   2.036   7.515  1.8072 -0.3167 -1.3975
 7910TIP3    H247926   6.966   2.152   7.581  0.2281 -0.1289  0.0749
 7911TIP3   OH247927   4.874   1.159   7.314 -0.7071  0.1254  0.3977
 7911TIP3    H147928   4.934   1.089   7.337  0.5843  0.6429 -1.1500
 7911TIP3    H247929   4.859   1.207   7.395  0.2074 -0.6056  1.0077
 7912TIP3   OH247930   1.653   2.593   0.228 -0.1438 -0.1937 -0.1395
 7912TIP3    H147931   1.578   2.582   0.170  0.9725 -1.5075 -1.4397
 7912TIP3    H247932   1.676   2.686   0.221 -0.4672 -0.1821 -1.2812
 7913TIP3   OH247933   5.349   1.535   8.321  1.1506  0.4040  0.3019
 7913TIP3    H147934   5.291   1.580   8.260  2.3114  1.4634 -0.0656
 7913TIP3    H247935   5.325   1.571   8.407  1.2727  0.8548  0.1503
 7914TIP3   OH247936   5.021   6.257   9.517 -0.4828 -0.0203 -0.2196
 7914TIP3    H147937   5.073   6.235   9.595 -0.4310  1.7648  0.2821
 7914TIP3    H247938   5.086   6.290   9.455 -0.7351  0.0752 -0.4295
 7915TIP3   OH247939   4.851   2.837   7.654 -0.2657  0.0502 -0.0378
 7915TIP3    H147940   4.884   2.749   7.671  0.1227 -0.2233 -1.9918
 7915TIP3    H247941   4.929   2.892   7.650 -0.4168  0.2724  0.0836
 7916TIP3   OH247942   4.792   1.466   2.635  0.4128 -0.0837  0.1906
 7916TIP3    H147943   4.857   1.530   2.664  1.2909 -1.5494  1.5738
 7916TIP3    H247944   4.708   1.509   2.650  0.9741  0.7135  1.1664
 7917TIP3   OH247945   3.041   0.090   9.299  0.0260 -0.0435  0.9432
 7917TIP3    H147946   3.062   0.127   9.384  0.5001 -1.9098  1.6804
 7917TIP3    H247947   3.106   0.021   9.286  0.3065  0.5404 -1.1857
 7918TIP3   OH247948   0.923   4.498   0.528  0.2453  0.5420  0.6115
 7918TIP3    H147949   0.859   4.431   0.503 -0.4243  1.6453 -0.7719
 7918TIP3    H247950   1.006   4.451   0.533 -0.0008 -0.2218 -1.4670
 7919TIP3   OH247951   4.966   0.059   9.893  0.4531 -0.0228 -0.3505
 7919TIP3    H147952   4.943   0.035   9.803  0.3853 -0.8597 -0.1203
 7919TIP3    H247953   5.061   0.045   9.898  0.6835  1.3352 -0.6758
 7920TIP3   OH247954   4.932   3.154   8.271  0.1020  0.4182  0.0908
 7920TIP3    H147955   4.837   3.166   8.280 -0.0850 -0.2577 -0.8255
 7920TIP3    H247956   4.953   3.194   8.187  0.9407  2.1156  1.0606
 7921TIP3   OH247957   0.283   2.126   8.536  0.0570  0.4229  0.3203
 7921TIP3    H147958   0.253   2.094   8.622 -0.9274 -2.4931 -0.9684
 7921TIP3    H247959   0.220   2.194   8.512 -0.4264  0.3483  1.3340
 7922TIP3   OH247960   2.498   0.915   1.687  0.5808  0.2241 -0.7616
 7922TIP3    H147961   2.572   0.866   1.723  0.7369  0.0240 -1.3318
 7922TIP3    H247962   2.475   0.867   1.607 -0.7839 -0.2727 -0.0948
 7923TIP3   OH247963   0.625   3.085   0.860  0.1151 -0.6357 -0.3849
 7923TIP3    H147964   0.696   3.040   0.815  0.0468 -0.8391 -0.2918
 7923TIP3    H247965   0.556   3.093   0.794 -0.0710 -1.1364 -0.2521
 7924TIP3   OH247966   4.367   0.763   7.189 -0.5330 -0.5086 -0.0474
 7924TIP3    H147967   4.291   0.757   7.246 -0.1809 -0.9521  0.3869
 7924TIP3    H247968   4.435   0.712   7.234 -0.7960 -2.4798 -1.7354
 7925TIP3   OH247969   0.527   7.227   1.356  0.3130  0.5279 -0.1166
 7925TIP3    H147970   0.464   7.239   1.427  1.0348 -0.2349  0.6676
 7925TIP3    H247971   0.521   7.134   1.335  0.0882  0.7500 -1.0826
 7926TIP3   OH247972   1.369   6.537   8.654  0.3481  0.1678  0.3170
 7926TIP3    H147973   1.279   6.521   8.683  0.5926 -2.0573 -0.0231
 7926TIP3    H247974   1.424   6.489   8.716  1.3166  1.2993  0.3778
 7927TIP3   OH247975   0.272   5.879   2.616 -0.4762  0.1699 -0.4837
 7927TIP3    H147976   0.180   5.882   2.642 -0.0955  1.6235  0.8046
 7927TIP3    H247977   0.318   5.930   2.683  1.1307  0.4279 -1.7325
 7928TIP3   OH247978   0.552   1.532   9.014 -0.0785  0.0745  0.0478
 7928TIP3    H147979   0.593   1.502   9.095  1.6150  2.0973  0.0288
 7928TIP3    H247980   0.516   1.618   9.036  0.1346  0.5186 -1.2488
 7929TIP3   OH247981   2.237   5.624   2.277 -0.3524 -0.7717 -0.2599
 7929TIP3    H147982   2.159   5.671   2.249  0.6426  1.9089  1.1281
 7929TIP3    H247983   2.293   5.622   2.199 -0.5555  0.1059 -0.4389
 7930TIP3   OH247984   5.976   1.382   0.710 -0.2513 -0.0270 -0.0867
 7930TIP3    H147985   6.058   1.360   0.754 -0.0605 -0.4542 -0.6384
 7930TIP3    H247986   5.975   1.326   0.632 -2.0375 -1.5453  0.9644
 7931TIP3   OH247987   1.311   7.213   7.656  0.3561  0.3892 -0.0128
 7931TIP3    H147988   1.320   7.288   7.598  1.0984  1.5321  1.5191
 7931TIP3    H247989   1.312   7.137   7.598 -1.2706  1.5599 -1.6891
 7932TIP3   OH247990   1.886   5.069   2.011  0.1531 -0.2042  0.0261
 7932TIP3    H147991   1.859   5.157   2.039 -0.5325 -0.3559 -0.1263
 7932TIP3    H247992   1.948   5.040   2.078 -1.6032 -0.6479  1.5394
 7933TIP3   OH247993   0.321   3.268   2.701  0.1621 -0.7032  0.2710
 7933TIP3    H147994   0.246   3.284   2.758  1.4262  1.0581  1.5496
 7933TIP3    H247995   0.325   3.173   2.692 -0.6399 -0.9765  2.3508
 7934TIP3   OH247996   6.410   6.474   8.766 -0.2024  0.1503 -0.1097
 7934TIP3    H147997   6.421   6.394   8.714  0.3687  0.7392 -0.8990
 7934TIP3    H247998   6.326   6.460   8.812 -0.0440 -0.9554 -0.1223
 7935TIP3   OH247999   0.532   5.633   8.794 -0.5195  0.6025  0.0312
 7935TIP3    H148000   0.577   5.686   8.728  0.1429  2.2950  1.7594
 7935TIP3    H248001   0.543   5.682   8.876 -0.5784 -1.8177  1.5784
 7936TIP3   OH248002   1.766   6.567   8.139  0.5109  0.3142  0.0345
 7936TIP3    H148003   1.740   6.591   8.051  0.7082  1.3549  0.2412
 7936TIP3    H248004   1.841   6.509   8.127  1.2941  1.4025 -0.4760
 7937TIP3   OH248005   1.879   6.501   7.221 -0.0510  0.2914 -0.1287
 7937TIP3    H148006   1.812   6.447   7.263 -0.1629 -0.2639 -0.9864
 7937TIP3    H248007   1.927   6.540   7.293 -1.1533  0.5192  0.4997
 7938TIP3   OH248008   6.606   2.014   8.626  0.3180  0.4700 -0.1817
 7938TIP3    H148009   6.618   1.977   8.539 -0.3589  3.7247 -1.8231
 7938TIP3    H248010   6.519   1.985   8.653  1.1721 -1.9068  0.2411
 7939TIP3   OH248011   0.379   4.658   2.710 -0.7220  0.0742  0.2632
 7939TIP3    H148012   0.369   4.606   2.789  0.5965  1.0603  1.1302
 7939TIP3    H248013   0.467   4.637   2.678 -0.4616  1.1649  0.2043
 7940TIP3   OH248014   3.535   3.118   0.721 -0.3811 -0.0609  0.0388
 7940TIP3    H148015   3.525   3.026   0.694 -3.0073 -0.5253  2.1752
 7940TIP3    H248016   3.583   3.113   0.804 -1.9841  0.2761  1.0258
 7941TIP3   OH248017   0.238   3.585   1.760 -0.5126  0.4223  0.1376
 7941TIP3    H148018   0.257   3.495   1.785 -1.4523  0.2514  0.2622
 7941TIP3    H248019   0.213   3.579   1.667  0.6536  0.7333 -0.2096
 7942TIP3   OH248020   2.735   5.613   6.069 -0.1485  0.3199  0.0164
 7942TIP3    H148021   2.691   5.697   6.057  0.5224  0.5061 -1.3244
 7942TIP3    H248022   2.824   5.628   6.037 -0.3892 -1.2532 -1.5403
 7943TIP3   OH248023   2.628   3.181   2.096 -0.1441 -0.0957 -0.2217
 7943TIP3    H148024   2.560   3.248   2.091  0.2061  0.2504 -0.3821
 7943TIP3    H248025   2.667   3.192   2.182 -0.0317 -0.0421 -0.2796
 7944TIP3   OH248026   2.540   0.765   9.632 -0.4449  0.1340 -0.4165
 7944TIP3    H148027   2.503   0.800   9.713 -0.4773  1.0131 -0.7984
 7944TIP3    H248028   2.520   0.671   9.634 -1.4291  0.3494  0.0600
 7945TIP3   OH248029   3.596   2.259   1.747  0.3584 -0.0733 -0.1289
 7945TIP3    H148030   3.611   2.210   1.828  0.5217 -0.5508 -0.4434
 7945TIP3    H248031   3.554   2.197   1.689  0.6250  0.1409 -0.5581
 7946TIP3   OH248032   0.652   4.417   9.160  0.4267  0.2821 -0.4404
 7946TIP3    H148033   0.613   4.443   9.243  0.7428 -0.0675 -0.1803
 7946TIP3    H248034   0.638   4.493   9.103  2.5051  1.6126  0.6754
 7947TIP3   OH248035   0.529   6.016   7.318  0.0859  0.4221  0.0746
 7947TIP3    H148036   0.465   5.952   7.351  1.0474 -0.7224 -0.2055
 7947TIP3    H248037   0.487   6.101   7.331 -0.4240 -0.1155  2.3071
 7948TIP3   OH248038   0.886   2.753   8.300  0.0616  0.0743 -0.5660
 7948TIP3    H148039   0.892   2.733   8.207 -1.5116 -2.1971 -0.2644
 7948TIP3    H248040   0.830   2.830   8.305  1.2270  1.0318 -1.5056
 7949TIP3   OH248041   6.945   2.720   0.926  0.4517 -0.1262  0.5106
 7949TIP3    H148042   6.899   2.754   0.849 -0.2874  1.3445  1.5418
 7949TIP3    H248043   7.037   2.743   0.910  0.0785  1.7990  0.8137
 7950TIP3   OH248044   2.371   6.009   7.405  0.4703  0.2170  0.2464
 7950TIP3    H148045   2.387   5.919   7.433  1.9691  0.3053 -0.2360
 7950TIP3    H248046   2.352   6.001   7.311 -0.0260  0.3393  0.3378
 7951TIP3   OH248047   4.363   0.825   8.555  0.8131  0.1149  0.2550
 7951TIP3    H148048   4.414   0.758   8.600  2.7236 -0.2732 -2.2544
 7951TIP3    H248049   4.426   0.897   8.542 -0.3094  1.1047  0.1162
 7952TIP3   OH248050   0.632   4.508   3.192 -0.2996 -0.2787  0.4102
 7952TIP3    H148051   0.671   4.596   3.193 -0.1188 -0.3592  0.5301
 7952TIP3    H248052   0.559   4.515   3.254  0.1887 -0.4212  1.0202
 7953TIP3   OH248053   0.806   4.861   2.396  0.2963  0.8473 -0.0558
 7953TIP3    H148054   0.715   4.853   2.424  1.0348 -0.5271  2.2139
 7953TIP3    H248055   0.833   4.948   2.426  0.0798  0.7703  0.3618
 7954TIP3   OH248056   1.715   4.320   7.808  0.1807  0.5719 -0.4294
 7954TIP3    H148057   1.641   4.363   7.764  0.6040  0.7862 -0.9522
 7954TIP3    H248058   1.761   4.274   7.738  0.2272 -0.0191 -0.0119
 7955TIP3   OH248059   5.752   0.479   7.303 -0.6837  0.2447  0.2508
 7955TIP3    H148060   5.764   0.384   7.296 -0.2672  0.3989 -1.4707
 7955TIP3    H248061   5.694   0.502   7.231 -0.2993  1.3752  0.2829
 7956TIP3   OH248062   1.298   6.030   2.165  0.1243  0.3633 -0.4925
 7956TIP3    H148063   1.271   6.116   2.198  1.6711  0.1264  1.5947
 7956TIP3    H248064   1.277   6.032   2.072  0.7713  3.2770 -0.6589
 7957TIP3   OH248065   1.504   3.574   9.226 -0.7385  0.1984 -0.3551
 7957TIP3    H148066   1.510   3.669   9.214  0.1492  0.4047  1.3975
 7957TIP3    H248067   1.425   3.560   9.278 -0.5683  0.0237 -0.1418
 7958TIP3   OH248068   5.823   3.056   9.754  0.0948  0.7584 -0.2469
 7958TIP3    H148069   5.878   3.120   9.798  0.8347  0.3947 -0.6310
 7958TIP3    H248070   5.873   3.030   9.676 -0.0660 -0.4852  0.0411
 7959TIP3   OH248071   6.444   0.788   7.961 -0.1567 -0.1847 -1.7756
 7959TIP3    H148072   6.492   0.710   7.932 -0.5742 -0.9797 -0.4230
 7959TIP3    H248073   6.512   0.845   7.998 -0.2416 -1.7274  1.0494
 7960TIP3   OH248074   2.134   5.029   6.831 -0.6874 -0.0314 -0.4081
 7960TIP3    H148075   2.101   5.112   6.864  0.2670 -0.3899  1.6080
 7960TIP3    H248076   2.210   5.052   6.777 -0.3130  0.4217  0.2964
 7961TIP3   OH248077   6.070   1.495  10.000  0.2890 -0.2168  0.5061
 7961TIP3    H148078   6.119   1.575   9.983  0.1350 -0.2576 -0.1492
 7961TIP3    H248079   5.978   1.520   9.988  0.3216 -1.1557 -2.8354
 7962TIP3   OH248080   1.230   1.668   2.175 -0.2121  0.1690 -0.4148
 7962TIP3    H148081   1.213   1.721   2.097  2.0256  1.0341 -0.3941
 7962TIP3    H248082   1.270   1.588   2.142  0.4645  0.4084 -0.1860
 7963TIP3   OH248083   3.899   3.671   1.571 -0.5231  0.5066 -0.1715
 7963TIP3    H148084   3.812   3.639   1.548 -0.1691  0.4533 -1.5656
 7963TIP3    H248085   3.935   3.702   1.488  1.4569 -1.0991  0.0150
 7964TIP3   OH248086   3.078   4.144   8.790 -0.3331 -0.2402 -0.3617
 7964TIP3    H148087   3.014   4.073   8.793  1.4160 -2.0957 -3.0595
 7964TIP3    H248088   3.099   4.154   8.697  0.5378  2.9182  0.0573
 7965TIP3   OH248089   7.270   4.892   1.678  0.1899 -0.0720 -0.7953
 7965TIP3    H148090   7.357   4.884   1.718 -0.4164  0.7013  0.7676
 7965TIP3    H248091   7.209   4.893   1.753 -1.2572 -1.5279 -1.8894
 7966TIP3   OH248092   3.197   3.645   7.282  0.1088  0.2774 -0.3087
 7966TIP3    H148093   3.269   3.582   7.282 -0.6045 -0.5845  1.2107
 7966TIP3    H248094   3.238   3.728   7.260  1.8115  0.0352  1.6694
 7967TIP3   OH248095   2.883   4.717   8.565 -0.9832 -0.1605 -0.1860
 7967TIP3    H148096   2.843   4.648   8.512 -0.6351 -0.4576 -0.0677
 7967TIP3    H248097   2.974   4.690   8.574 -0.6896  0.6428 -0.6732
 7968TIP3   OH248098   1.250   0.568   1.102 -0.2051  0.9466 -0.0473
 7968TIP3    H148099   1.272   0.558   1.195  1.8555  1.9362 -0.3646
 7968TIP3    H248100   1.243   0.479   1.069  2.5714  0.4873  0.3619
 7969TIP3   OH248101   1.015   1.895   7.810 -0.0857  0.0815  0.5634
 7969TIP3    H148102   1.079   1.879   7.741 -1.1640 -1.6054 -0.1097
 7969TIP3    H248103   1.062   1.875   7.891 -0.0620 -2.5379  0.0052
 7970TIP3   OH248104   2.860   3.708   9.858 -0.5487  0.0007 -0.1075
 7970TIP3    H148105   2.897   3.628   9.896 -1.5469 -0.5405 -0.2516
 7970TIP3    H248106   2.854   3.769   9.931  0.8084  0.1791 -0.1169
 7971TIP3   OH248107   3.564   6.857   0.804  0.0841 -0.4613 -0.2341
 7971TIP3    H148108   3.585   6.899   0.888  1.0631  0.7278 -1.0535
 7971TIP3    H248109   3.517   6.778   0.829  2.1167 -1.2166  1.5597
 7972TIP3   OH248110   5.686   3.517   0.073  0.4246 -0.1806 -0.4133
 7972TIP3    H148111   5.749   3.481   0.136 -0.9086  0.2472  1.2528
 7972TIP3    H248112   5.610   3.458   0.079 -0.4805  0.9609 -0.1171
 7973TIP3   OH248113   6.799   1.899   7.612 -0.0210 -0.0466  0.8341
 7973TIP3    H148114   6.823   1.810   7.635 -1.1947 -0.7856 -0.5806
 7973TIP3    H248115   6.719   1.916   7.661 -1.0863 -0.6740 -0.5999
 7974TIP3   OH248116   0.992   4.566   8.530 -0.0890 -0.2640  0.1231
 7974TIP3    H148117   0.964   4.644   8.579 -1.5329 -0.8028  0.2355
 7974TIP3    H248118   1.076   4.590   8.492 -0.3340  1.2264  0.4344
 7975TIP3   OH248119   6.228   5.921   7.959 -0.4933 -0.2986  0.3137
 7975TIP3    H148120   6.212   5.945   7.868  2.2065  1.2617  0.1557
 7975TIP3    H248121   6.268   5.834   7.955 -0.0850 -0.0943 -0.0168
 7976TIP3   OH248122   6.292   6.488   2.611 -0.3139  0.0363 -0.9426
 7976TIP3    H148123   6.211   6.540   2.606 -0.0020  0.6013 -0.3265
 7976TIP3    H248124   6.361   6.551   2.591  0.1279  0.0417  0.4999
 7977TIP3   OH248125   1.787   5.316   2.072  0.7011 -0.3755  0.0087
 7977TIP3    H148126   1.701   5.291   2.105 -0.1633 -0.7769 -2.3200
 7977TIP3    H248127   1.787   5.411   2.073  0.4025 -0.3813  0.4452
 7978TIP3   OH248128   2.037   0.991   2.546  0.6386  0.0715  0.0694
 7978TIP3    H148129   2.059   1.078   2.580  0.9954 -0.2905  0.7899
 7978TIP3    H248130   2.034   1.002   2.451 -0.3468  1.1059  0.2067
 7979TIP3   OH248131   1.998   2.406   8.980  0.1663 -0.2701  0.2795
 7979TIP3    H148132   2.045   2.480   8.942 -0.7740  0.1803 -0.0458
 7979TIP3    H248133   1.994   2.426   9.074  0.7630 -0.3934  0.3313
 7980TIP3   OH248134   3.601   4.353   9.650  0.3165  0.3562  0.2590
 7980TIP3    H148135   3.632   4.410   9.720 -2.8022  0.8201  1.3985
 7980TIP3    H248136   3.573   4.273   9.695 -2.3362  0.9033 -0.2767
 7981TIP3   OH248137   5.840   6.960   2.574 -0.0519 -0.1011 -0.0167
 7981TIP3    H148138   5.886   7.021   2.631 -0.2529 -1.8523  2.1545
 7981TIP3    H248139   5.889   6.962   2.492  0.4546  2.2478  0.2797
 7982TIP3   OH248140   3.270   3.134   1.228 -0.2455  0.3313 -0.2399
 7982TIP3    H148141   3.220   3.090   1.297 -0.9531  1.5287  0.0382
 7982TIP3    H248142   3.248   3.226   1.238  0.3102  0.6214 -1.5448
 7983TIP3   OH248143   3.769   4.140   0.351  0.0232  0.2086  0.2600
 7983TIP3    H148144   3.736   4.056   0.385  1.1397 -0.0031  0.8776
 7983TIP3    H248145   3.695   4.177   0.302 -0.5595 -1.0284  0.1680
 7984TIP3   OH248146   7.024   6.382   1.062 -0.9334  0.2234  0.0283
 7984TIP3    H148147   6.983   6.400   1.147 -0.8670 -2.1076  0.6183
 7984TIP3    H248148   7.014   6.288   1.050  2.0018 -0.0589 -0.9986
 7985TIP3   OH248149   2.119   3.766   0.871  0.4004 -0.3292 -0.0652
 7985TIP3    H148150   2.143   3.689   0.820  0.0985 -0.6268  0.2338
 7985TIP3    H248151   2.112   3.836   0.807  0.8771 -0.5037 -0.3138
 7986TIP3   OH248152   6.773   1.777   0.763 -0.4393 -0.1549 -0.0448
 7986TIP3    H148153   6.782   1.819   0.848 -0.2408 -0.9523  0.3381
 7986TIP3    H248154   6.710   1.831   0.715  0.8069  1.3524 -0.0681
 7987TIP3   OH248155   0.404   0.387   8.153  0.0048 -0.2791  0.7125
 7987TIP3    H148156   0.387   0.324   8.082 -3.4325  2.0698 -0.8318
 7987TIP3    H248157   0.484   0.431   8.126  0.8313 -1.9321  0.2965
 7988TIP3   OH248158   1.758   3.578   8.217 -0.3154 -0.1562 -0.1809
 7988TIP3    H148159   1.835   3.523   8.230  0.0615  0.6434  1.0859
 7988TIP3    H248160   1.759   3.599   8.124 -0.0730 -1.6944 -0.5566
 7989TIP3   OH248161   2.930   1.407   2.149  0.3075  0.1325 -0.2601
 7989TIP3    H148162   2.866   1.415   2.220  0.1966 -0.1224 -0.3294
 7989TIP3    H248163   3.015   1.419   2.191  0.1659  1.7382 -0.3601
 7990TIP3   OH248164   5.452   2.680   8.730  0.0709  0.0428  0.1055
 7990TIP3    H148165   5.383   2.667   8.664 -1.3281 -0.1273  1.5395
 7990TIP3    H248166   5.513   2.741   8.689 -0.4668 -0.4719 -1.5458
 7991TIP3   OH248167   5.147   5.187   9.984  0.3584 -0.5833  0.3107
 7991TIP3    H148168   5.154   5.156   9.894 -0.4916  1.0547 -0.3614
 7991TIP3    H248169   5.106   5.114  10.031 -0.8257 -0.8378 -1.0246
 7992TIP3   OH248170   7.191   5.863   8.540 -0.2860 -0.6618 -0.1774
 7992TIP3    H148171   7.188   5.799   8.469  2.0047  0.8713 -1.7905
 7992TIP3    H248172   7.147   5.941   8.505 -0.4197 -0.3521  0.6406
 7993TIP3   OH248173   4.590   6.504   1.277  0.3198 -0.3309  0.2449
 7993TIP3    H148174   4.541   6.536   1.353  0.3757  0.0885  0.1093
 7993TIP3    H248175   4.586   6.576   1.214  1.6136 -0.0341  0.4714
 7994TIP3   OH248176   1.282   0.381   9.608 -0.1420 -0.2764  0.3501
 7994TIP3    H148177   1.221   0.343   9.545  0.5011 -0.1164 -0.3826
 7994TIP3    H248178   1.334   0.443   9.557  0.6415 -0.4193  0.9586
 7995TIP3   OH248179   1.220   1.390   8.262  0.0250 -0.3150  0.1970
 7995TIP3    H148180   1.284   1.325   8.232  0.8350  0.5299  0.0848
 7995TIP3    H248181   1.213   1.374   8.356 -0.9137 -1.5420 -0.0417
 7996TIP3   OH248182   6.559   2.551   9.128  0.0001  0.5507  0.3347
 7996TIP3    H148183   6.521   2.574   9.213 -0.2162  1.1474  0.0821
 7996TIP3    H248184   6.507   2.478   9.097  1.5288 -1.2563  1.7636
 7997TIP3   OH248185   6.842   1.295   1.719 -0.0225  0.4688  0.5473
 7997TIP3    H148186   6.855   1.265   1.809  0.5893  0.9355  0.6204
 7997TIP3    H248187   6.747   1.292   1.707 -0.1913  1.2175  1.5061
 7998TIP3   OH248188   4.418   0.432   1.795  0.2058 -0.0961  0.4053
 7998TIP3    H148189   4.484   0.445   1.727  0.0622  0.6755  0.4097
 7998TIP3    H248190   4.437   0.499   1.860 -0.9947  0.5825  0.0822
 7999TIP3   OH248191   1.072   2.122   8.065 -0.8154  0.0379  0.9037
 7999TIP3    H148192   1.086   2.137   7.972 -0.7081  2.5188  1.2337
 7999TIP3    H248193   1.016   2.045   8.070 -0.1444 -0.6283 -1.1470
 8000TIP3   OH248194   3.873   4.294   9.989  0.0959 -0.2497  0.0034
 8000TIP3    H148195   3.865   4.368   9.929  0.7630 -1.4469 -1.6299
 8000TIP3    H248196   3.927   4.230   9.942 -0.5475 -1.8320  1.3116
 8001TIP3   OH248197   2.499   5.507   3.012  0.5175  0.5193 -0.1892
 8001TIP3    H148198   2.480   5.456   3.090 -2.4370  1.2292 -0.3256
 8001TIP3    H248199   2.434   5.478   2.948  1.6518  1.2986 -1.7734
 8002TIP3   OH248200   0.557   6.878   8.759  0.2081  0.2671  0.8314
 8002TIP3    H148201   0.535   6.972   8.762  2.6607  0.9830 -0.6678
 8002TIP3    H248202   0.517   6.847   8.678  0.8617  0.4600  0.4306
 8003TIP3   OH248203   2.642   4.744   0.741 -0.0660  0.2037  0.5075
 8003TIP3    H148204   2.551   4.775   0.747 -0.6971 -1.4393 -0.0430
 8003TIP3    H248205   2.635   4.656   0.705  1.7271 -0.1740  0.9862
 8004TIP3   OH248206   4.492   5.513   0.412  0.5724 -0.2765 -0.5207
 8004TIP3    H148207   4.450   5.450   0.471 -1.0217 -0.6340 -1.9540
 8004TIP3    H248208   4.574   5.535   0.455 -0.8688  0.1064  2.2449
 8005TIP3   OH248209   2.035   6.760   1.161  0.0986  0.1590  0.2087
 8005TIP3    H148210   2.083   6.827   1.114  0.0432 -0.2629 -0.4611
 8005TIP3    H248211   2.082   6.679   1.143 -1.3496 -0.4161 -1.2096
 8006TIP3   OH248212   7.025   1.854   6.964 -0.6136  0.7186  0.3482
 8006TIP3    H148213   6.945   1.802   6.970 -2.9058  4.0410  2.2154
 8006TIP3    H248214   7.011   1.909   6.886  0.6285  0.3026 -0.1995
 8007TIP3   OH248215   1.593   6.384   0.712 -0.0659 -0.0565 -0.1548
 8007TIP3    H148216   1.604   6.450   0.644  0.8081  0.6207  0.6157
 8007TIP3    H248217   1.668   6.326   0.701  0.2106  0.1926  0.3569
 8008TIP3   OH248218   0.952   6.669   9.439  0.7217 -0.2320  0.0820
 8008TIP3    H148219   1.032   6.626   9.468  0.3431  1.7646  5.1997
 8008TIP3    H248220   0.883   6.631   9.494 -1.4110  0.1412 -2.1378
 8009TIP3   OH248221   3.089   2.566   1.186 -0.6442 -0.1175 -0.6262
 8009TIP3    H148222   3.066   2.524   1.269 -0.5288 -1.2987 -1.1612
 8009TIP3    H248223   3.037   2.519   1.120 -0.6561  0.7267 -1.2321
 8010TIP3   OH248224   0.563   2.077   1.014 -0.0964  0.0339 -0.1510
 8010TIP3    H148225   0.489   2.119   1.056  0.0999 -1.0060  1.3057
 8010TIP3    H248226   0.640   2.124   1.047  0.0014 -0.1177 -0.1590
 8011TIP3   OH248227   4.456   3.335   7.568 -0.6196  0.2191  0.0013
 8011TIP3    H148228   4.534   3.281   7.557 -1.2843 -0.8441  0.4447
 8011TIP3    H248229   4.429   3.356   7.478  1.0823  1.9917 -0.1746
 8012TIP3   OH248230   5.314   1.485   0.263  0.2762 -0.1212 -0.1909
 8012TIP3    H148231   5.374   1.442   0.324 -1.1462 -1.0270  0.6153
 8012TIP3    H248232   5.267   1.549   0.317  0.1165  0.1899 -0.6911
 8013TIP3   OH248233   3.095   7.206   8.997 -0.5544  0.1467 -0.9515
 8013TIP3    H148234   3.001   7.218   8.985 -0.4276  1.2596 -0.8982
 8013TIP3    H248235   3.133   7.292   8.978  0.4601 -0.3118 -1.0560
 8014TIP3   OH248236   0.155   7.129   7.700 -0.0576 -0.2409  0.3620
 8014TIP3    H148237   0.064   7.114   7.726 -0.6312 -0.3128 -1.5122
 8014TIP3    H248238   0.205   7.063   7.747 -0.7699  0.6349  2.4423
 8015TIP3   OH248239   0.620   6.196   7.552  0.5487  0.3530  0.6023
 8015TIP3    H148240   0.693   6.178   7.494 -0.9335 -1.1267 -0.8816
 8015TIP3    H248241   0.629   6.290   7.572  2.7081  0.2617  0.3506
 8016TIP3   OH248242   0.228   4.524   9.083 -0.7668 -0.3842  0.1976
 8016TIP3    H148243   0.237   4.598   9.144  0.7634 -0.4048  0.0163
 8016TIP3    H248244   0.177   4.560   9.010  0.2231  0.6115 -0.0356
 8017TIP3   OH248245   0.238   4.228   8.156 -0.3498  0.0192  0.3688
 8017TIP3    H148246   0.321   4.230   8.108 -1.2076  0.8066 -1.1578
 8017TIP3    H248247   0.254   4.168   8.229  1.2316 -0.6673 -0.4925
 8018TIP3   OH248248   3.013   1.436   7.788 -0.4074 -0.4885  0.1594
 8018TIP3    H148249   3.081   1.447   7.854 -1.7493  0.1758  1.4881
 8018TIP3    H248250   3.040   1.493   7.716  0.0233  0.4218  1.0242
 8019TIP3   OH248251   0.650   4.931   1.568 -0.7801 -0.3782 -0.0975
 8019TIP3    H148252   0.669   4.941   1.475  1.7777 -1.8693  0.1887
 8019TIP3    H248253   0.645   5.020   1.601  0.1864  0.1557 -1.3220
 8020TIP3   OH248254   6.898   1.012   0.488 -0.0404 -0.1288  0.4470
 8020TIP3    H148255   6.985   1.048   0.503 -0.0902 -0.1206  0.7179
 8020TIP3    H248256   6.867   0.985   0.575 -0.5282  0.3719  0.4361
 8021TIP3   OH248257   2.993   7.217   2.557  0.9420  0.1191 -0.2755
 8021TIP3    H148258   2.965   7.236   2.467  0.6989 -0.3392 -0.3018
 8021TIP3    H248259   2.994   7.302   2.601  1.3536  0.3830 -0.7920
 8022TIP3   OH248260   5.272   6.042   7.595  0.2710  0.2313 -0.4182
 8022TIP3    H148261   5.272   6.043   7.690 -1.3061  2.3358 -0.3894
 8022TIP3    H248262   5.271   5.948   7.572 -0.4733 -0.2984  1.6169
 8023TIP3   OH248263   5.831   6.487   9.936 -0.0473  0.1672 -0.2346
 8023TIP3    H148264   5.885   6.481  10.015  0.6641 -0.7692 -0.7673
 8023TIP3    H248265   5.866   6.419   9.878 -0.7208  0.6685 -1.2598
 8024TIP3   OH248266   3.187   5.893   7.678 -0.3956 -0.3359 -0.2428
 8024TIP3    H148267   3.127   5.879   7.605  1.1344 -0.7426 -1.4785
 8024TIP3    H248268   3.261   5.835   7.659  0.2806 -0.0380  1.3579
 8025TIP3   OH248269   5.946   0.675   1.571  0.0014  0.4170 -0.1822
 8025TIP3    H148270   5.955   0.762   1.531  1.0242 -0.0051 -0.9113
 8025TIP3    H248271   6.016   0.623   1.532 -1.7724 -1.3035 -1.2673
 8026TIP3   OH248272   3.417   4.327   7.612 -0.0379 -0.0830 -0.5991
 8026TIP3    H148273   3.487   4.328   7.547  0.9654 -1.1523  0.4042
 8026TIP3    H248274   3.351   4.387   7.578  2.5408  3.2385 -0.2731
 8027TIP3   OH248275   3.122   5.455   0.784  0.0295 -0.5168 -0.2489
 8027TIP3    H148276   3.192   5.401   0.747  0.5646  0.5433 -0.8339
 8027TIP3    H248277   3.067   5.477   0.709 -0.9825 -1.3758  0.2134
 8028TIP3   OH248278   2.388   2.157   0.072 -0.2596 -0.4258  0.2867
 8028TIP3    H148279   2.471   2.110   0.062 -0.1914  0.0117 -1.5635
 8028TIP3    H248280   2.342   2.143  -0.010 -0.9897  1.3114  0.3575
 8029TIP3   OH248281   5.312   3.969   7.504 -0.3873  0.8769  0.0491
 8029TIP3    H148282   5.257   4.011   7.571 -0.0569 -0.0386  0.9198
 8029TIP3    H248283   5.388   3.939   7.552 -0.3257 -0.1454 -0.6789
 8030TIP3   OH248284   7.202   4.212   7.895  0.2939  0.0716 -1.4944
 8030TIP3    H148285   7.164   4.299   7.882  1.4749  0.9239  0.3900
 8030TIP3    H248286   7.275   4.226   7.955 -0.4451 -2.4377  0.1504
 8031TIP3   OH248287   6.652   3.047   0.651 -0.1219  0.1595  0.8899
 8031TIP3    H148288   6.605   3.011   0.727  1.2129 -2.7778  0.4305
 8031TIP3    H248289   6.722   3.100   0.690 -1.3440  1.3306  1.6052
 8032TIP3   OH248290   0.011   3.811   8.641 -0.0483 -0.3957 -0.3284
 8032TIP3    H148291  -0.008   3.735   8.696 -1.3709 -0.0143 -0.2188
 8032TIP3    H248292   0.025   3.775   8.554  1.4853 -0.9489  0.1103
 8033TIP3   OH248293   0.757   6.314   9.281  0.1128  0.0612 -0.1556
 8033TIP3    H148294   0.853   6.315   9.289  0.0645  0.3357  0.4826
 8033TIP3    H248295   0.741   6.290   9.190  0.7710 -1.0687  0.0008
 8034TIP3   OH248296   5.822   6.103   6.848  0.1206  0.2420 -0.3622
 8034TIP3    H148297   5.734   6.068   6.856  0.8880 -1.5337  0.8973
 8034TIP3    H248298   5.842   6.140   6.934  0.8531 -0.0116 -0.4146
 8035TIP3   OH248299   4.208   1.670   1.484 -0.4086  0.6991 -0.9444
 8035TIP3    H148300   4.203   1.726   1.562  0.9820  0.1972 -0.4668
 8035TIP3    H248301   4.167   1.588   1.512  2.5566 -0.5128  0.2812
 8036TIP3   OH248302   5.101   2.787   7.817 -0.6679 -0.3294 -0.0098
 8036TIP3    H148303   5.072   2.699   7.795  1.9813 -1.6049  1.1584
 8036TIP3    H248304   5.045   2.813   7.890  0.5722 -2.5020  1.8548
 8037TIP3   OH248305   4.653   1.320   1.444 -0.1854 -0.0159 -0.2050
 8037TIP3    H148306   4.657   1.340   1.350 -0.1150 -0.4395 -0.2944
 8037TIP3    H248307   4.732   1.361   1.480  0.3457 -0.7611 -0.5070
 8038TIP3   OH248308   0.635   0.285   6.992 -0.0899 -0.8646  0.0118
 8038TIP3    H148309   0.657   0.364   7.043 -0.0199 -0.8995  0.0345
 8038TIP3    H248310   0.539   0.280   6.998 -0.1317 -0.5520 -0.3304
 8039TIP3   OH248311   5.116   5.816   8.688  0.3633 -0.1457 -0.4888
 8039TIP3    H148312   5.101   5.723   8.668 -1.5273  0.6872 -3.7502
 8039TIP3    H248313   5.054   5.836   8.757 -0.6999 -0.9044 -1.1829
 8040TIP3   OH248314   7.051   0.488   7.909 -0.1507 -0.1629 -0.4699
 8040TIP3    H148315   7.069   0.451   7.995  0.8479  1.2638 -0.0364
 8040TIP3    H248316   7.092   0.427   7.848  1.0231 -0.0774  0.2002
 8041TIP3   OH248317   2.928   6.976   8.479 -0.2812 -0.0601 -0.6221
 8041TIP3    H148318   2.897   7.026   8.404  0.7439  0.3103 -0.8088
 8041TIP3    H248319   3.007   6.932   8.447  1.8920  2.3769  1.0014
 8042TIP3   OH248320   1.344   5.584   3.017  0.3217 -0.6796 -0.3578
 8042TIP3    H148321   1.395   5.563   2.939  2.0919 -0.1868  0.6029
 8042TIP3    H248322   1.379   5.668   3.046 -0.9083 -0.4318  0.4848
 8043TIP3   OH248323   6.466   2.182   7.566  0.0010  0.4393 -0.0113
 8043TIP3    H148324   6.451   2.153   7.476 -0.1598  1.8763 -0.4702
 8043TIP3    H248325   6.453   2.103   7.619  0.8740 -0.6110 -1.3035
 8044TIP3   OH248326   1.890   5.327   8.841 -0.1637 -0.6869  0.2813
 8044TIP3    H148327   1.906   5.242   8.801  0.1253 -0.7114  0.4462
 8044TIP3    H248328   1.937   5.323   8.925  0.9085  0.0939 -0.2606
 8045TIP3   OH248329   6.109   3.156   0.831 -0.0138  0.6105 -0.0031
 8045TIP3    H148330   6.074   3.245   0.835 -3.5362 -0.6270  1.0228
 8045TIP3    H248331   6.079   3.116   0.912  1.3277 -1.5877 -0.5260
 8046TIP3   OH248332   6.874   2.360   9.718 -0.2092  0.8363 -0.0750
 8046TIP3    H148333   6.858   2.267   9.737  0.2030  0.9835  1.1334
 8046TIP3    H248334   6.817   2.380   9.645  0.7041 -0.7216 -1.2855
 8047TIP3   OH248335   5.482   4.833   8.628 -0.0021  0.4206 -0.0088
 8047TIP3    H148336   5.489   4.808   8.536  0.3934  1.6312 -0.3302
 8047TIP3    H248337   5.560   4.795   8.669  0.1605  0.4273 -0.3067
 8048TIP3   OH248338   0.868   2.924   2.697  0.1652  0.3552  0.0518
 8048TIP3    H148339   0.915   2.855   2.650  0.6536  1.0305 -0.4621
 8048TIP3    H248340   0.791   2.880   2.733  0.4723 -0.4594 -0.2624
 8049TIP3   OH248341   1.496   3.302   2.246  0.1091  0.4059  0.3799
 8049TIP3    H148342   1.490   3.398   2.250 -0.9368  0.3455  0.5415
 8049TIP3    H248343   1.418   3.272   2.293 -0.7240 -0.5071 -1.4990
 8050TIP3   OH248344   6.467   0.806   2.144 -0.3596  0.1191  0.0319
 8050TIP3    H148345   6.411   0.754   2.202  1.1558 -0.6716  0.8483
 8050TIP3    H248346   6.447   0.773   2.056  0.0648 -1.3827  0.4757
 8051TIP3   OH248347   6.867   0.629   7.518 -0.1296 -0.3454 -0.0282
 8051TIP3    H148348   6.887   0.536   7.526 -0.8256 -0.4458  0.5560
 8051TIP3    H248349   6.852   0.659   7.607 -2.6709 -0.2902 -0.3963
 8052TIP3   OH248350   2.990   7.197   7.413 -0.0503  0.1291 -0.0505
 8052TIP3    H148351   3.008   7.237   7.328 -0.3793 -1.3021 -0.8482
 8052TIP3    H248352   2.990   7.103   7.395 -0.0183 -0.2124  1.5702
 8053TIP3   OH248353   5.715   2.265   1.937 -0.3597  0.0523  0.3351
 8053TIP3    H148354   5.675   2.313   1.864 -0.0966 -1.2956 -0.7580
 8053TIP3    H248355   5.679   2.176   1.928  2.2913 -1.0466 -0.2852
 8054TIP3   OH248356   6.480   6.001   3.203  0.5754 -0.1004 -0.2347
 8054TIP3    H148357   6.482   5.938   3.131  0.7254  0.4525 -0.7236
 8054TIP3    H248358   6.561   5.984   3.251  1.2658  0.5855 -1.1278
 8055TIP3   OH248359   6.495   1.735   7.701 -0.0645 -0.2651 -0.3114
 8055TIP3    H148360   6.516   1.643   7.685  0.7240  0.0326 -1.0615
 8055TIP3    H248361   6.531   1.753   7.788  1.2458 -0.2490 -0.8316
 8056TIP3   OH248362   4.671   0.947   7.535 -0.2353 -0.0109 -0.0342
 8056TIP3    H148363   4.581   0.916   7.540 -1.1158  2.3164 -0.4191
 8056TIP3    H248364   4.724   0.867   7.534 -2.1870 -1.4109  1.5214
 8057TIP3   OH248365   7.017   4.694   9.909 -0.4423 -0.0312 -0.1426
 8057TIP3    H148366   7.109   4.703   9.936 -0.3237 -0.7460 -0.3005
 8057TIP3    H248367   7.019   4.704   9.814 -0.9808  3.4949  0.0976
 8058TIP3   OH248368   2.393   3.325   9.623  0.0910  0.0254 -0.1809
 8058TIP3    H148369   2.456   3.397   9.615 -0.7360  0.7165 -0.5227
 8058TIP3    H248370   2.327   3.357   9.684 -0.1221 -0.5698 -0.0906
 8059TIP3   OH248371   3.613   1.004   1.859  0.2543  0.0585 -0.3495
 8059TIP3    H148372   3.687   0.963   1.902  0.9788  3.7462  2.4321
 8059TIP3    H248373   3.542   1.000   1.923 -0.4275  0.7584 -1.0335
 8060TIP3   OH248374   1.876   4.811   2.379 -0.0101 -0.0388 -0.1766
 8060TIP3    H148375   1.911   4.802   2.467  0.9868 -1.3240 -0.6769
 8060TIP3    H248376   1.875   4.906   2.364 -0.7310  0.2299  1.3995
 8061TIP3   OH248377   5.363   6.232   6.635 -0.6745 -0.5108 -0.1072
 8061TIP3    H148378   5.345   6.303   6.697 -2.0744  0.6450 -1.7431
 8061TIP3    H248379   5.456   6.239   6.617 -0.4558 -0.2047  1.0481
 8062TIP3   OH248380   3.652   3.286   1.362  0.2707 -0.0991 -0.0503
 8062TIP3    H148381   3.642   3.377   1.387 -1.6396 -0.2814  0.0269
 8062TIP3    H248382   3.634   3.236   1.442  2.2619 -0.5539  0.1530
 8063TIP3   OH248383   5.502   7.264   8.785 -0.4346 -0.0616 -0.7064
 8063TIP3    H148384   5.456   7.199   8.839 -1.1888  1.5464  0.6616
 8063TIP3    H248385   5.444   7.340   8.783  1.8794  1.8787  0.6647
 8064TIP3   OH248386   4.993   3.099   0.948 -0.1797 -0.0404 -0.2279
 8064TIP3    H148387   4.973   3.092   1.041 -0.0673 -0.2126 -0.2162
 8064TIP3    H248388   4.936   3.169   0.916 -0.7408 -0.4614 -0.1776
 8065TIP3   OH248389   7.016   1.609   0.715  0.0421 -0.2739  0.1930
 8065TIP3    H148390   7.097   1.659   0.709  0.8674 -1.4915  0.7386
 8065TIP3    H248391   6.947   1.673   0.700  1.0910  0.8373 -0.0438
 8066TIP3   OH248392   5.483   1.315   1.128 -0.1957 -0.2913  0.1119
 8066TIP3    H148393   5.393   1.346   1.135  0.8248  3.0865  0.0830
 8066TIP3    H248394   5.507   1.331   1.037  0.8910  0.2721  0.4841
 8067TIP3   OH248395   6.584   2.600   1.504 -0.3179 -0.9785 -0.6737
 8067TIP3    H148396   6.584   2.664   1.576 -0.7252 -1.8329  0.1032
 8067TIP3    H248397   6.648   2.634   1.442 -2.9880  2.0966 -2.0268
 8068TIP3   OH248398   5.989   3.952   9.771  0.0532 -0.4816 -0.2386
 8068TIP3    H148399   6.073   3.996   9.764 -0.3451  0.6404  1.2986
 8068TIP3    H248400   6.009   3.859   9.766  1.6326 -0.3118  1.6963
 8069TIP3   OH248401   0.069   6.043   6.938 -0.3742  0.1377  0.0285
 8069TIP3    H148402   0.130   6.094   6.992  0.1204  1.8588 -2.0190
 8069TIP3    H248403   0.098   6.058   6.848 -3.4154  0.5292 -1.0191
 8070TIP3   OH248404   6.456   6.638   7.647  0.2842  0.3031  0.1773
 8070TIP3    H148405   6.415   6.626   7.732  2.1309 -1.0554  0.9470
 8070TIP3    H248406   6.453   6.732   7.631 -2.3888  0.3334  0.5030
 8071TIP3   OH248407   5.396   1.081   7.731 -0.0405 -0.6488 -0.1029
 8071TIP3    H148408   5.386   1.075   7.825 -2.0388 -1.7594 -0.3464
 8071TIP3    H248409   5.455   1.009   7.709  0.9772  0.0259  0.3376
 8072TIP3   OH248410   0.658   4.657   0.784 -0.0994 -0.4399 -0.6034
 8072TIP3    H148411   0.598   4.612   0.843 -0.6020 -0.9378 -1.4791
 8072TIP3    H248412   0.745   4.631   0.815 -0.2621  0.9494  1.1975
 8073TIP3   OH248413   3.905   5.852   2.284 -0.1078 -0.1205  0.1972
 8073TIP3    H148414   3.935   5.831   2.195 -0.4388  0.4057 -0.0476
 8073TIP3    H248415   3.872   5.770   2.318  1.1886 -0.6139  0.3095
 8074TIP3   OH248416   3.470   0.662   8.747 -0.5024 -0.1156  0.4300
 8074TIP3    H148417   3.432   0.676   8.834  0.3662 -1.1174  0.9924
 8074TIP3    H248418   3.463   0.568   8.733  1.3656 -0.2913  0.3979
 8075TIP3   OH248419   0.645   6.413   7.144  0.2237  0.5042 -0.8973
 8075TIP3    H148420   0.682   6.474   7.079 -0.8293  0.7098 -1.3142
 8075TIP3    H248421   0.631   6.332   7.095  1.6876 -0.1458 -0.3284
 8076TIP3   OH248422   2.591   6.468   8.750 -0.0905  0.1285 -0.4684
 8076TIP3    H148423   2.607   6.449   8.658  0.8654  1.8091 -0.6966
 8076TIP3    H248424   2.624   6.557   8.762 -2.0889  0.7395  1.0112
 8077TIP3   OH248425   5.541   5.634   0.062  0.0379 -0.2296 -0.6221
 8077TIP3    H148426   5.524   5.544   0.035 -1.2097 -0.1972 -0.0212
 8077TIP3    H248427   5.606   5.627   0.132 -0.5703 -0.7329 -0.0959
 8078TIP3   OH248428   3.300   0.195   0.052 -0.8707  0.0031 -0.3267
 8078TIP3    H148429   3.344   0.155  -0.023  1.7860  1.1890  0.5029
 8078TIP3    H248430   3.294   0.288   0.029 -1.2539  0.1610  0.3912
 8079TIP3   OH248431   6.234   3.327   1.284 -0.4640 -0.0717 -0.4893
 8079TIP3    H148432   6.263   3.308   1.195  1.4389  0.2759  0.0258
 8079TIP3    H248433   6.226   3.241   1.325  0.4144 -0.1528 -0.4785
 8080TIP3   OH248434   1.733   5.014   7.246  0.3904 -0.0608  0.7218
 8080TIP3    H148435   1.704   4.976   7.329 -0.1766  0.2983  0.6968
 8080TIP3    H248436   1.741   5.108   7.265  1.8359 -0.1775  0.8026
 8081TIP3   OH248437   2.650   3.523   1.986 -0.1329 -0.0970 -0.0222
 8081TIP3    H148438   2.671   3.599   1.932 -0.4121 -0.2586 -0.3569
 8081TIP3    H248439   2.588   3.472   1.934 -1.5082  0.4446  1.0099
 8082TIP3   OH248440   7.266   3.068   8.468  0.8865  0.2511 -0.3810
 8082TIP3    H148441   7.207   3.041   8.398  1.4691 -0.3162 -0.6487
 8082TIP3    H248442   7.291   2.987   8.512  1.2778  0.5126 -0.1111
 8083TIP3   OH248443   5.344   2.993   9.090 -0.3627  0.0776 -0.1057
 8083TIP3    H148444   5.427   2.947   9.085 -0.6477 -0.3819 -0.7234
 8083TIP3    H248445   5.288   2.935   9.143 -0.6487 -0.1811 -0.6862
 8084TIP3   OH248446   5.602   2.843   9.452 -0.0007  0.9068 -0.0748
 8084TIP3    H148447   5.578   2.753   9.432  2.2992  0.3006 -0.3894
 8084TIP3    H248448   5.522   2.893   9.434 -0.6949 -0.7623 -2.1331
 8085TIP3   OH248449   5.333   3.232   1.789  0.1751 -0.6279 -0.6276
 8085TIP3    H148450   5.412   3.266   1.746  0.4617 -1.3974 -0.7281
 8085TIP3    H248451   5.338   3.266   1.878 -1.7209  3.1506 -1.7547
 8086TIP3   OH248452   0.963   4.061   8.388 -0.3143 -0.0739  0.1350
 8086TIP3    H148453   0.971   4.003   8.464  1.7855  1.2736  1.0152
 8086TIP3    H248454   0.919   4.007   8.322  0.3380 -2.2384  1.3596
 8087TIP3   OH248455   0.943   6.767   6.831 -0.2932 -0.4486 -0.7748
 8087TIP3    H148456   0.969   6.835   6.894 -1.9946 -1.0716  0.6691
 8087TIP3    H248457   0.923   6.816   6.751 -0.2751  0.6124 -0.1586
 8088TIP3   OH248458   4.537   5.863   7.565 -0.0562  0.2328 -0.1190
 8088TIP3    H148459   4.591   5.884   7.489  0.2389 -0.0548  0.0091
 8088TIP3    H248460   4.451   5.842   7.529  0.7201 -2.4745 -0.6431
 8089TIP3   OH248461   3.382   5.133   2.142  0.0053  0.4947 -0.5664
 8089TIP3    H148462   3.448   5.113   2.075 -0.9056  0.3178 -1.4324
 8089TIP3    H248463   3.305   5.159   2.092 -0.8192 -0.0334  0.4095
 8090TIP3   OH248464   0.054   1.757   8.720 -0.6186  0.3892 -0.0423
 8090TIP3    H148465   0.038   1.664   8.730  1.3413  0.0642  0.3347
 8090TIP3    H248466   0.054   1.792   8.809 -0.7417  0.6498 -0.1426
 8091TIP3   OH248467   4.913   3.100   7.071  0.1098 -0.6913  0.4229
 8091TIP3    H148468   4.934   3.106   7.164  0.3230 -0.9879  0.3939
 8091TIP3    H248469   4.884   3.188   7.047  2.1819  0.0080  0.2618
 8092TIP3   OH248470   2.787   0.118   6.981  0.1872  0.0518  0.4387
 8092TIP3    H148471   2.768   0.212   6.979  1.9868  0.4406 -0.7290
 8092TIP3    H248472   2.794   0.093   6.889  1.0906 -0.9072  0.7442
 8093TIP3   OH248473   1.307   6.885   2.907  0.0908  0.7103  0.1631
 8093TIP3    H148474   1.225   6.851   2.942  0.6289 -1.1360 -0.2452
 8093TIP3    H248475   1.318   6.840   2.823  1.6758  0.6739  0.3544
 8094TIP3   OH248476   6.628   0.020   7.031 -0.2102  0.6919  0.1035
 8094TIP3    H148477   6.669   0.089   6.978 -1.6475  1.9330  0.5613
 8094TIP3    H248478   6.642   0.047   7.121 -0.2879  0.0615  0.3122
 8095TIP3   OH248479   3.153   6.808   0.546  0.4400  0.1345 -0.7354
 8095TIP3    H148480   3.146   6.903   0.537  0.0230 -0.0381 -2.5534
 8095TIP3    H248481   3.246   6.792   0.563  0.2664  0.9417  1.3052
 8096TIP3   OH248482   6.542   3.525   2.581  0.1556  0.2112  0.1748
 8096TIP3    H148483   6.446   3.526   2.592  0.2719 -0.3336  1.3145
 8096TIP3    H248484   6.575   3.491   2.664  1.3298  0.0562 -0.3523
 8097TIP3   OH248485   2.822   6.961   0.505  0.0445 -0.0960 -0.0362
 8097TIP3    H148486   2.883   6.902   0.461 -2.4441 -1.7326 -1.5773
 8097TIP3    H248487   2.790   6.911   0.580 -1.6346 -0.5578 -1.0078
 8098TIP3   OH248488   1.841   0.270   2.395  0.5702 -0.2268  0.1619
 8098TIP3    H148489   1.909   0.337   2.399  0.3613  0.1896 -1.9434
 8098TIP3    H248490   1.817   0.254   2.486  0.1364  3.0712  0.7548
 8099TIP3   OH248491   7.206   6.837   0.236  0.1506 -0.4612 -0.5220
 8099TIP3    H148492   7.260   6.857   0.313 -0.0424 -2.3562  0.1435
 8099TIP3    H248493   7.207   6.918   0.185  0.9989  0.5615  1.0407
 8100TIP3   OH248494   5.608   4.127   7.140 -0.0624  0.0481  0.4796
 8100TIP3    H148495   5.696   4.162   7.154  1.9752 -3.8881 -0.8687
 8100TIP3    H248496   5.596   4.133   7.045 -0.3243 -1.2538  0.4137
 8101TIP3   OH248497   4.820   2.602   1.532 -0.0773 -0.1238 -0.0741
 8101TIP3    H148498   4.791   2.689   1.561  0.7135  0.1369 -0.0367
 8101TIP3    H248499   4.890   2.579   1.594 -0.4296 -0.8857  0.0462
 8102TIP3   OH248500   4.867   5.301   2.890 -0.3263 -0.1574  0.0111
 8102TIP3    H148501   4.815   5.375   2.861 -0.3311 -0.2008 -0.0911
 8102TIP3    H248502   4.826   5.274   2.973 -0.8755 -0.6021 -0.3972
 8103TIP3   OH248503   6.845   3.635   7.986 -0.1131  0.4826  0.1668
 8103TIP3    H148504   6.845   3.685   8.068 -0.3094  0.4616  0.1783
 8103TIP3    H248505   6.937   3.612   7.973 -0.0668  0.5748  0.3278
 8104TIP3   OH248506   1.372   5.760   9.246  0.3552 -0.4715  0.5694
 8104TIP3    H148507   1.315   5.697   9.291 -0.0415  0.0798  0.8558
 8104TIP3    H248508   1.352   5.844   9.289 -1.9279  0.6149 -2.2738
 8105TIP3   OH248509   2.169   2.349   7.427  0.7844 -0.0018  0.1236
 8105TIP3    H148510   2.221   2.272   7.450  0.0261 -1.0562 -1.4903
 8105TIP3    H248511   2.205   2.419   7.481  0.4464 -1.7992  2.9035
 8106TIP3   OH248512   5.775   5.896   7.513 -0.5063 -0.1262 -0.4113
 8106TIP3    H148513   5.699   5.931   7.466 -0.5711  2.4296  1.4076
 8106TIP3    H248514   5.746   5.891   7.604  0.6515 -1.8440 -0.0850
 8107TIP3   OH248515   2.758   0.704   9.048 -0.3468  0.4306 -0.5822
 8107TIP3    H148516   2.755   0.748   8.963 -0.9272 -1.0826 -1.3776
 8107TIP3    H248517   2.711   0.762   9.107 -0.7242  1.0751 -1.4958
 8108TIP3   OH248518   3.185   7.028   2.419  0.0688  0.2060  0.5405
 8108TIP3    H148519   3.095   7.053   2.440 -0.4096 -0.6015 -0.4592
 8108TIP3    H248520   3.232   7.110   2.407 -1.2097  0.6815 -1.6852
 8109TIP3   OH248521   3.547   3.429   9.402  0.2447 -0.4407 -0.0183
 8109TIP3    H148522   3.524   3.484   9.478  0.5264 -0.3028 -0.0329
 8109TIP3    H248523   3.542   3.340   9.435  0.6487 -0.3705  0.2426
 8110TIP3   OH248524   0.422   7.209   8.500  0.6832  0.0505 -0.0893
 8110TIP3    H148525   0.496   7.211   8.441  0.6747  1.7122 -0.0804
 8110TIP3    H248526   0.397   7.301   8.512 -1.3404 -0.4440 -0.0537
 8111TIP3   OH248527   5.788   2.713   0.813 -0.2566  0.3512 -0.4607
 8111TIP3    H148528   5.735   2.704   0.892 -0.9377  1.0619 -0.8199
 8111TIP3    H248529   5.867   2.759   0.842  0.7009 -1.6653  0.2913
 8112TIP3   OH248530   5.509   3.638   1.996 -0.1741  0.1942 -0.1293
 8112TIP3    H148531   5.601   3.646   2.021 -0.2297  0.9351 -0.1636
 8112TIP3    H248532   5.466   3.715   2.034 -0.4429  0.8322 -1.6547
 8113TIP3   OH248533   0.448   0.781   8.120 -0.2074 -0.0481  0.3190
 8113TIP3    H148534   0.518   0.844   8.138 -0.0398  0.1828 -1.0360
 8113TIP3    H248535   0.464   0.709   8.182 -0.2402  1.0826  1.7047
 8114TIP3   OH248536   3.178   6.331   8.124  0.3763 -0.2687 -0.0063
 8114TIP3    H148537   3.158   6.244   8.158 -3.5292 -0.6035 -2.6332
 8114TIP3    H248538   3.249   6.316   8.061  0.3617 -1.3588  0.2121
 8115TIP3   OH248539   3.296   6.231   8.736  0.2475  0.7957 -0.0072
 8115TIP3    H148540   3.310   6.137   8.739 -3.4745  0.1081  1.3738
 8115TIP3    H248541   3.331   6.264   8.818  0.9686  0.5354 -0.2051
 8116TIP3   OH248542   4.256   6.100   2.040 -0.2047  0.0724  0.8460
 8116TIP3    H148543   4.280   6.192   2.047  0.2723 -0.1630  3.6745
 8116TIP3    H248544   4.170   6.094   2.083  0.5116 -0.9922  2.2331
 8117TIP3   OH248545   1.970   5.822   7.922  0.1199 -0.5260 -0.2780
 8117TIP3    H148546   1.972   5.915   7.947 -0.2475 -0.0611 -1.8389
 8117TIP3    H248547   2.028   5.779   7.984 -0.3042  0.6195  0.9747
 8118TIP3   OH248548   3.416   0.073   8.278 -0.1634  0.1529 -0.3904
 8118TIP3    H148549   3.448  -0.001   8.330 -2.0394 -0.6640 -0.3486
 8118TIP3    H248550   3.431   0.149   8.334 -1.5064 -0.6279  1.1183
 8119TIP3   OH248551   4.476   1.741   9.643  0.2767  0.1157 -0.2114
 8119TIP3    H148552   4.520   1.776   9.565  2.0912  2.6144  1.7679
 8119TIP3    H248553   4.543   1.689   9.687 -0.1407  0.2528  0.6067
 8120TIP3   OH248554   2.382   0.545   2.303 -0.0224  0.0974  0.0899
 8120TIP3    H148555   2.300   0.594   2.305 -1.0244 -1.4500  2.3315
 8120TIP3    H248556   2.411   0.544   2.394  0.8764 -1.8734 -0.1582
 8121TIP3   OH248557   3.704   0.115   1.540 -0.1674  0.6591  0.3464
 8121TIP3    H148558   3.770   0.176   1.506 -1.2122  1.5269 -0.1712
 8121TIP3    H248559   3.671   0.157   1.619 -0.2994  0.3605  0.4520
 8122TIP3   OH248560   2.732   5.222   9.646  0.7257 -0.4480  0.2041
 8122TIP3    H148561   2.747   5.316   9.654 -1.1901 -0.0006 -0.8604
 8122TIP3    H248562   2.683   5.199   9.725  2.3101 -0.8552  1.1091
 8123TIP3   OH248563   2.726   4.947   9.568  0.1607 -0.0617 -0.0095
 8123TIP3    H148564   2.723   5.042   9.559 -0.4451 -0.1364 -0.7212
 8123TIP3    H248565   2.677   4.928   9.648  0.7383  0.2590  0.4189
 8124TIP3   OH248566   5.379   0.278   9.540  0.0242 -0.3488 -0.3762
 8124TIP3    H148567   5.384   0.203   9.481 -1.3341 -0.1891 -0.7425
 8124TIP3    H248568   5.378   0.241   9.628 -1.2120 -0.8324 -0.5686
 8125TIP3   OH248569   6.512   1.221   1.340  0.7378  0.5388  0.4125
 8125TIP3    H148570   6.570   1.262   1.403  1.0738  0.8747 -0.1172
 8125TIP3    H248571   6.528   1.267   1.258 -1.3326  1.6624  0.5639
 8126TIP3   OH248572   5.923   4.085   8.286 -0.3328  0.4146  0.2231
 8126TIP3    H148573   5.915   4.025   8.211 -0.2336  0.8428 -0.1336
 8126TIP3    H248574   6.014   4.078   8.313 -0.5548 -0.3483  0.8245
 8127TIP3   OH248575   1.214   1.623   7.601 -0.1985 -0.0174  0.4012
 8127TIP3    H148576   1.279   1.562   7.568 -1.0434 -0.7813  0.0962
 8127TIP3    H248577   1.138   1.569   7.622 -1.7364  1.1048 -1.8371
 8128TIP3   OH248578   5.359   7.027   0.725 -0.4464 -0.1849 -0.0612
 8128TIP3    H148579   5.278   7.003   0.770  0.1573 -1.0123  0.6220
 8128TIP3    H248580   5.414   7.066   0.792  0.3985 -1.2725 -0.0803
 8129TIP3   OH248581   2.291   3.112   1.678 -0.1761 -0.0478  0.5009
 8129TIP3    H148582   2.328   3.037   1.632 -0.4142 -0.3400  0.7835
 8129TIP3    H248583   2.330   3.188   1.635  0.5775 -0.3418  0.6422
 8130TIP3   OH248584   5.963   4.641   2.618 -0.5346  0.6743  0.0473
 8130TIP3    H148585   5.873   4.607   2.617 -0.6249  0.8908 -1.7702
 8130TIP3    H248586   5.986   4.645   2.711 -0.8893 -3.3955  0.5064
 8131TIP3   OH248587   6.046   5.002   8.422  0.3501 -0.0677 -0.3186
 8131TIP3    H148588   6.028   5.061   8.349  0.3069  0.0539 -0.2084
 8131TIP3    H248589   6.045   4.915   8.383  2.7577  0.1320 -0.9492
 8132TIP3   OH248590   6.826   0.855   6.795  0.0266  0.1906 -0.1998
 8132TIP3    H148591   6.884   0.899   6.733  0.8279 -0.6375 -0.0520
 8132TIP3    H248592   6.790   0.926   6.849  2.1475  0.5944  0.7716
 8133TIP3   OH248593   0.787   5.319   0.172 -0.1202  0.0389 -0.2591
 8133TIP3    H148594   0.815   5.257   0.239 -0.5560 -0.1713 -0.2692
 8133TIP3    H248595   0.844   5.302   0.097 -1.2565 -1.4497 -0.8391
 8134TIP3   OH248596   5.288   6.456   8.218 -0.1425  0.2524  0.6185
 8134TIP3    H148597   5.316   6.510   8.144  0.6380  0.7755  1.2603
 8134TIP3    H248598   5.206   6.496   8.247 -1.0987 -0.6981 -0.6925
 8135TIP3   OH248599   5.018   6.928   1.267 -0.0749  0.2588 -0.5657
 8135TIP3    H148600   4.955   6.855   1.272  1.0664 -0.7557 -0.4930
 8135TIP3    H248601   5.035   6.950   1.359 -2.9187  2.9354 -0.5210
 8136TIP3   OH248602   5.470   1.366   7.090  0.4072 -0.3756 -0.5648
 8136TIP3    H148603   5.551   1.416   7.091  0.9220 -1.1346  1.3921
 8136TIP3    H248604   5.487   1.294   7.029  0.1551  0.9787 -2.3095
 8137TIP3   OH248605   7.094   1.510   9.792 -0.4547  0.2943 -0.4400
 8137TIP3    H148606   7.051   1.554   9.864  0.5079  1.9673 -0.8307
 8137TIP3    H248607   7.156   1.574   9.757  1.2039 -1.4394 -0.9102
 8138TIP3   OH248608   6.845   2.101   7.972  0.2175 -0.4725 -0.2834
 8138TIP3    H148609   6.916   2.042   7.999  1.0084  0.9979  1.0069
 8138TIP3    H248610   6.797   2.119   8.053 -0.2210  0.3799 -0.7177
 8139TIP3   OH248611   5.773   3.715   9.853 -0.0257 -0.3771  0.1765
 8139TIP3    H148612   5.775   3.621   9.840  1.5856 -0.0898 -2.1679
 8139TIP3    H248613   5.817   3.729   9.937 -0.4521 -1.6886  0.6353
 8140TIP3   OH248614   0.868   1.290   0.302 -0.4566 -0.1028 -0.2920
 8140TIP3    H148615   0.909   1.333   0.377 -1.5668  0.7470 -0.1443
 8140TIP3    H248616   0.780   1.326   0.299 -0.2632  0.3264 -2.3543
 8141TIP3   OH248617   1.146   1.625   8.470  0.8862 -0.0416 -0.0720
 8141TIP3    H148618   1.068   1.569   8.468 -0.1752  1.3954 -1.7486
 8141TIP3    H248619   1.220   1.564   8.460 -0.2090 -1.1907 -1.7050
 8142TIP3   OH248620   4.378   5.908   8.805  0.2388 -0.4546  0.3538
 8142TIP3    H148621   4.462   5.895   8.847  0.7377  1.0375 -0.1257
 8142TIP3    H248622   4.400   5.940   8.717 -0.8127  0.6307  0.4596
 8143TIP3   OH248623   2.678   4.836   8.250 -0.2042  0.0827  0.0236
 8143TIP3    H148624   2.751   4.857   8.308  0.9429 -0.5489 -1.1178
 8143TIP3    H248625   2.713   4.768   8.192 -1.2397  0.8056 -1.5058
 8144TIP3   OH248626   4.031   0.255   2.052 -1.0256 -0.2599 -0.5559
 8144TIP3    H148627   3.941   0.273   2.078 -0.4718  0.8654  0.7403
 8144TIP3    H248628   4.061   0.335   2.009  0.3033  0.7045  1.9146
 8145TIP3   OH248629   3.557   6.100   3.181  0.1944 -0.2254  0.0322
 8145TIP3    H148630   3.567   6.006   3.198 -2.3037 -0.5416  0.0665
 8145TIP3    H248631   3.529   6.137   3.265 -1.2496  0.1176 -0.5849
 8146TIP3   OH248632   1.399   7.021   8.400  0.1398 -0.5117 -0.7094
 8146TIP3    H148633   1.413   7.112   8.374 -0.7043 -0.2985 -0.4357
 8146TIP3    H248634   1.432   6.970   8.326  0.3606  0.0206 -0.9861
 8147TIP3   OH248635   1.953   4.455   2.131  0.1885 -0.2707  0.1884
 8147TIP3    H148636   2.013   4.412   2.070  0.7817  1.2887 -0.3807
 8147TIP3    H248637   1.872   4.465   2.082 -0.2871 -1.6086  0.6668
 8148TIP3   OH248638   3.479   4.521   0.174 -0.3438  0.4012  0.3276
 8148TIP3    H148639   3.440   4.433   0.171 -0.1866  0.3375 -2.0291
 8148TIP3    H248640   3.525   4.529   0.090 -1.1522  3.0854  0.0493
 8149TIP3   OH248641   3.113   0.303   7.218  0.1503 -0.2212  0.4427
 8149TIP3    H148642   3.103   0.324   7.125  0.2747  1.9333  0.8765
 8149TIP3    H248643   3.207   0.287   7.228  0.4096  1.1792  0.4721
 8150TIP3   OH248644   1.276   6.064   1.257  0.3204 -0.1693 -0.2082
 8150TIP3    H148645   1.306   6.105   1.338  0.5047  0.0995 -0.4141
 8150TIP3    H248646   1.354   6.023   1.220  0.0846 -0.9384  0.1316
 8151TIP3   OH248647   2.219   5.491   2.647 -0.3552  0.2545 -0.4956
 8151TIP3    H148648   2.280   5.526   2.582  0.0154 -1.0168 -0.8583
 8151TIP3    H248649   2.134   5.525   2.621 -0.0328  0.7487 -0.9253
 8152TIP3   OH248650   6.738   6.602   0.276  0.3906  0.0675  0.0639
 8152TIP3    H148651   6.823   6.620   0.315  0.2506  0.3261  0.2500
 8152TIP3    H248652   6.734   6.661   0.200 -0.9241  2.4183  1.8281
 8153TIP3   OH248653   0.629   1.205   1.119 -0.2537  0.3669  0.1272
 8153TIP3    H148654   0.695   1.259   1.075  0.4231  0.1172  0.8089
 8153TIP3    H248655   0.612   1.250   1.202  0.2468 -0.4061  0.6602
 8154TIP3   OH248656   0.816   2.504   8.783 -0.4544  0.2385 -0.1208
 8154TIP3    H148657   0.835   2.555   8.862 -0.1729 -0.0539 -0.0009
 8154TIP3    H248658   0.860   2.420   8.797  0.6250  0.6107 -1.1063
 8155TIP3   OH248659   2.018   6.508   0.017 -0.0125 -0.2610  0.2340
 8155TIP3    H148660   1.969   6.562   0.078 -3.2820 -2.0848 -0.5457
 8155TIP3    H248661   2.039   6.428   0.067  1.8946  0.2819  0.4024
 8156TIP3   OH248662   0.530   5.768   8.389  0.3538  0.0596 -0.2929
 8156TIP3    H148663   0.462   5.832   8.368  1.2074  1.4756  1.0890
 8156TIP3    H248664   0.562   5.794   8.475  2.6507 -0.5630 -0.9092
 8157TIP3   OH248665   2.773   3.685   8.787  0.3305  0.1156 -0.2825
 8157TIP3    H148666   2.732   3.649   8.708  2.4368  0.7264 -1.7511
 8157TIP3    H248667   2.849   3.628   8.803  1.5533  1.6279 -0.4351
 8158TIP3   OH248668   6.733   4.225   2.798  0.3801  0.3470 -0.3200
 8158TIP3    H148669   6.699   4.177   2.874  1.6509  1.6826  1.1699
 8158TIP3    H248670   6.682   4.306   2.796 -0.4610 -0.1863 -1.6637
 8159TIP3   OH248671   7.277   2.130   3.260 -0.2355 -0.0291  0.1377
 8159TIP3    H148672   7.345   2.197   3.254 -0.9534  0.8261  1.1684
 8159TIP3    H248673   7.208   2.160   3.201 -0.2203 -0.2633  0.0026
 8160TIP3   OH248674   7.221   6.357   1.770 -0.4234  0.5556  0.0534
 8160TIP3    H148675   7.223   6.432   1.830  0.7182 -0.3245  1.1795
 8160TIP3    H248676   7.306   6.360   1.726 -0.6878  0.3605 -0.4797
 8161TIP3   OH248677   1.137   6.073   9.109  0.6906  0.3299  0.3267
 8161TIP3    H148678   1.222   6.041   9.140 -0.3553 -3.3201 -0.0950
 8161TIP3    H248679   1.156   6.110   9.022  2.1515  2.0599  1.2940
 8162TIP3   OH248680   4.453   6.105   7.847  0.0698 -0.2329  0.4426
 8162TIP3    H148681   4.486   6.184   7.804 -1.0431  1.2112  2.1089
 8162TIP3    H248682   4.360   6.103   7.825  0.2810 -1.7331 -0.4665
 8163TIP3   OH248683   0.199   1.047   0.176 -0.5393 -0.3689 -0.3853
 8163TIP3    H148684   0.158   1.011   0.255 -0.9847  0.2301 -0.3341
 8163TIP3    H248685   0.244   1.125   0.207 -3.2695  1.6665 -1.1608
 8164TIP3   OH248686   4.273   5.650   8.353  0.3257 -0.2219  0.0380
 8164TIP3    H148687   4.280   5.633   8.259  1.0158  1.3397 -0.2335
 8164TIP3    H248688   4.179   5.652   8.370  0.1825  0.0448 -0.7391
 8165TIP3   OH248689   1.996   1.072   8.385  0.2083 -0.0130  0.2069
 8165TIP3    H148690   1.951   1.043   8.464  0.4735 -2.0163 -0.3321
 8165TIP3    H248691   1.956   1.156   8.364 -1.2915 -0.4165  1.3073
 8166TIP3   OH248692   1.855   4.260   8.313 -0.4502 -0.1250 -0.0621
 8166TIP3    H148693   1.908   4.212   8.249  1.0285  2.6232 -1.0497
 8166TIP3    H248694   1.918   4.293   8.377 -1.1977  1.4356 -0.0787
 8167TIP3   OH248695   1.463   4.788   2.073  0.3135 -0.0807 -0.2158
 8167TIP3    H148696   1.545   4.768   2.117  0.8607 -0.5277 -1.3866
 8167TIP3    H248697   1.453   4.883   2.081  0.0140 -0.2204  1.4638
 8168TIP3   OH248698   6.531   3.150   0.423 -0.2962 -0.1860  0.4261
 8168TIP3    H148699   6.577   3.109   0.496 -1.3817 -0.5236  0.9392
 8168TIP3    H248700   6.465   3.205   0.464 -0.4615  0.1666 -0.3000
 8169TIP3   OH248701   5.450   2.710   0.075  0.1092 -0.3341 -0.1193
 8169TIP3    H148702   5.515   2.728   0.007 -0.2193 -2.5574 -1.0840
 8169TIP3    H248703   5.410   2.627   0.050 -1.5355 -0.1668  1.6723
 8170TIP3   OH248704   0.585   4.919   7.830 -0.0910 -0.0505  0.0301
 8170TIP3    H148705   0.602   4.879   7.744  1.1216 -1.8995  1.0589
 8170TIP3    H248706   0.611   5.010   7.819 -0.7446 -0.0245 -1.7729
 8171TIP3   OH248707   4.919   2.055   8.821  0.9038  0.2580  0.5756
 8171TIP3    H148708   4.909   2.131   8.878  0.0229  0.1509  0.5786
 8171TIP3    H248709   5.012   2.035   8.823  0.6958 -0.9849  3.6143
 8172TIP3   OH248710   6.213   1.091   0.661 -0.4041  0.1330  0.5167
 8172TIP3    H148711   6.233   1.174   0.619  0.9854 -0.4397  0.0069
 8172TIP3    H248712   6.249   1.099   0.749 -3.0747  1.2277  1.6442
 8173TIP3   OH248713   4.156   6.458   9.434 -0.2914  0.1254 -0.3929
 8173TIP3    H148714   4.150   6.411   9.350  1.3079  0.0160 -0.4693
 8173TIP3    H248715   4.249   6.461   9.453 -0.5970  0.6274  1.1372
 8174TIP3   OH248716   2.407   1.610   8.696 -0.2049  0.2053  0.2953
 8174TIP3    H148717   2.319   1.578   8.716  0.0605  0.6481  2.4847
 8174TIP3    H248718   2.397   1.662   8.617 -1.7935 -0.2678  0.1539
 8175TIP3   OH248719   4.885   2.497   2.678 -0.2707 -0.5048 -0.0278
 8175TIP3    H148720   4.956   2.542   2.633  0.7618 -1.2660  0.7943
 8175TIP3    H248721   4.893   2.524   2.769 -1.3068 -0.2688  0.0063
 8176TIP3   OH248722   6.156   6.096   9.983 -0.5806 -0.0496  0.0946
 8176TIP3    H148723   6.138   6.133  10.070 -1.6248  3.7123 -1.5059
 8176TIP3    H248724   6.243   6.056   9.992 -0.2323  1.0396  2.6637
 8177TIP3   OH248725   6.383   5.294   1.040  0.5278 -0.7627  0.2895
 8177TIP3    H148726   6.406   5.387   1.044  0.7997 -0.8696  2.1015
 8177TIP3    H248727   6.316   5.289   0.971  0.6118  0.7388  0.0557
 8178TIP3   OH248728   1.390   3.352   1.301 -0.3880 -0.2297 -0.0485
 8178TIP3    H148729   1.324   3.348   1.232 -0.1341 -0.1944 -0.2954
 8178TIP3    H248730   1.347   3.315   1.378 -0.3597 -1.1772 -0.4778
 8179TIP3   OH248731   2.370   1.390   0.460  0.9963  0.8280 -0.4279
 8179TIP3    H148732   2.325   1.425   0.383 -0.4502 -0.3240 -0.1622
 8179TIP3    H248733   2.353   1.454   0.529  0.1584  0.6539 -0.4604
 8180TIP3   OH248734   6.051   6.672   8.532  0.2755 -0.6288  1.0509
 8180TIP3    H148735   5.979   6.726   8.499  1.9445  1.3832  0.4782
 8180TIP3    H248736   6.008   6.607   8.588 -1.9324  0.8335  1.1961
 8181TIP3   OH248737   0.236   5.357   9.836  0.2161  0.5838 -0.0885
 8181TIP3    H148738   0.312   5.305   9.810 -0.8280 -1.5592  0.9420
 8181TIP3    H248739   0.172   5.293   9.868 -2.0641  2.2976 -0.9323
 8182TIP3   OH248740   4.592   0.795   9.182  0.3012 -0.1990  0.4707
 8182TIP3    H148741   4.523   0.767   9.242  0.2996 -0.0663  0.5317
 8182TIP3    H248742   4.659   0.727   9.189  0.5466  0.0928  1.0354
 8183TIP3   OH248743   6.772   0.940   7.723 -0.0138 -0.2154 -0.2905
 8183TIP3    H148744   6.814   0.976   7.801 -0.8609  1.4308 -0.5522
 8183TIP3    H248745   6.784   0.845   7.731  0.0020 -0.0885  1.7914
 8184TIP3   OH248746   3.824   3.856   1.003  0.4407  0.4317  0.1575
 8184TIP3    H148747   3.759   3.788   0.983  1.1826  0.2898 -2.0311
 8184TIP3    H248748   3.775   3.922   1.053 -0.7273 -0.8711  0.7891
 8185TIP3   OH248749   2.908   5.914   8.455 -0.4090  0.6248 -0.1241
 8185TIP3    H148750   2.833   5.973   8.452 -0.8940  0.1438  1.2704
 8185TIP3    H248751   2.910   5.883   8.546  0.9292 -0.0866 -0.3642
 8186TIP3   OH248752   4.655   1.918   9.140 -0.3153 -0.2879 -0.1132
 8186TIP3    H148753   4.736   1.869   9.154  0.1834  0.6058  0.1876
 8186TIP3    H248754   4.654   1.938   9.047  0.4000  0.6776  0.0678
 8187TIP3   OH248755   3.337   5.254   7.586 -0.2763 -0.7790 -0.5167
 8187TIP3    H148756   3.264   5.279   7.530 -1.9919 -0.2754  1.8066
 8187TIP3    H248757   3.351   5.161   7.567 -1.0184 -0.7060 -1.4977
 8188TIP3   OH248758   4.063   1.317   8.714  0.2117 -0.4990  0.4378
 8188TIP3    H148759   4.157   1.325   8.730  0.0597  0.2014  1.0403
 8188TIP3    H248760   4.056   1.260   8.638  1.1322 -0.4588  0.3167
 8189TIP3   OH248761   2.267   1.176   8.399  0.3710  0.3230  0.0730
 8189TIP3    H148762   2.182   1.133   8.392 -0.1694  1.6163 -3.5061
 8189TIP3    H248763   2.331   1.107   8.381 -0.2727  0.2105 -2.0245
 8190TIP3   OH248764   1.684   6.732   1.965  0.2085 -0.1153  0.5376
 8190TIP3    H148765   1.748   6.759   2.031  1.5040 -3.1296  0.7044
 8190TIP3    H248766   1.614   6.690   2.014 -1.0911  1.5414  0.2101
 8191TIP3   OH248767   0.355   1.661   0.652  0.5837 -0.3754  0.4133
 8191TIP3    H148768   0.440   1.673   0.609  0.9037 -0.6084  0.9704
 8191TIP3    H248769   0.292   1.703   0.593  1.1923  0.5860  0.4384
 8192TIP3   OH248770   0.712   5.818   7.374  0.0812 -0.0211  0.3706
 8192TIP3    H148771   0.787   5.840   7.429  0.6647  2.1825 -1.1592
 8192TIP3    H248772   0.659   5.898   7.373 -1.0896 -0.7797 -0.4318
 8193TIP3   OH248773   0.629   5.585   7.998  0.2176 -0.4982 -0.0015
 8193TIP3    H148774   0.612   5.675   7.970  0.6372 -0.6609 -0.8336
 8193TIP3    H248775   0.648   5.539   7.916 -0.2687 -1.4038  0.3948
 8194TIP3   OH248776   1.414   5.762   1.760 -0.1154 -0.5131  0.3177
 8194TIP3    H148777   1.390   5.700   1.828 -0.3374 -0.2804  0.4524
 8194TIP3    H248778   1.449   5.707   1.689 -0.5575 -0.8166  0.3258
 8195TIP3   OH248779   4.458   4.974   8.290  0.2118  0.3396 -0.1705
 8195TIP3    H148780   4.429   4.991   8.200 -0.8603  0.8324  0.2527
 8195TIP3    H248781   4.388   5.010   8.345  0.0070 -1.5324  0.8571
 8196TIP3   OH248782   3.964   2.320   0.533  0.7906 -0.6269  0.4974
 8196TIP3    H148783   4.019   2.270   0.473 -1.2616 -1.9455 -0.4120
 8196TIP3    H248784   4.004   2.407   0.536 -0.1357  0.2389 -4.5605
 8197TIP3   OH248785   3.890   4.005   0.749 -0.0356  0.0967 -0.1773
 8197TIP3    H148786   3.969   4.054   0.771 -0.8682  0.7513  1.5335
 8197TIP3    H248787   3.862   3.966   0.831 -0.4937 -1.6707 -1.1171
 8198TIP3   OH248788   4.004   3.154   1.553 -0.3820 -0.1442  0.3203
 8198TIP3    H148789   4.095   3.138   1.526 -0.4830  0.7564 -0.6305
 8198TIP3    H248790   3.980   3.235   1.508 -1.1072  0.5714  1.9135
 8199TIP3   OH248791   1.313   6.567   1.928 -0.0091  0.4381 -0.1258
 8199TIP3    H148792   1.371   6.498   1.894 -0.8957  0.5453 -2.0054
 8199TIP3    H248793   1.232   6.556   1.878 -0.4325  2.3737  0.0629
 8200TIP3   OH248794   2.570   6.493   0.299 -0.1066  0.1234  0.2253
 8200TIP3    H148795   2.497   6.541   0.261 -1.8691 -1.3953  1.4815
 8200TIP3    H248796   2.568   6.515   0.392 -0.5895 -1.7943  0.7316
 8201TIP3   OH248797   0.646   0.713   9.013 -0.4286  0.0880  0.0290
 8201TIP3    H148798   0.691   0.705   8.929 -1.0897  1.5244 -0.5026
 8201TIP3    H248799   0.564   0.757   8.992 -0.9883 -0.2944  1.3179
 8202TIP3   OH248800   5.992   2.048   0.210  0.6612  0.0275  0.2146
 8202TIP3    H148801   6.025   1.986   0.146 -1.8420 -1.2047 -0.0089
 8202TIP3    H248802   6.042   2.128   0.195  1.6147 -0.8944 -1.7980
 8203TIP3   OH248803   7.022   5.387   7.509 -0.5656 -0.6608  0.1256
 8203TIP3    H148804   7.032   5.315   7.447  1.8866 -0.8693  0.6735
 8203TIP3    H248805   6.985   5.345   7.587  0.2300 -1.2129  0.2188
 8204TIP3   OH248806   2.899   1.683   9.010  0.3972  0.5514  0.1819
 8204TIP3    H148807   2.982   1.729   8.998  0.4840  0.4352  0.3374
 8204TIP3    H248808   2.869   1.664   8.921 -0.5979  2.6026  0.0143
 8205TIP3   OH248809   3.532   5.328   1.437  0.3884 -0.3853  0.1773
 8205TIP3    H148810   3.483   5.255   1.399 -1.7779 -0.3540  2.6290
 8205TIP3    H248811   3.506   5.404   1.384 -1.4828 -0.5556  0.7758
 8206TIP3   OH248812   0.167   4.833   8.425 -0.0088  0.1658 -0.2608
 8206TIP3    H148813   0.093   4.795   8.377 -0.1681  0.3974 -0.1970
 8206TIP3    H248814   0.169   4.924   8.398 -0.7978  0.5846  1.0324
 8207TIP3   OH248815   3.698   2.161   2.348 -0.2656 -0.7729 -0.0269
 8207TIP3    H148816   3.725   2.074   2.318  1.2466 -0.8089  1.2900
 8207TIP3    H248817   3.681   2.150   2.441  0.9997  0.5454  0.3898
 8208TIP3   OH248818   4.959   6.794   8.777 -0.2703 -0.7713 -0.5483
 8208TIP3    H148819   4.898   6.763   8.709  0.0805 -0.0257 -1.2289
 8208TIP3    H248820   5.020   6.722   8.790 -0.7082 -1.1555 -0.5725
 8209TIP3   OH248821   6.048   2.732   7.117  0.3409  0.1709  0.2062
 8209TIP3    H148822   6.050   2.758   7.025 -1.3034 -3.4276 -1.0256
 8209TIP3    H248823   6.111   2.661   7.124 -1.2080 -1.1916  1.2132
 8210TIP3   OH248824   3.217   4.019   0.587 -0.4636  0.3292 -0.2164
 8210TIP3    H148825   3.222   4.044   0.495  0.3461  1.4295  0.1087
 8210TIP3    H248826   3.280   3.948   0.597  0.5311  1.1917 -0.2190
 8211TIP3   OH248827   7.145   5.728   8.760  0.2670  0.2233 -0.2836
 8211TIP3    H148828   7.153   5.771   8.675 -1.4724 -1.1439 -1.1961
 8211TIP3    H248829   7.051   5.715   8.772  0.2133  2.4436  2.9674
 8212TIP3   OH248830   5.608   4.751   7.492  0.3216  0.2505  0.0358
 8212TIP3    H148831   5.654   4.790   7.417  1.4318 -0.4329  0.3313
 8212TIP3    H248832   5.520   4.733   7.459  1.2640 -1.6709 -1.7029
 8213TIP3   OH248833   6.633   7.246   1.431 -0.0598 -0.2252 -0.4997
 8213TIP3    H148834   6.691   7.311   1.471 -0.1695 -0.2516 -0.2922
 8213TIP3    H248835   6.576   7.219   1.503 -0.3639 -0.1611 -0.7153
 8214TIP3   OH248836   1.339   2.155   1.306  0.9733  0.4236  0.4960
 8214TIP3    H148837   1.377   2.135   1.221  1.1346 -1.8827  1.0575
 8214TIP3    H248838   1.331   2.250   1.306  1.0056  0.5016 -2.0612
 8215TIP3   OH248839   3.728   0.069   8.162 -0.0198 -0.1498 -0.3651
 8215TIP3    H148840   3.738  -0.007   8.220  0.8529 -0.5994 -1.0667
 8215TIP3    H248841   3.658   0.044   8.102  1.2082 -1.0230 -1.4919
 8216TIP3   OH248842   5.824   5.303   2.693 -0.8668  0.1011  0.1293
 8216TIP3    H148843   5.758   5.338   2.753  0.0201  0.2122  1.0792
 8216TIP3    H248844   5.908   5.323   2.736 -0.2747 -2.0654  0.0902
 8217TIP3   OH248845   6.054   5.197   0.386 -0.1060  0.2148 -0.1400
 8217TIP3    H148846   5.969   5.173   0.349 -0.2887 -1.4021  1.2114
 8217TIP3    H248847   6.057   5.154   0.471  2.1895 -0.0649 -0.2744
 8218TIP3   OH248848   4.159   4.696   8.912 -0.2302 -0.2167 -0.0343
 8218TIP3    H148849   4.091   4.642   8.872  0.7973 -0.4094 -1.6280
 8218TIP3    H248850   4.113   4.751   8.975 -1.2920 -3.1233  1.9307
 8219TIP3   OH248851   2.019   3.127   2.168 -0.0821 -0.1536  0.4084
 8219TIP3    H148852   2.057   3.097   2.250 -0.2701 -0.6549  0.3187
 8219TIP3    H248853   2.095   3.146   2.112  0.0534 -1.5461  0.0877
 8220TIP3   OH248854   0.864   5.129   7.688 -0.1399 -0.0791 -0.4013
 8220TIP3    H148855   0.775   5.142   7.720  0.3372  1.9604  0.2084
 8220TIP3    H248856   0.889   5.043   7.723 -1.7542 -0.5805 -0.3807
 8221TIP3   OH248857   4.012   0.354   1.106 -0.6293  0.1508  0.4219
 8221TIP3    H148858   3.993   0.446   1.091  0.0426  0.4034  1.0782
 8221TIP3    H248859   4.105   0.344   1.086 -1.0097 -0.7033 -1.0641
 8222TIP3   OH248860   3.721   4.097   9.392 -0.5535 -0.3358  0.3346
 8222TIP3    H148861   3.769   4.022   9.428 -0.2232  1.0525  3.0636
 8222TIP3    H248862   3.668   4.060   9.322  0.5584 -2.8724  0.7114
 8223TIP3   OH248863   0.334   1.166   0.471 -0.2170 -0.3666 -0.0013
 8223TIP3    H148864   0.399   1.102   0.501 -0.7528 -0.7576  0.3482
 8223TIP3    H248865   0.319   1.222   0.547 -0.6357 -0.5724  0.0700
 8224TIP3   OH248866   4.170   4.726   1.722  0.2642  0.0256 -0.1053
 8224TIP3    H148867   4.203   4.730   1.812 -1.7459  0.2755  0.6829
 8224TIP3    H248868   4.218   4.793   1.675  0.2500  0.9765  1.2035
 8225TIP3   OH248869   0.926   6.292   8.015 -0.0395  0.0616  0.5436
 8225TIP3    H148870   0.853   6.268   8.073 -1.0074  0.0519 -0.6248
 8225TIP3    H248871   0.967   6.367   8.057 -1.6007  0.9435  0.5541
 8226TIP3   OH248872   7.205   1.924   2.115 -0.0340  0.5409  0.2520
 8226TIP3    H148873   7.163   2.007   2.139  1.2817  0.8160  1.7571
 8226TIP3    H248874   7.267   1.947   2.046 -0.2283  0.6554  0.1131
 8227TIP3   OH248875   1.179   2.359   7.044  0.3923  0.1887 -0.7184
 8227TIP3    H148876   1.118   2.433   7.051  0.0714  0.2146 -2.8940
 8227TIP3    H248877   1.125   2.286   7.016  0.5239 -1.2463  2.4512
 8228TIP3   OH248878   6.840   0.401   8.203  0.4219  0.1027 -0.3218
 8228TIP3    H148879   6.893   0.322   8.214  1.6222  0.3441 -3.5140
 8228TIP3    H248880   6.760   0.383   8.253  0.8162 -2.9508 -0.5900
 8229TIP3   OH248881   6.585   4.808   0.246  0.3419 -0.5890 -0.4531
 8229TIP3    H148882   6.591   4.893   0.201  2.1617  0.5322  1.6876
 8229TIP3    H248883   6.648   4.752   0.200 -0.4602 -0.6352 -1.5266
 8230TIP3   OH248884   6.470   5.648   1.773  0.0185 -0.1054 -0.1892
 8230TIP3    H148885   6.419   5.729   1.780  0.2482  0.1469 -1.3153
 8230TIP3    H248886   6.449   5.613   1.687  0.1591 -1.0935  0.1689
 8231TIP3   OH248887   2.650   2.574   8.639  0.1542  0.1195 -0.6462
 8231TIP3    H148888   2.575   2.515   8.644 -0.9121  1.1244 -3.0062
 8231TIP3    H248889   2.643   2.628   8.718  0.0964 -1.6429  0.6140
 8232TIP3   OH248890   1.604   5.538   9.111  0.1808 -0.0779  0.1701
 8232TIP3    H148891   1.644   5.469   9.058  1.5081  0.6345  0.2012
 8232TIP3    H248892   1.635   5.521   9.199  0.7780  0.7396  0.1224
 8233TIP3   OH248893   0.718   2.547   1.410  0.4456 -0.2152  0.1347
 8233TIP3    H148894   0.644   2.602   1.437  0.9011 -0.1813  1.3693
 8233TIP3    H248895   0.783   2.610   1.378  0.9424 -0.0221  1.4872
 8234TIP3   OH248896   5.546   5.878   8.648  0.4218 -0.3496  0.1654
 8234TIP3    H148897   5.579   5.823   8.718  0.2062 -1.2100 -0.3979
 8234TIP3    H248898   5.451   5.868   8.652  0.3651  0.1642  0.2027
 8235TIP3   OH248899   1.718   5.818   7.636 -0.5646 -0.0073 -0.0813
 8235TIP3    H148900   1.679   5.737   7.604 -2.2151  0.0684  1.5603
 8235TIP3    H248901   1.808   5.816   7.603 -1.2677 -1.3006 -2.1220
 8236TIP3   OH248902   4.289   4.527   8.636 -0.0610  0.1658 -0.0257
 8236TIP3    H148903   4.296   4.472   8.714  1.9376 -0.1387 -0.3770
 8236TIP3    H248904   4.379   4.554   8.617 -0.5879  0.7915 -1.8368
 8237TIP3   OH248905   5.811   6.061   7.856 -0.3529  0.5220  0.2892
 8237TIP3    H148906   5.737   6.113   7.822 -0.6677 -1.3760 -2.2917
 8237TIP3    H248907   5.779   6.023   7.937 -1.8038  0.7276 -0.1569
 8238TIP3   OH248908   3.392   6.831   8.243 -0.3958  0.4758  0.3591
 8238TIP3    H148909   3.479   6.872   8.250  0.8513 -1.9326  0.1982
 8238TIP3    H248910   3.409   6.738   8.260 -3.2430  0.1606  2.0605
 8239TIP3   OH248911   6.128   3.812   0.171  0.2593  0.3192 -0.2309
 8239TIP3    H148912   6.187   3.737   0.180 -2.1524 -1.5572  1.2666
 8239TIP3    H248913   6.130   3.854   0.257  1.1151  1.7248 -0.8779
 8240TIP3   OH248914   2.426   5.603   2.500  0.2422  0.1439  0.4423
 8240TIP3    H148915   2.387   5.684   2.532 -2.6453 -0.9353 -0.0127
 8240TIP3    H248916   2.414   5.606   2.405 -1.0082 -1.2799  0.5178
 8241TIP3   OH248917   2.275   4.926   0.473 -0.1147 -0.0488 -0.0203
 8241TIP3    H148918   2.237   4.946   0.388 -0.7199 -0.9156  0.0324
 8241TIP3    H248919   2.294   4.832   0.469  0.9926  0.1397  0.3630
 8242TIP3   OH248920   6.919   1.452   8.400  0.0320 -0.1051  0.0417
 8242TIP3    H148921   6.866   1.407   8.335  0.5599 -1.3903  0.4542
 8242TIP3    H248922   7.008   1.420   8.384  0.2819  0.1227  0.9264
 8243TIP3   OH248923   6.410   4.838   7.208 -0.6038 -0.0298  0.1248
 8243TIP3    H148924   6.503   4.858   7.221 -0.9792  1.2623  0.9674
 8243TIP3    H248925   6.370   4.921   7.182 -1.4211 -0.7212 -0.9143
 8244TIP3   OH248926   5.042   1.472   7.953  0.5239 -0.2440 -0.1057
 8244TIP3    H148927   5.105   1.486   7.882  0.9078  0.7470  0.4122
 8244TIP3    H248928   4.969   1.530   7.932  1.2019  1.0471  0.9569
 8245TIP3   OH248929   1.870   1.026   0.949  0.2438  0.0279 -0.4535
 8245TIP3    H148930   1.863   0.982   1.034 -0.6943  2.0692  0.6038
 8245TIP3    H248931   1.956   1.068   0.951  0.1501  0.2187 -0.4370
 8246TIP3   OH248932   6.601   4.473   0.588  0.2040  0.6165  0.0092
 8246TIP3    H148933   6.522   4.502   0.633  0.5475  1.3295  0.1765
 8246TIP3    H248934   6.594   4.378   0.585 -0.2483  0.6186  0.7813
 8247TIP3   OH248935   2.591   6.965   0.810  0.3550  0.1846 -0.1688
 8247TIP3    H148936   2.656   6.919   0.863  0.8896 -0.4461 -1.3306
 8247TIP3    H248937   2.615   7.057   0.818  2.3109 -0.1199 -1.6612
 8248TIP3   OH248938   2.270   0.539   1.669 -0.3855 -0.1538  0.2778
 8248TIP3    H148939   2.355   0.540   1.714 -0.8743  2.1788  1.2970
 8248TIP3    H248940   2.271   0.459   1.617  1.4248 -1.4808  2.2043
 8249TIP3   OH248941   1.820   1.276   8.212 -0.4042  0.2207  0.1870
 8249TIP3    H148942   1.902   1.325   8.217 -0.6025  0.7862 -1.4234
 8249TIP3    H248943   1.757   1.337   8.174 -1.6105 -0.1885  1.4498
 8250TIP3   OH248944   3.916   7.098   9.390  0.9243  0.1963  0.1728
 8250TIP3    H148945   3.836   7.111   9.339  0.4589  1.0905  1.1021
 8250TIP3    H248946   3.963   7.181   9.384  2.1018 -0.4971 -0.8402
 8251TIP3   OH248947   7.103   3.730   3.038 -0.5335 -0.1822  0.5336
 8251TIP3    H148948   7.031   3.676   3.007 -0.5345  1.2869 -2.3665
 8251TIP3    H248949   7.063   3.795   3.095 -1.0567 -0.8892  0.9972
 8252TIP3   OH248950   2.114   1.998   2.057 -0.1613  0.1072  0.0783
 8252TIP3    H148951   2.151   1.926   2.005 -0.6544 -0.6435  0.7530
 8252TIP3    H248952   2.020   1.989   2.046 -0.2046  1.3085 -0.6888
 8253TIP3   OH248953   3.327   0.279   0.716 -0.1711 -0.1992 -0.3256
 8253TIP3    H148954   3.315   0.265   0.622  3.0846 -0.8757 -0.7830
 8253TIP3    H248955   3.314   0.193   0.755  1.2512 -0.5818 -0.6126
 8254TIP3   OH248956   2.220   2.618   2.545 -0.2082 -0.6855 -0.1486
 8254TIP3    H148957   2.268   2.658   2.473 -0.1262 -3.0121 -1.4907
 8254TIP3    H248958   2.287   2.574   2.597 -0.4033 -0.0448  0.6578
 8255TIP3   OH248959   1.114   3.544   1.315 -0.0795 -0.0291  0.4568
 8255TIP3    H148960   1.188   3.598   1.286 -0.4056  0.0479 -0.2521
 8255TIP3    H248961   1.105   3.476   1.248 -0.9823  0.2788  0.2464
 8256TIP3   OH248962   1.152   0.411   0.242  0.1991 -0.3643  1.1168
 8256TIP3    H148963   1.119   0.457   0.319  0.0418 -1.3015  1.6206
 8256TIP3    H248964   1.216   0.349   0.277 -2.1363 -3.0636  0.9127
 8257TIP3   OH248965   1.228   5.975   2.437  0.6799  0.1637  1.0049
 8257TIP3    H148966   1.248   6.046   2.498 -0.5740  1.3783  0.0740
 8257TIP3    H248967   1.272   6.001   2.355 -1.3520  0.9189  0.0856
 8258TIP3   OH248968   2.908   0.086   1.615  0.5619  0.1704 -0.1421
 8258TIP3    H148969   2.995   0.119   1.591  1.7361 -2.3373  0.2375
 8258TIP3    H248970   2.897   0.112   1.706  1.1802  0.0824 -0.0351
 8259TIP3   OH248971   1.297   3.966   6.989 -0.0829 -0.5415 -0.0912
 8259TIP3    H148972   1.336   3.962   7.077 -0.7317  0.9116  0.2865
 8259TIP3    H248973   1.242   4.044   6.991 -1.3275 -1.3598 -1.3055
 8260TIP3   OH248974   5.739   3.741   9.573 -0.2201  0.2550 -0.4566
 8260TIP3    H148975   5.747   3.755   9.667 -0.1672  0.3844 -0.4803
 8260TIP3    H248976   5.829   3.727   9.543 -0.0759  1.6018 -0.7036
 8261TIP3   OH248977   2.349   6.940   9.037  0.2378  0.7802 -0.8984
 8261TIP3    H148978   2.291   6.972   8.968 -0.0507  0.4923 -0.7967
 8261TIP3    H248979   2.331   6.997   9.112 -1.1647 -0.3434 -0.3319
 8262TIP3   OH248980   3.896   1.527   8.699 -0.1408  0.3328  0.3771
 8262TIP3    H148981   3.940   1.442   8.700 -0.0844  0.3677  0.7607
 8262TIP3    H248982   3.874   1.544   8.790  2.0446  1.8759  0.6811
 8263TIP3   OH248983   5.331   0.583   7.971  0.3264 -0.4026  0.1679
 8263TIP3    H148984   5.421   0.563   7.947 -0.2740 -1.4574 -1.3764
 8263TIP3    H248985   5.287   0.498   7.975 -0.9423  0.1791 -0.5982
 8264TIP3   OH248986   3.256   1.743   1.512  0.0133  0.2059 -0.0535
 8264TIP3    H148987   3.346   1.713   1.521  0.1017  0.1413 -1.0342
 8264TIP3    H248988   3.206   1.663   1.496  0.3712  0.5285 -3.5853
 8265TIP3   OH248989   1.491   0.460   7.073  0.1133 -0.0262 -0.1747
 8265TIP3    H148990   1.510   0.370   7.101  1.0916  0.2062 -0.0701
 8265TIP3    H248991   1.531   0.468   6.987 -1.5274 -0.2325 -1.0063
 8266TIP3   OH248992   0.148   6.098   9.092 -0.8298  0.4524 -0.2151
 8266TIP3    H148993   0.213   6.034   9.121  0.7077  1.7961 -0.5746
 8266TIP3    H248994   0.080   6.045   9.050 -0.3683 -1.0540  0.8395
 8267TIP3   OH248995   6.025   4.521   8.861 -0.2827 -0.0057 -0.2241
 8267TIP3    H148996   6.080   4.468   8.919 -1.0572 -0.0600  0.4856
 8267TIP3    H248997   5.965   4.458   8.821 -0.0275  0.0929 -0.7739
 8268TIP3   OH248998   0.004   1.250   0.229 -0.1811  0.0261  0.1844
 8268TIP3    H148999  -0.086   1.232   0.256 -1.0641 -0.2999 -2.6430
 8268TIP3    H249000   0.035   1.167   0.193  0.5117  0.6459 -0.6913
 8269TIP3   OH249001   2.940   2.741   8.299  0.0365 -0.9038 -0.2287
 8269TIP3    H149002   3.019   2.793   8.315  0.2970 -1.1197 -0.7821
 8269TIP3    H249003   2.971   2.650   8.300 -0.0060 -0.9570 -1.4318
 8270TIP3   OH249004   5.625   2.273   1.091 -0.2890 -0.2548 -0.0838
 8270TIP3    H149005   5.608   2.344   1.152 -0.7290  0.3209 -0.8633
 8270TIP3    H249006   5.695   2.305   1.034  0.7372 -1.1204  0.6353
 8271TIP3   OH249007   6.445   4.505   1.811  0.1081 -0.0060  0.7603
 8271TIP3    H149008   6.513   4.566   1.783  0.8300 -0.2234  2.0091
 8271TIP3    H249009   6.489   4.421   1.817 -0.9778 -0.8147 -1.4046
 8272TIP3   OH249010   2.785   6.387   2.293  0.0920  0.4047 -0.1709
 8272TIP3    H149011   2.849   6.399   2.222  0.4387  1.5453  0.3041
 8272TIP3    H249012   2.800   6.462   2.351  0.6318 -1.1122  1.7477
 8273TIP3   OH249013   6.024   5.174   7.134  0.1565  0.4250  0.2530
 8273TIP3    H149014   5.944   5.225   7.121  0.4257  0.4808 -1.5277
 8273TIP3    H249015   6.093   5.239   7.148  0.2898  0.5222 -0.7658
 8274TIP3   OH249016   6.935   6.834   8.719 -0.8612 -0.3283 -0.2023
 8274TIP3    H149017   6.947   6.895   8.647 -0.5441 -0.8579 -0.6096
 8274TIP3    H249018   6.959   6.749   8.682 -0.4195 -0.5619  0.6112
 8275TIP3   OH249019   0.535   3.453   8.275  0.1064  0.1738 -0.2133
 8275TIP3    H149020   0.500   3.368   8.249  0.7631 -0.9562  2.2805
 8275TIP3    H249021   0.605   3.432   8.337  1.8310  2.4933 -1.2241
 8276TIP3   OH249022   1.450   1.139   8.118 -0.8409 -0.2818 -0.0538
 8276TIP3    H149023   1.535   1.097   8.135  0.2331  1.4015 -0.9259
 8276TIP3    H249024   1.409   1.143   8.204 -0.1680 -1.3925  0.3458
 8277TIP3   OH249025   3.727   4.155   9.068  0.5701 -0.0409 -0.0393
 8277TIP3    H149026   3.786   4.079   9.069  0.5763 -0.2379 -3.2391
 8277TIP3    H249027   3.639   4.117   9.073  0.6075 -0.0290  0.8954
 8278TIP3   OH249028   6.785   0.487   0.969  0.2568  0.2224 -0.1980
 8278TIP3    H149029   6.829   0.402   0.961  0.5956  0.4064 -0.3032
 8278TIP3    H249030   6.840   0.547   0.919  0.0859  0.5295 -0.0198
 8279TIP3   OH249031   2.810   6.762   9.852  0.0617 -0.0823 -0.1989
 8279TIP3    H149032   2.783   6.711   9.929  0.9193 -0.3158 -0.0403
 8279TIP3    H249033   2.740   6.826   9.840 -0.7627 -0.9315 -0.0576
 8280TIP3   OH249034   0.427   1.834   7.842 -0.4724 -0.4658  0.0380
 8280TIP3    H149035   0.339   1.822   7.807  0.4097 -0.0000 -2.5549
 8280TIP3    H249036   0.479   1.763   7.804  0.4654 -0.2327  0.8301
 8281TIP3   OH249037   4.574   4.285   1.281  0.3035  1.0235  0.1079
 8281TIP3    H149038   4.568   4.239   1.365  0.3561 -1.4733 -1.1810
 8281TIP3    H249039   4.644   4.349   1.294  0.4239  0.5877  1.8997
 8282TIP3   OH249040   1.388   6.076   0.376  0.1756  0.2638 -0.0294
 8282TIP3    H149041   1.344   6.067   0.292 -0.5395  0.6563  0.2919
 8282TIP3    H249042   1.401   5.985   0.405  0.1747  0.1317 -0.4345
 8283TIP3   OH249043   3.246   2.699   8.223  0.3505  0.3699  0.3199
 8283TIP3    H149044   3.208   2.763   8.163  1.8964  2.5721  1.5382
 8283TIP3    H249045   3.299   2.642   8.168 -1.7079 -0.4919 -0.9026
 8284TIP3   OH249046   3.793   5.698   7.885  0.3627  0.0798 -0.1872
 8284TIP3    H149047   3.845   5.778   7.878  2.1956 -0.9747  0.6010
 8284TIP3    H249048   3.709   5.721   7.845  1.2569  2.0070 -1.1354
 8285TIP3   OH249049   6.879   4.634   7.940  0.3514  0.0288 -0.0375
 8285TIP3    H149050   6.800   4.617   7.889  0.5701 -0.1273 -0.3284
 8285TIP3    H249051   6.878   4.728   7.955  0.1081  0.0275 -0.0374
 8286TIP3   OH249052   4.584   0.279   1.375  0.5260  0.0918  0.8641
 8286TIP3    H149053   4.663   0.321   1.339 -0.2889  1.6105  0.7695
 8286TIP3    H249054   4.524   0.274   1.301  1.1066 -2.7145  0.4820
 8287TIP3   OH249055   4.850   6.714   1.336  0.0588  0.1093 -0.2373
 8287TIP3    H149056   4.874   6.641   1.279  1.1855  0.5600 -0.3782
 8287TIP3    H249057   4.821   6.672   1.417  0.3426 -0.4987 -0.4397
 8288TIP3   OH249058   4.388   5.600   1.684 -0.2678  0.1028 -0.3578
 8288TIP3    H149059   4.398   5.589   1.589 -1.2328  1.4682 -0.6600
 8288TIP3    H249060   4.426   5.685   1.702 -0.5248  0.0628  0.3954
 8289TIP3   OH249061   1.230   6.314   9.898  0.0805 -0.3313  0.1022
 8289TIP3    H149062   1.210   6.323   9.991 -1.8019  0.2762 -0.3238
 8289TIP3    H249063   1.145   6.313   9.854  0.8999 -1.1050 -1.5881
 8290TIP3   OH249064   1.663   3.950   9.970 -0.2189 -0.5169  0.5302
 8290TIP3    H149065   1.744   3.989   9.937 -0.7976  1.2611  1.0615
 8290TIP3    H249066   1.659   3.864   9.929  0.3854  0.5557 -2.0434
 8291TIP3   OH249067   2.713   2.569   1.646  0.0591  0.3134  0.0580
 8291TIP3    H149068   2.693   2.628   1.719 -0.0975 -0.2662  0.4921
 8291TIP3    H249069   2.761   2.623   1.584 -0.2611  0.9535  0.3546
 8292TIP3   OH249070   1.442   4.263   2.189 -0.2469 -0.2642 -0.3170
 8292TIP3    H149071   1.446   4.225   2.277  0.3399 -1.0364 -0.6624
 8292TIP3    H249072   1.503   4.210   2.138 -0.4154  0.3223 -1.1367
 8293TIP3   OH249073   4.382   4.221   0.114 -0.0571  0.4079 -0.0678
 8293TIP3    H149074   4.416   4.232   0.025 -0.6676 -1.6115 -0.5873
 8293TIP3    H249075   4.334   4.138   0.112  1.8615 -0.9226  2.7563
 8294TIP3   OH249076   3.435   3.623   0.467  0.2301  0.0373  0.0702
 8294TIP3    H149077   3.508   3.590   0.416  0.7698  1.4799 -0.1544
 8294TIP3    H249078   3.360   3.570   0.440  0.3071  1.2526 -2.9092
 8295TIP3   OH249079   1.361   0.245   0.304 -0.5674 -0.6312 -0.3508
 8295TIP3    H149080   1.442   0.229   0.353 -1.5800  0.5917  1.8887
 8295TIP3    H249081   1.315   0.162   0.307 -1.1958 -0.2801  2.0726
 8296TIP3   OH249082   1.416   5.158   7.193  0.3047 -0.1456  0.2871
 8296TIP3    H149083   1.440   5.163   7.285 -1.2580  0.5095  0.6809
 8296TIP3    H249084   1.373   5.072   7.184 -1.0651  0.4873  0.5732
 8297TIP3   OH249085   2.894   2.810   0.080 -0.3001 -0.8959 -0.3819
 8297TIP3    H149086   2.967   2.788   0.138  1.2411  0.7608 -1.5861
 8297TIP3    H249087   2.815   2.793   0.132  0.9845 -0.5323  1.7752
 8298TIP3   OH249088   3.904   2.498   8.457  0.0459  0.0451 -0.1191
 8298TIP3    H149089   3.877   2.409   8.437  0.3909  0.2180 -1.4490
 8298TIP3    H249090   3.837   2.531   8.518 -0.2787 -0.9863  0.0915
 8299TIP3   OH249091   1.133   4.510   2.330  0.0553 -0.1607 -0.0403
 8299TIP3    H149092   1.046   4.546   2.347  0.4139  1.8574 -2.0018
 8299TIP3    H249093   1.119   4.445   2.261  0.1170  0.3411 -0.5311
 8300TIP3   OH249094   2.891   5.697   7.803  0.4154 -0.1976  0.6911
 8300TIP3    H149095   2.939   5.660   7.877 -0.5457 -1.9552  0.4808
 8300TIP3    H249096   2.943   5.672   7.726 -0.8761 -2.3423  0.4388
 8301TIP3   OH249097   3.316   5.198   7.952  0.0093 -0.0518 -0.4190
 8301TIP3    H149098   3.244   5.138   7.934  0.1268  0.0210 -1.1587
 8301TIP3    H249099   3.385   5.172   7.891  0.1348  0.7035 -0.6081
 8302TIP3   OH249100   0.383   5.245   2.401  0.7420  0.4172  0.1910
 8302TIP3    H149101   0.324   5.318   2.382  0.5338  0.2076  0.0271
 8302TIP3    H249102   0.450   5.251   2.334  1.3412  1.1177  0.8354
 8303TIP3   OH249103   7.118   3.577   0.151 -0.3804 -0.1504  0.5666
 8303TIP3    H149104   7.209   3.548   0.148  0.1136  1.3571 -0.5135
 8303TIP3    H249105   7.070   3.513   0.098  0.0938 -0.7832  0.8935
 8304TIP3   OH249106   4.532   5.224   9.686  0.1508 -0.4192 -0.8688
 8304TIP3    H149107   4.444   5.206   9.717  0.1728 -1.4115 -1.3534
 8304TIP3    H249108   4.560   5.143   9.644  1.0044  0.1259 -1.3895
 8305TIP3   OH249109   2.949   4.522   2.030 -0.5782  0.2261  0.2437
 8305TIP3    H149110   2.885   4.574   2.079 -0.2210 -0.1970  1.1881
 8305TIP3    H249111   3.003   4.481   2.098 -1.1532 -1.7944 -0.4522
 8306TIP3   OH249112   1.224   2.220   9.050 -0.0030 -0.5060  0.4925
 8306TIP3    H149113   1.210   2.181   8.963 -0.1589  1.0080 -0.1906
 8306TIP3    H249114   1.309   2.264   9.043 -0.6297  0.7562  0.6728
 8307TIP3   OH249115   2.172   7.212   9.598 -0.3921 -0.3145  0.0925
 8307TIP3    H149116   2.120   7.160   9.659 -0.6567 -0.5280 -0.3120
 8307TIP3    H249117   2.253   7.162   9.586  0.0188  0.1293  0.9008
 8308TIP3   OH249118   6.616   6.957   9.879 -0.3372 -0.2847 -0.0672
 8308TIP3    H149119   6.687   6.934   9.819  1.6356  1.3112  1.4889
 8308TIP3    H249120   6.614   6.886   9.942  0.9590  0.3555  0.7365
 8309TIP3   OH249121   5.454   5.295   1.138 -0.2152 -0.4014 -0.0842
 8309TIP3    H149122   5.432   5.376   1.184 -0.1559 -0.3419 -0.1604
 8309TIP3    H249123   5.372   5.246   1.137  0.1270 -1.0790  1.4343
 8310TIP3   OH249124   6.994   1.118   0.893 -0.2587  0.0145  0.6329
 8310TIP3    H149125   6.998   1.160   0.979  0.4060 -1.1144  1.1750
 8310TIP3    H249126   7.085   1.101   0.871 -0.4299  0.2936 -0.3059
 8311TIP3   OH249127   1.062   5.971   1.492  0.4416  0.0143 -0.2925
 8311TIP3    H149128   1.116   5.907   1.538 -1.0450 -0.7206  0.4943
 8311TIP3    H249129   1.030   5.924   1.415 -1.1041 -0.4191  0.5770
 8312TIP3   OH249130   0.446   0.536   7.160  0.0426 -0.0401 -0.2140
 8312TIP3    H149131   0.428   0.447   7.129  0.5279 -0.0351 -0.5203
 8312TIP3    H249132   0.372   0.557   7.216 -0.7275 -0.1570 -1.1596
 8313TIP3   OH249133   2.532   1.536   0.943  0.1708  0.5549  0.1944
 8313TIP3    H149134   2.511   1.629   0.933 -3.5187  0.1761  2.5089
 8313TIP3    H249135   2.602   1.534   1.007  2.6358  1.7205 -2.2652
 8314TIP3   OH249136   3.882   3.148   9.693 -0.1553  0.6038  0.1549
 8314TIP3    H149137   3.956   3.140   9.753  2.1989 -0.3859 -2.6144
 8314TIP3    H249138   3.830   3.069   9.708  0.1135  0.6051  1.1835
 8315TIP3   OH249139   3.179   2.546   0.093 -0.2333  0.2056 -0.4052
 8315TIP3    H149140   3.241   2.520   0.161 -1.1020 -0.5373  0.1147
 8315TIP3    H249141   3.156   2.637   0.114 -0.8203 -0.1572  0.5395
 8316TIP3   OH249142   6.050   3.762   9.441 -0.1906 -0.1326  0.3170
 8316TIP3    H149143   6.088   3.817   9.372 -0.8121  2.0982  1.6306
 8316TIP3    H249144   6.117   3.760   9.509 -0.5387 -0.2297  0.6575
 8317TIP3   OH249145   6.351   3.772   7.760 -0.0791  0.3906  0.2762
 8317TIP3    H149146   6.310   3.719   7.691  0.4323  1.5135 -0.9285
 8317TIP3    H249147   6.352   3.861   7.724 -1.0850  1.2891  2.3241
 8318TIP3   OH249148   5.550   3.763   2.384 -0.1838  0.2113  0.5030
 8318TIP3    H149149   5.577   3.855   2.387 -2.1655  0.8481  0.0689
 8318TIP3    H249150   5.481   3.755   2.449 -1.3928 -0.4713 -0.8011
 8319TIP3   OH249151   1.118   1.580   7.068 -0.1324  0.5493  0.0028
 8319TIP3    H149152   1.202   1.538   7.048 -0.0809  0.2101  0.9092
 8319TIP3    H249153   1.056   1.507   7.072 -0.4956  0.8055 -0.7301
 8320TIP3   OH249154   1.906   1.824   8.813 -0.1232 -0.3407 -0.4105
 8320TIP3    H149155   1.905   1.800   8.906 -0.0993 -0.6179 -0.4822
 8320TIP3    H249156   1.874   1.747   8.768  1.0182 -0.6452 -0.7322
 8321TIP3   OH249157   1.274   1.429   9.913  0.1301  0.2665  0.2388
 8321TIP3    H149158   1.248   1.398  10.000 -1.4062  1.3465  0.2091
 8321TIP3    H249159   1.214   1.386   9.852  0.0921  0.8058 -0.1140
 8322TIP3   OH249160   4.745   3.983   8.299 -0.2739  0.0189 -0.5127
 8322TIP3    H149161   4.787   3.968   8.384 -1.1522 -0.8320 -0.2133
 8322TIP3    H249162   4.654   4.000   8.320 -0.5878 -0.6176 -1.3060
 8323TIP3   OH249163   3.349   2.860   9.887  0.2858  0.2018  0.4512
 8323TIP3    H149164   3.393   2.783   9.924  1.5721  1.4964  1.7655
 8323TIP3    H249165   3.256   2.843   9.900  0.5902 -0.6348  1.8081
 8324TIP3   OH249166   6.333   2.027   9.282  0.0528  0.0446  0.1152
 8324TIP3    H149167   6.285   2.103   9.249  2.1961  2.0469  1.3250
 8324TIP3    H249168   6.327   2.035   9.377  0.1813 -1.4506  0.2749
 8325TIP3   OH249169   1.526   2.157   8.120 -0.1662  0.1371  0.2308
 8325TIP3    H149170   1.451   2.099   8.133  0.4314 -0.2688  2.1446
 8325TIP3    H249171   1.489   2.235   8.077 -0.8723 -1.8366 -3.1221
 8326TIP3   OH249172   0.330   4.661   2.403 -0.2595  0.3430 -0.0635
 8326TIP3    H149173   0.288   4.579   2.429 -0.1962  0.3373  0.0179
 8326TIP3    H249174   0.257   4.722   2.392 -0.3812  0.0549 -0.9430
 8327TIP3   OH249175   0.904   4.327   1.097  0.3999 -0.1468  0.6746
 8327TIP3    H149176   0.839   4.320   1.027 -0.5179  0.8095  1.4012
 8327TIP3    H249177   0.879   4.406   1.145  1.9921  0.1350  1.0913
 8328TIP3   OH249178   5.196   7.259   1.397  0.5954  0.2832  0.3030
 8328TIP3    H149179   5.232   7.203   1.328  0.2399  1.1445 -0.6196
 8328TIP3    H249180   5.170   7.339   1.351 -2.7000 -0.3358  0.8343
 8329TIP3   OH249181   0.749   1.020   7.830 -0.4682 -0.1192  0.7894
 8329TIP3    H149182   0.807   1.084   7.870  0.4288 -0.5219  0.1635
 8329TIP3    H249183   0.661   1.046   7.858 -0.2040  1.7924 -0.0004
 8330TIP3   OH249184   6.372   6.784   9.641 -0.4214  0.6318 -0.1442
 8330TIP3    H149185   6.392   6.707   9.587 -2.1470  1.9543 -2.8566
 8330TIP3    H249186   6.412   6.857   9.595 -2.5863  1.9262 -0.0981
 8331TIP3   OH249187   1.087   7.088   9.898 -0.2683 -0.0126  0.2546
 8331TIP3    H149188   1.046   7.014   9.853 -0.2126  0.7870 -1.1861
 8331TIP3    H249189   1.175   7.094   9.859 -0.4893  1.1663 -0.1132
 8332TIP3   OH249190   6.743   2.662   7.310 -0.0574  0.3377 -0.2974
 8332TIP3    H149191   6.700   2.743   7.283  0.2006  0.8041  0.6346
 8332TIP3    H249192   6.673   2.597   7.313 -0.2316  0.4828 -1.2303
 8333TIP3   OH249193   5.887   3.375   8.344  0.2355  0.8335 -0.3602
 8333TIP3    H149194   5.831   3.391   8.420  0.4471 -0.8427  0.2025
 8333TIP3    H249195   5.828   3.339   8.278  0.2583  1.2157 -0.5939
 8334TIP3   OH249196   2.401   0.839   0.259 -0.5234 -0.0394 -0.1071
 8334TIP3    H149197   2.367   0.821   0.172  0.8787 -0.8516 -0.5254
 8334TIP3    H249198   2.452   0.920   0.249 -0.6440  0.0545  0.0354
 8335TIP3   OH249199   5.537   1.504   1.538  0.2877  0.3072 -0.1541
 8335TIP3    H149200   5.547   1.583   1.592 -2.2399  0.5207  0.1360
 8335TIP3    H249201   5.545   1.432   1.601 -2.5404  0.5532  0.6016
 8336TIP3   OH249202   5.830   4.196   0.608 -0.7648 -0.5833 -0.1912
 8336TIP3    H149203   5.756   4.256   0.621  0.4346  1.1653 -1.1495
 8336TIP3    H249204   5.802   4.138   0.537 -1.3695 -0.1897 -0.2793
 8337TIP3   OH249205   6.779   3.337   0.522  0.0346  0.0213 -0.2480
 8337TIP3    H149206   6.809   3.246   0.526 -1.5536 -0.5234 -0.2275
 8337TIP3    H249207   6.827   3.374   0.447  1.6729 -0.4296  0.5310
 8338TIP3   OH249208   6.494   0.063   9.349 -0.5263  0.4683 -0.3257
 8338TIP3    H149209   6.493  -0.014   9.292  2.4439 -0.0128  0.1149
 8338TIP3    H249210   6.549   0.126   9.302 -0.2906  1.1001  0.7709
 8339TIP3   OH249211   5.595   1.210   9.412 -0.1198  0.5971 -0.6411
 8339TIP3    H149212   5.571   1.298   9.383  0.7652  0.9591 -0.3209
 8339TIP3    H249213   5.529   1.188   9.478 -0.8093  0.6864 -1.2808
 8340TIP3   OH249214   2.350   1.623   1.220  0.2712  0.0356  0.2839
 8340TIP3    H149215   2.315   1.666   1.297 -1.9994 -1.8361  0.3939
 8340TIP3    H249216   2.445   1.623   1.233  0.1249  2.0378  1.7679
 8341TIP3   OH249217   0.846   1.232   1.431  0.0522  0.1775  0.1220
 8341TIP3    H149218   0.828   1.283   1.510  1.3749 -0.2723  0.7413
 8341TIP3    H249219   0.793   1.153   1.441  0.4280 -0.0069  0.7047
 8342TIP3   OH249220   4.462   2.691   1.148 -0.1116  0.5541  0.1450
 8342TIP3    H149221   4.509   2.611   1.173 -0.0915  0.1472 -1.0860
 8342TIP3    H249222   4.526   2.761   1.157  0.1282  0.3035  0.3988
 8343TIP3   OH249223   2.644   3.025   7.996  0.4311 -0.4276 -0.3511
 8343TIP3    H149224   2.549   3.015   8.007  0.3445  1.0509  0.4204
 8343TIP3    H249225   2.659   3.001   7.904 -0.9117  0.7156 -0.9063
 8344TIP3   OH249226   4.100   1.873   9.096  0.0379  0.4283 -0.7448
 8344TIP3    H149227   4.005   1.886   9.097 -0.1266 -0.7190  0.1673
 8344TIP3    H249228   4.112   1.784   9.062  0.7990  0.6552 -1.0840
 8345TIP3   OH249229   4.769   3.475   1.813  0.8952  0.7811 -0.3089
 8345TIP3    H149230   4.697   3.538   1.825  0.0002 -0.6642  2.9082
 8345TIP3    H249231   4.830   3.495   1.884  0.9349 -1.5007  0.3535
 8346TIP3   OH249232   1.555   1.883   1.085  0.6907 -0.1531 -0.0278
 8346TIP3    H149233   1.470   1.920   1.064  0.7229 -0.4554 -0.7228
 8346TIP3    H249234   1.618   1.943   1.046  0.7472 -0.7965 -0.9599
 8347TIP3   OH249235   7.154   4.794   1.420  0.2226  0.5297  0.0724
 8347TIP3    H149236   7.224   4.731   1.403 -0.0985  0.0246  0.6118
 8347TIP3    H249237   7.200   4.875   1.445  0.6141  0.0640  0.9069
 8348TIP3   OH249238   2.471   2.041   2.926 -0.0448  0.1504 -0.1043
 8348TIP3    H149239   2.422   1.976   2.976  2.1734 -1.0732  0.6006
 8348TIP3    H249240   2.421   2.052   2.845  0.3361 -3.8193 -1.0881
 8349TIP3   OH249241   4.508   1.185   1.172  0.1391  0.1909 -0.4103
 8349TIP3    H149242   4.552   1.263   1.206 -1.2063 -0.4025  3.1368
 8349TIP3    H249243   4.435   1.220   1.119  0.7551  1.2728 -0.5734
 8350TIP3   OH249244   4.754   0.967   0.008 -0.2302  0.2561  0.3557
 8350TIP3    H149245   4.723   0.923   0.088 -0.1339  0.5902  0.5790
 8350TIP3    H249246   4.845   0.938  -0.001 -0.3763 -0.1314  0.1200
 8351TIP3   OH249247   5.903   2.528   0.646 -0.5177  0.3043  0.1818
 8351TIP3    H149248   5.846   2.468   0.599 -0.3347 -1.0131  1.5465
 8351TIP3    H249249   5.846   2.572   0.708 -0.4364  0.6560  0.0108
 8352TIP3   OH249250   1.970   2.158   7.294  0.1651  0.3496  0.3565
 8352TIP3    H149251   1.899   2.220   7.278 -1.1535 -0.7888  1.5542
 8352TIP3    H249252   2.041   2.211   7.331 -0.6208  1.2685  0.5711
 8353TIP3   OH249253   6.014   4.533   0.776 -0.5984 -0.5779 -0.2378
 8353TIP3    H149254   6.081   4.558   0.712  0.5078  0.1873  1.1690
 8353TIP3    H249255   5.991   4.614   0.820 -2.0689 -0.9311 -0.3062
 8354TIP3   OH249256   5.551   2.014   2.191 -0.0219 -0.2382  0.0060
 8354TIP3    H149257   5.522   2.012   2.282 -3.0552 -0.8933 -0.8793
 8354TIP3    H249258   5.495   2.079   2.149  0.9155 -0.3846 -1.5593
 8355TIP3   OH249259   6.886   4.692   9.338  0.2793  0.2672  0.1618
 8355TIP3    H149260   6.904   4.741   9.258  0.7396  0.6274  0.4842
 8355TIP3    H249261   6.794   4.709   9.356  0.2090  0.2951 -0.2202
 8356TIP3   OH249262   3.114   1.470   9.681  0.3432  0.4879 -0.1253
 8356TIP3    H149263   3.101   1.403   9.748  0.9325 -0.0510 -0.5472
 8356TIP3    H249264   3.035   1.525   9.686  0.1583  0.1593  0.6658
 8357TIP3   OH249265   4.250   6.579   9.963  0.4729 -0.3980  0.2781
 8357TIP3    H149266   4.160   6.561   9.936 -0.1494  3.2462 -0.5320
 8357TIP3    H249267   4.303   6.547   9.891 -0.5846  1.4760 -1.4317
 8358TIP3   OH249268   0.404   2.252   9.231  0.0321  0.8248  0.0785
 8358TIP3    H149269   0.418   2.220   9.320 -0.1802  1.1551  0.2343
 8358TIP3    H249270   0.473   2.317   9.217  0.5672  0.1885 -0.2997
 8359TIP3   OH249271   4.783   6.904   2.357 -0.1365  0.4443 -0.2130
 8359TIP3    H149272   4.729   6.905   2.436 -1.4086 -1.6767 -0.9495
 8359TIP3    H249273   4.724   6.872   2.288  1.3048  0.8794 -1.7148
 8360TIP3   OH249274   1.431   6.401   9.445 -0.1311 -0.1425 -0.2006
 8360TIP3    H149275   1.486   6.405   9.524  1.2294  0.1645 -1.1141
 8360TIP3    H249276   1.438   6.311   9.416  3.0223  0.6183 -2.3414
 8361TIP3   OH249277   1.340   2.425   1.690 -0.2618 -0.5385 -0.3156
 8361TIP3    H149278   1.246   2.429   1.674 -0.2807 -0.4312 -0.1867
 8361TIP3    H249279   1.348   2.423   1.786 -0.0557  2.6647 -0.1350
 8362TIP3   OH249280   5.163   0.166   1.179  0.1431 -0.3742  0.4509
 8362TIP3    H149281   5.123   0.207   1.102 -0.9617 -0.0026  1.2031
 8362TIP3    H249282   5.233   0.227   1.205 -0.6020  0.3690  0.7529
 8363TIP3   OH249283   1.695   4.898   0.226  0.2052  1.0580  0.1826
 8363TIP3    H149284   1.790   4.895   0.229  0.3295  2.1793 -1.5465
 8363TIP3    H249285   1.672   4.863   0.140 -1.1164 -1.4097  1.4267
 8364TIP3   OH249286   2.179   1.588   7.425 -0.0224 -0.3904 -0.4152
 8364TIP3    H149287   2.168   1.591   7.520  1.8729 -1.3446 -0.1073
 8364TIP3    H249288   2.128   1.511   7.398  0.0114 -0.5356 -0.0752
 8365TIP3   OH249289   4.252   3.914   8.532  0.4863  0.4716  0.2012
 8365TIP3    H149290   4.215   3.987   8.483  1.5390  0.9151  0.0386
 8365TIP3    H249291   4.176   3.870   8.571 -0.1249  2.0026  0.7977
 8366TIP3   OH249292   5.507   3.364   1.577 -0.8347 -0.2808  0.2518
 8366TIP3    H149293   5.497   3.459   1.578 -1.6735 -0.3501 -0.3793
 8366TIP3    H249294   5.587   3.348   1.626 -0.4715  0.7796  0.0331
 8367TIP3   OH249295   5.621   2.989   9.986  0.1396  0.1846  0.5284
 8367TIP3    H149296   5.661   2.914   9.941 -1.0323  0.4043 -0.9314
 8367TIP3    H249297   5.643   3.064   9.931 -0.8281  0.5406  0.6125
 8368TIP3   OH249298   6.254   3.111   0.141  0.2631  0.1163  0.2801
 8368TIP3    H149299   6.308   3.181   0.106 -0.9792  1.3588  0.7403
 8368TIP3    H249300   6.209   3.074   0.065 -0.8971  1.4634  0.2619
 8369TIP3   OH249301   1.666   5.865   9.964 -0.2562 -0.1297  0.2902
 8369TIP3    H149302   1.610   5.939   9.987  0.4492  0.5728 -0.1771
 8369TIP3    H249303   1.740   5.905   9.918 -0.4935 -1.2476 -1.1334
 8370TIP3   OH249304   0.827   3.254   0.942  0.2788  0.2691  0.0170
 8370TIP3    H149305   0.751   3.248   0.998  0.6946 -0.8293  0.5040
 8370TIP3    H249306   0.831   3.168   0.898  1.6500  0.0243  0.5769
 8371TIP3   OH249307   1.845   4.033   0.513  0.4496 -0.0909 -0.2667
 8371TIP3    H149308   1.823   4.108   0.568  2.6860  0.3040  0.2153
 8371TIP3    H249309   1.844   4.068   0.424 -3.5459 -0.8225 -0.6768
 8372TIP3   OH249310   7.264   3.661   1.885 -0.0028  0.0220  0.5831
 8372TIP3    H149311   7.292   3.750   1.906  1.2793 -0.0765 -0.5809
 8372TIP3    H249312   7.338   3.623   1.837 -2.1942 -0.1123 -3.1026
 8373TIP3   OH249313   2.007   0.408   2.183  0.6677  0.4121  0.4305
 8373TIP3    H149314   1.979   0.318   2.167  1.3151  0.4396 -0.9600
 8373TIP3    H249315   2.050   0.404   2.268 -1.9907  0.0528  1.8914
 8374TIP3   OH249316   3.258   6.881   0.862 -0.0370 -0.4924 -0.1535
 8374TIP3    H149317   3.279   6.944   0.931 -1.1546  0.5741 -0.7520
 8374TIP3    H249318   3.185   6.921   0.814  0.0667 -1.6567 -1.3436
 8375TIP3   OH249319   1.002   4.770   0.640 -0.3728 -0.3867 -0.5148
 8375TIP3    H149320   1.023   4.746   0.731 -0.3465  1.8900  0.1304
 8375TIP3    H249321   0.957   4.693   0.605  1.5973 -2.1960  0.6909
 8376TIP3   OH249322   1.439   1.123   9.143  0.2355 -0.1201 -0.1537
 8376TIP3    H149323   1.487   1.088   9.217 -1.0889 -0.0806  0.7493
 8376TIP3    H249324   1.463   1.066   9.069  0.6037 -0.9126  0.5657
 8377TIP3   OH249325   2.753   4.027   8.475 -0.1877 -0.0855 -0.4964
 8377TIP3    H149326   2.729   4.078   8.398  0.9958 -2.8133 -2.8478
 8377TIP3    H249327   2.669   4.000   8.513 -0.8009  0.3376 -1.5162
 8378TIP3   OH249328   3.780   4.890   8.325 -0.1298 -0.2204 -0.2882
 8378TIP3    H149329   3.824   4.896   8.410 -0.7993 -1.9055  0.2168
 8378TIP3    H249330   3.694   4.930   8.340 -0.7413 -1.6630  0.2255
 8379TIP3   OH249331   1.518   0.786   0.630  0.1675  0.1080 -0.5579
 8379TIP3    H149332   1.513   0.693   0.608  0.1737  0.4344 -2.0205
 8379TIP3    H249333   1.497   0.790   0.723 -1.1866 -1.2099 -0.7793
 8380TIP3   OH249334   4.234   0.225   7.009 -0.1952  0.7576  0.6402
 8380TIP3    H149335   4.324   0.241   7.036  0.0964  0.2374 -0.0098
 8380TIP3    H249336   4.233   0.241   6.915 -1.1121  2.1312  0.8527
 8381TIP3   OH249337   1.110   3.916   1.239  0.4307 -0.3387 -0.2759
 8381TIP3    H149338   1.049   3.931   1.167 -0.0534 -0.1441  0.1690
 8381TIP3    H249339   1.056   3.921   1.318  0.3276 -3.6372 -0.0045
 8382TIP3   OH249340   3.814   1.937   6.852 -0.3050 -0.5733  0.1133
 8382TIP3    H149341   3.852   1.850   6.843  2.7670  0.7642 -1.3329
 8382TIP3    H249342   3.847   1.969   6.936 -2.4711 -1.1724  1.2654
 8383TIP3   OH249343   5.763   2.354   8.548  0.3140  0.1912  0.5254
 8383TIP3    H149344   5.679   2.308   8.547  0.9687 -1.0860  0.6477
 8383TIP3    H249345   5.749   2.429   8.606 -0.7580  0.0454  0.4760
 8384TIP3   OH249346   6.434   5.620   8.398  0.0068  0.1371 -0.1976
 8384TIP3    H149347   6.398   5.702   8.364  1.8634  1.2623  0.3738
 8384TIP3    H249348   6.430   5.630   8.494  2.0188  0.4676 -0.1027
 8385TIP3   OH249349   2.584   2.805   1.844  0.7524  0.1581  0.3694
 8385TIP3    H149350   2.549   2.845   1.924 -2.0526 -2.7233  0.7831
 8385TIP3    H249351   2.554   2.862   1.773 -0.2806  0.5867  1.1204
 8386TIP3   OH249352   0.824   6.472   1.333 -0.2254  0.6581  0.1196
 8386TIP3    H149353   0.844   6.387   1.370 -3.9614 -0.4672 -0.0142
 8386TIP3    H249354   0.861   6.469   1.244  2.4007  0.5328  1.1244
 8387TIP3   OH249355   5.277   3.766   9.564 -0.0478  0.6345  0.3677
 8387TIP3    H149356   5.370   3.764   9.541 -0.5286 -0.2136 -1.6757
 8387TIP3    H249357   5.247   3.853   9.537 -0.1622  0.3757 -0.3507
 8388TIP3   OH249358   6.023   1.623   0.298 -0.0514 -0.1504  0.1179
 8388TIP3    H149359   5.977   1.617   0.215 -0.1931 -0.1462  0.1954
 8388TIP3    H249360   6.048   1.715   0.305 -1.9269  0.3424  1.0765
 8389TIP3   OH249361   0.079   3.194   9.859 -0.1939 -0.5604  0.1893
 8389TIP3    H149362   0.070   3.145   9.777 -0.1089 -0.4603  0.1197
 8389TIP3    H249363   0.171   3.222   9.861  0.1034 -1.5505  0.8797
 8390TIP3   OH249364   2.548   1.115   1.868  0.0129 -0.4813 -0.1603
 8390TIP3    H149365   2.586   1.047   1.923 -1.1157 -2.0477 -1.2385
 8390TIP3    H249366   2.505   1.068   1.797 -2.5028  1.2340  0.0909
 8391TIP3   OH249367   0.387   4.257   2.408  0.2524  0.0000 -0.1476
 8391TIP3    H149368   0.411   4.182   2.463 -2.1960 -0.7055  0.0877
 8391TIP3    H249369   0.337   4.218   2.336 -0.4835  1.3529 -0.3970
 8392TIP3   OH249370   5.451   5.957   1.500  1.0834  0.2123  0.5536
 8392TIP3    H149371   5.512   5.968   1.428  0.9024 -1.8791  0.0016
 8392TIP3    H249372   5.365   5.957   1.459  0.9106  0.1313  0.9094
 8393TIP3   OH249373   4.320   2.501   2.134 -0.9364  0.0639  0.4048
 8393TIP3    H149374   4.296   2.521   2.043  1.8466  1.8171 -0.0844
 8393TIP3    H249375   4.368   2.417   2.127  0.3864  0.8185 -0.0277
 8394TIP3   OH249376   6.140   2.209   7.256  0.6066 -0.3574  0.2377
 8394TIP3    H149377   6.236   2.207   7.247  0.5240 -1.1325 -0.6872
 8394TIP3    H249378   6.123   2.179   7.345  1.1810 -1.7815 -0.1028
 8395TIP3   OH249379   2.377   4.637   0.476 -0.3950  0.1632 -0.2077
 8395TIP3    H149380   2.372   4.619   0.570 -1.0632  1.4574  0.0286
 8395TIP3    H249381   2.330   4.565   0.435 -0.8935  0.0600  0.5158
 8396TIP3   OH249382   1.465   6.455   7.117 -0.0773 -0.2623 -0.3377
 8396TIP3    H149383   1.423   6.501   7.044  1.1094  1.0638 -0.2444
 8396TIP3    H249384   1.557   6.447   7.090  0.6293  1.2330  1.4151
 8397TIP3   OH249385   5.616   5.059   7.714  0.2880  0.1130  0.2159
 8397TIP3    H149386   5.545   5.071   7.777 -0.2372 -1.4893 -0.0247
 8397TIP3    H249387   5.600   4.972   7.677  0.0851  1.2968 -2.7506
 8398TIP3   OH249388   0.423   4.173   0.109 -0.2572  0.1586  0.0159
 8398TIP3    H149389   0.431   4.260   0.070  0.4744  0.8732  1.6402
 8398TIP3    H249390   0.361   4.126   0.053 -1.4748  2.0740 -0.3329
 8399TIP3   OH249391   6.314   6.358   7.646  0.1857  0.0910  0.1866
 8399TIP3    H149392   6.299   6.326   7.735  0.1271  1.5587  0.7272
 8399TIP3    H249393   6.261   6.438   7.640  1.6853  1.0870 -0.4936
 8400TIP3   OH249394   6.954   2.813   8.385 -0.4760  0.5136  0.0412
 8400TIP3    H149395   6.881   2.756   8.408 -2.4543  2.5419 -0.8965
 8400TIP3    H249396   7.002   2.825   8.467 -1.6037 -0.2626  0.8435
 8401TIP3   OH249397   0.886   4.573   1.769 -0.3255  0.3586  0.8354
 8401TIP3    H149398   0.818   4.621   1.722  0.1284  0.7732  0.5967
 8401TIP3    H249399   0.908   4.500   1.712 -1.0020 -0.1346  1.1885
 8402TIP3   OH249400   0.098   0.807   9.080  0.2161 -0.4024 -0.0866
 8402TIP3    H149401   0.027   0.862   9.113  0.7303 -0.0990  0.5400
 8402TIP3    H249402   0.092   0.726   9.131  2.5630  0.9893  2.7509
 8403TIP3   OH249403   6.088   3.616   7.620  0.3620  0.1133  0.3136
 8403TIP3    H149404   6.003   3.574   7.606 -0.7980  1.7687  1.9322
 8403TIP3    H249405   6.101   3.614   7.715  0.0958  3.4720  0.5531
 8404TIP3   OH249406   2.983   4.684   7.579 -0.5234  0.0709  0.0281
 8404TIP3    H149407   3.024   4.700   7.664  2.2657  2.0862 -1.5539
 8404TIP3    H249408   2.911   4.747   7.574 -1.4301 -0.8086  1.2463
 8405TIP3   OH249409   6.994   1.468   0.442 -0.1714  0.7389  0.1758
 8405TIP3    H149410   6.995   1.492   0.535  1.2689  2.9961 -0.3285
 8405TIP3    H249411   7.063   1.403   0.434  2.0004  2.8751  0.2628
 8406TIP3   OH249412   6.639   1.165   1.066 -0.0968 -0.0650  0.0197
 8406TIP3    H149413   6.635   1.214   0.984 -2.4845 -0.7374 -0.3509
 8406TIP3    H249414   6.654   1.074   1.040 -1.2290 -0.3391  0.2476
 8407TIP3   OH249415   5.655   5.735   9.603  1.5388  0.3163  0.0389
 8407TIP3    H149416   5.727   5.789   9.570  1.7983  0.5702  0.9904
 8407TIP3    H249417   5.602   5.796   9.654  0.2150  0.3056 -1.2478
 8408TIP3   OH249418   1.419   2.634   7.861 -0.9240  0.7291 -0.1376
 8408TIP3    H149419   1.324   2.625   7.853 -0.9568  1.7900 -1.2127
 8408TIP3    H249420   1.438   2.720   7.824  0.4266  0.6705  0.3727
 8409TIP3   OH249421   0.573   6.854   9.064  0.4885  0.2692  0.0314
 8409TIP3    H149422   0.613   6.770   9.086 -1.3927 -1.2481 -2.0042
 8409TIP3    H249423   0.580   6.861   8.969  0.3258  2.2983  0.1179
 8410TIP3   OH249424   1.962   6.983   9.098 -0.0044 -0.2462 -0.4562
 8410TIP3    H149425   2.027   6.938   9.150 -0.0604  1.0196  0.7784
 8410TIP3    H249426   1.909   7.031   9.162 -0.1593  1.2582 -1.6416
 8411TIP3   OH249427   5.518   3.618   1.581 -0.0154  0.6879 -0.1849
 8411TIP3    H149428   5.538   3.685   1.646  0.7253  1.3306 -1.0423
 8411TIP3    H249429   5.536   3.660   1.497 -0.4933 -0.2732 -0.7924
 8412TIP3   OH249430   5.289   0.313   8.378 -0.9660  0.8577 -0.3070
 8412TIP3    H149431   5.214   0.301   8.437 -0.6747  0.1030 -0.0843
 8412TIP3    H249432   5.320   0.401   8.396 -0.4784  0.4098  1.1486
 8413TIP3   OH249433   4.789   0.218   9.465 -0.5502  0.2362 -0.2668
 8413TIP3    H149434   4.802   0.166   9.386 -0.9587 -0.6258  0.2138
 8413TIP3    H249435   4.713   0.179   9.507 -0.2370  0.5697  0.6413
 8414TIP3   OH249436   6.099   1.887   0.927  0.1136  0.2390 -0.1493
 8414TIP3    H149437   6.061   1.835   0.997  1.5397  0.4623  0.8164
 8414TIP3    H249438   6.027   1.941   0.895 -1.1506 -1.5908 -0.5105
 8415TIP3   OH249439   4.768   1.338   7.483  0.7493 -0.6950  0.2463
 8415TIP3    H149440   4.796   1.393   7.556 -2.2430  1.2308  0.1306
 8415TIP3    H249441   4.688   1.295   7.515 -0.4234 -0.1018 -1.7180
 8416TIP3   OH249442   3.209   6.897   1.512  0.1865  0.2731  0.5919
 8416TIP3    H149443   3.194   6.883   1.419  1.8616  1.1825  0.1422
 8416TIP3    H249444   3.242   6.813   1.544  1.7198  0.5556 -0.1481
 8417TIP3   OH249445   1.766   4.434   9.182  0.1449  0.5714 -0.1168
 8417TIP3    H149446   1.764   4.492   9.106  0.4927  0.4321 -0.2377
 8417TIP3    H249447   1.692   4.461   9.236  0.0132  0.8016 -0.4111
 8418TIP3   OH249448   3.382   6.188   7.070  0.6346 -0.2395 -0.2177
 8418TIP3    H149449   3.446   6.165   7.137  0.6617 -1.5281 -0.6632
 8418TIP3    H249450   3.434   6.205   6.991  0.4606 -1.1364 -0.5408
 8419TIP3   OH249451   2.755   3.889   1.056 -0.4893  0.1827  0.2290
 8419TIP3    H149452   2.661   3.873   1.056 -0.5686  0.6149 -0.9325
 8419TIP3    H249453   2.794   3.802   1.069 -1.0237 -0.2241 -0.7825
 8420TIP3   OH249454   2.011   2.284   8.139 -0.2431  0.6923  0.1573
 8420TIP3    H149455   1.983   2.320   8.054 -0.6613 -1.8827 -0.8668
 8420TIP3    H249456   1.946   2.217   8.159  0.2348  0.7887  2.2330
 8421TIP3   OH249457   3.343   2.351   7.479 -0.0769  0.3925 -0.1285
 8421TIP3    H149458   3.332   2.369   7.386 -0.1013 -0.4332 -0.2943
 8421TIP3    H249459   3.389   2.267   7.482  1.3427  1.1554  0.5983
 8422TIP3   OH249460   5.731   0.758   1.331  0.1320  0.0386 -0.4220
 8422TIP3    H149461   5.694   0.817   1.266 -2.7488  0.0502  1.0493
 8422TIP3    H249462   5.762   0.816   1.401 -2.4042 -0.0197  0.8768
 8423TIP3   OH249463   0.838   5.628   1.853 -0.3425 -0.9692  0.1048
 8423TIP3    H149464   0.848   5.533   1.867  1.1470 -0.7711  0.6015
 8423TIP3    H249465   0.928   5.660   1.847 -0.8018  0.6078  1.2425
 8424TIP3   OH249466   3.996   4.039   8.770 -0.1997  0.9177 -0.0217
 8424TIP3    H149467   4.056   3.975   8.806 -0.4794 -0.3760 -1.7236
 8424TIP3    H249468   4.048   4.120   8.764 -0.0168  1.0886  2.6559
 8425TIP3   OH249469   6.478   3.634   7.988 -0.2100 -0.5329  0.5188
 8425TIP3    H149470   6.570   3.608   7.983 -0.6401 -2.1281  0.2750
 8425TIP3    H249471   6.455   3.657   7.898 -0.3633 -1.3889  0.3237
 8426TIP3   OH249472   4.394   3.835   7.964 -0.3619 -0.0379  0.2183
 8426TIP3    H149473   4.420   3.901   8.029 -1.9840 -0.8921  1.8254
 8426TIP3    H249474   4.476   3.803   7.927  0.5615  1.1377  1.1825
 8427TIP3   OH249475   4.485   0.595   8.684  0.6883  0.4773  0.4001
 8427TIP3    H149476   4.466   0.567   8.773 -1.1662 -0.7333 -0.3306
 8427TIP3    H249477   4.551   0.534   8.653 -0.4343 -0.6562  0.1649
 8428TIP3   OH249478   6.694   6.047   0.996 -0.4503  0.2488  0.0089
 8428TIP3    H149479   6.624   6.058   0.931  0.0064 -1.4146 -0.8302
 8428TIP3    H249480   6.677   5.961   1.034  1.3719 -0.4039 -0.5522
 8429TIP3   OH249481   5.542   4.056   9.515 -0.5935  0.0481 -0.1080
 8429TIP3    H149482   5.533   3.967   9.480 -0.4372 -0.2351  0.5496
 8429TIP3    H249483   5.594   4.045   9.594  0.1790  0.8505 -0.4943
 8430TIP3   OH249484   3.978   0.844   2.224  0.3622  0.0432  0.4229
 8430TIP3    H149485   3.934   0.785   2.284  0.3983  0.4166  0.8212
 8430TIP3    H249486   4.015   0.913   2.280 -0.6541  1.0594 -0.1241
 8431TIP3   OH249487   0.834   1.436   9.668  0.0962  0.1492  0.0369
 8431TIP3    H149488   0.837   1.530   9.687 -0.3536  0.0615  0.5646
 8431TIP3    H249489   0.743   1.419   9.646 -0.0525 -0.3552  1.0051
 8432TIP3   OH249490   0.785   7.279   8.664 -0.0014  0.0880 -0.7270
 8432TIP3    H149491   0.828   7.212   8.611 -0.9883  0.0644 -1.5143
 8432TIP3    H249492   0.776   7.355   8.606 -1.2838 -0.0063 -0.6755
 8433TIP3   OH249493   6.870   1.738   8.972  0.2093  0.1884  0.0551
 8433TIP3    H149494   6.788   1.731   9.021  0.3721  1.0051  0.4566
 8433TIP3    H249495   6.851   1.800   8.901 -0.2150 -1.4588 -1.3510
 8434TIP3   OH249496   4.807   0.266   7.364 -0.3218  0.0561  0.2710
 8434TIP3    H149497   4.825   0.357   7.384  3.8286 -1.1272  3.3680
 8434TIP3    H249498   4.762   0.233   7.442  0.8740 -1.0842  0.5177
 8435TIP3   OH249499   1.703   7.020   0.573 -0.3888 -0.0904  0.3735
 8435TIP3    H149500   1.795   7.029   0.600 -0.2504 -0.8739  0.1983
 8435TIP3    H249501   1.665   7.106   0.590  0.1256 -0.0488  1.4395
 8436TIP3   OH249502   6.470   0.012   8.828 -0.2954  0.3044 -0.5821
 8436TIP3    H149503   6.544   0.055   8.786  0.2731 -1.6085 -1.6546
 8436TIP3    H249504   6.509  -0.057   8.883 -1.1862  0.7415  0.6592
 8437TIP3   OH249505   0.831   2.421   7.975 -0.0689 -0.4758 -0.2988
 8437TIP3    H149506   0.757   2.404   7.917 -0.0803 -0.5285 -0.2683
 8437TIP3    H249507   0.821   2.359   8.046 -0.7140  0.3598  0.3649
 8438TIP3   OH249508   2.732   5.570   0.217 -0.4104 -0.0499 -0.2538
 8438TIP3    H149509   2.676   5.550   0.142  0.7621  1.2590 -1.5456
 8438TIP3    H249510   2.706   5.508   0.284 -2.1300 -0.6705 -1.4368
 8439TIP3   OH249511   6.903   7.186   0.353  0.3753  0.1431 -0.1163
 8439TIP3    H149512   6.852   7.234   0.418  1.4797  1.6262 -0.3066
 8439TIP3    H249513   6.852   7.107   0.336 -1.2162  0.9749  0.6234
 8440TIP3   OH249514   3.865   4.521   9.450 -0.0970 -0.1450 -0.0048
 8440TIP3    H149515   3.872   4.595   9.510 -2.4780  0.4020 -0.2827
 8440TIP3    H249516   3.930   4.538   9.382  0.1317  1.1272  0.5007
 8441TIP3   OH249517   2.867   2.215   1.738  0.2585 -0.1259 -0.1717
 8441TIP3    H149518   2.828   2.153   1.801 -0.2227 -0.0595 -0.4033
 8441TIP3    H249519   2.893   2.290   1.791 -1.9777  0.8118 -0.2983
 8442TIP3   OH249520   0.955   0.735   0.124 -0.1749  0.0139 -0.0169
 8442TIP3    H149521   0.937   0.825   0.153  0.6036  0.4464 -0.8541
 8442TIP3    H249522   0.880   0.712   0.070 -0.3504  0.1852  0.1524
 8443TIP3   OH249523   4.688   0.883   9.766  0.6411 -0.1092  0.3918
 8443TIP3    H149524   4.748   0.809   9.774  1.0963  0.4470  2.9148
 8443TIP3    H249525   4.705   0.936   9.843 -0.0860  2.3558 -1.0531
 8444TIP3   OH249526   3.502   6.870   7.909  0.0977 -0.0169  0.3659
 8444TIP3    H149527   3.494   6.797   7.971  0.4247 -1.1631 -0.8923
 8444TIP3    H249528   3.498   6.829   7.823  0.0095  1.4990 -0.3871
 8445TIP3   OH249529   6.795   7.070   2.284 -0.1644  0.1191 -0.0080
 8445TIP3    H149530   6.746   6.991   2.259  1.5109 -0.6594 -0.9595
 8445TIP3    H249531   6.729   7.139   2.285 -1.4463 -1.0507 -0.4149
 8446TIP3   OH249532   0.778   3.718   8.966  0.1741 -0.5532  0.3554
 8446TIP3    H149533   0.710   3.652   8.954 -0.1464 -0.2131  0.2723
 8446TIP3    H249534   0.828   3.688   9.042 -1.4250  0.3202  1.7968
 8447TIP3   OH249535   4.742   5.804   7.125 -0.2479 -0.3257 -0.0164
 8447TIP3    H149536   4.739   5.829   7.217 -0.4631 -0.1966 -0.0576
 8447TIP3    H249537   4.801   5.728   7.122 -0.6870 -0.6846  0.3055
 8448TIP3   OH249538   3.933   2.161   7.753 -0.1629  0.3887 -0.5576
 8448TIP3    H149539   3.917   2.236   7.810 -0.5997  0.7872 -1.1859
 8448TIP3    H249540   3.975   2.096   7.809  0.1652  1.0805  0.0096
 8449TIP3   OH249541   3.840   2.623   1.733 -0.2349 -0.0053 -0.2554
 8449TIP3    H149542   3.925   2.622   1.689 -0.3419 -0.0597 -0.4648
 8449TIP3    H249543   3.847   2.555   1.801  0.3567  0.9437  0.6479
 8450TIP3   OH249544   1.169   2.051   1.484 -0.1213  0.3250 -0.3751
 8450TIP3    H149545   1.098   2.027   1.425 -0.4625 -0.5169  0.3473
 8450TIP3    H249546   1.240   2.078   1.427 -0.0001 -1.6749 -1.2564
 8451TIP3   OH249547   0.208   0.320   8.330  0.6661 -0.1722  0.2004
 8451TIP3    H149548   0.160   0.399   8.357  0.5572 -0.8777  2.2091
 8451TIP3    H249549   0.280   0.354   8.276 -0.5911  1.1138 -0.7248
 8452TIP3   OH249550   5.932   0.299   0.860  0.1082  0.0533  0.1386
 8452TIP3    H149551   5.890   0.382   0.839 -0.0573  0.7782  2.9134
 8452TIP3    H249552   5.884   0.234   0.809 -1.3556  1.3792 -0.2534
 8453TIP3   OH249553   2.819   6.318   1.318 -0.0188 -0.2448 -0.3774
 8453TIP3    H149554   2.795   6.312   1.411  0.1999 -0.8715 -0.3573
 8453TIP3    H249555   2.857   6.406   1.309  1.7268 -0.8463  0.5513
 8454TIP3   OH249556   4.726   3.488   7.913 -0.5479 -0.2759  0.4582
 8454TIP3    H149557   4.820   3.475   7.927 -0.3238  1.0047  0.2852
 8454TIP3    H249558   4.715   3.481   7.818 -1.1952 -3.5918  0.6398
 8455TIP3   OH249559   0.548   2.668   1.991  0.8880  0.0528 -0.1844
 8455TIP3    H149560   0.509   2.620   1.918  1.0510 -0.8308  0.3052
 8455TIP3    H249561   0.637   2.689   1.961  0.3317  1.4253 -1.0053
 8456TIP3   OH249562   2.507   5.494   9.524  0.5846  0.2814  0.0073
 8456TIP3    H149563   2.422   5.533   9.546  0.7960  0.5509  0.3704
 8456TIP3    H249564   2.561   5.569   9.500  1.3340  0.3842  1.8109
 8457TIP3   OH249565   4.026   6.820   0.345  0.3209  0.1667 -0.7374
 8457TIP3    H149566   4.094   6.794   0.408 -0.5637 -0.4223  0.0042
 8457TIP3    H249567   3.992   6.902   0.380 -1.7132 -1.2420  0.8979
 8458TIP3   OH249568   0.937   6.871   9.798 -0.2888  0.0843 -0.1739
 8458TIP3    H149569   0.929   6.776   9.794 -0.9157  0.1447 -0.6732
 8458TIP3    H249570   0.886   6.896   9.875 -0.6343  0.0559 -0.3891
 8459TIP3   OH249571   2.690   6.093   8.678 -0.3591 -0.0149  0.0704
 8459TIP3    H149572   2.748   6.084   8.753  0.2221  1.2784 -0.1902
 8459TIP3    H249573   2.686   6.005   8.640  0.9626 -0.2600  0.4421
 8460TIP3   OH249574   3.762   5.199   7.328 -0.3086 -0.3255 -0.6686
 8460TIP3    H149575   3.783   5.108   7.344 -0.3742 -0.3564 -0.7566
 8460TIP3    H249576   3.830   5.248   7.374 -0.5312 -0.4118 -0.2388
 8461TIP3   OH249577   4.295   5.501   9.932 -0.1095 -0.4031  0.3434
 8461TIP3    H149578   4.304   5.437   9.862  0.2234  0.5308 -0.4885
 8461TIP3    H249579   4.358   5.570   9.910  0.1672 -0.2064  1.6904
 8462TIP3   OH249580   4.963   5.048   1.628 -0.1471  0.0715 -0.3020
 8462TIP3    H149581   5.051   5.085   1.638 -0.0011 -0.4095  0.2840
 8462TIP3    H249582   4.905   5.124   1.626 -0.0453  0.3775  2.7776
 8463TIP3   OH249583   4.553   5.854   6.921 -0.0889 -0.3028  0.0289
 8463TIP3    H149584   4.631   5.833   6.973  0.9677  1.5558 -0.6790
 8463TIP3    H249585   4.583   5.847   6.830 -0.2822  1.7710 -0.2520
 8464TIP3   OH249586   7.130   5.295   1.695 -0.4125  0.0574 -0.1330
 8464TIP3    H149587   7.078   5.358   1.744  0.1573  0.7743 -0.4489
 8464TIP3    H249588   7.204   5.275   1.751 -0.5362 -0.2636 -0.0776
 8465TIP3   OH249589   7.091   2.650   0.548 -0.0040 -0.1407 -0.9406
 8465TIP3    H149590   7.005   2.610   0.534  0.5403 -1.4096 -0.8511
 8465TIP3    H249591   7.129   2.658   0.460 -0.4790  1.1005 -1.0545
 8466TIP3   OH249592   5.109   1.899   0.413  0.3616  0.4336 -0.3410
 8466TIP3    H149593   5.154   1.979   0.386 -0.2357  0.7859 -0.3051
 8466TIP3    H249594   5.173   1.853   0.467  0.4041  1.3278  0.3950
 8467TIP3   OH249595   1.694   1.712   8.081  0.1966 -0.3250 -0.0968
 8467TIP3    H149596   1.667   1.779   8.019  0.1919 -1.2514 -1.1164
 8467TIP3    H249597   1.751   1.759   8.143  3.2576 -0.0155 -2.8753
 8468TIP3   OH249598   2.030   2.192   1.687 -0.0181  0.0724 -0.2809
 8468TIP3    H149599   2.007   2.212   1.778  0.2093 -0.7963 -0.0225
 8468TIP3    H249600   1.946   2.179   1.643 -0.1339  0.6234 -0.2317
 8469TIP3   OH249601   3.282   2.317   9.630 -0.6864 -0.7398  0.3299
 8469TIP3    H149602   3.212   2.313   9.566  0.6986  0.9557 -1.4156
 8469TIP3    H249603   3.249   2.374   9.700 -0.1795  2.4034 -1.8077
 8470TIP3   OH249604   3.241   5.800   1.393 -0.7854  0.2229 -0.1820
 8470TIP3    H149605   3.197   5.883   1.412 -0.7788  0.4203 -0.9723
 8470TIP3    H249606   3.223   5.784   1.300  1.2580  0.6096 -0.7097
 8471TIP3   OH249607   0.381   5.228   9.093 -0.4268  0.5049  0.4122
 8471TIP3    H149608   0.454   5.243   9.153 -0.3243  2.5560 -0.1605
 8471TIP3    H249609   0.398   5.287   9.020 -2.5792  0.8920  0.1798
 8472TIP3   OH249610   6.277   3.375   9.583 -0.4917  0.0511 -0.7021
 8472TIP3    H149611   6.238   3.370   9.670  0.9969 -0.7084 -0.0442
 8472TIP3    H249612   6.309   3.465   9.576  0.2809 -0.1535 -0.0276
 8473TIP3   OH249613   3.513   6.515   1.816  0.0183 -0.1884  0.6208
 8473TIP3    H149614   3.577   6.497   1.748  0.3689 -0.9054  1.1225
 8473TIP3    H249615   3.522   6.441   1.877  1.7989  1.8085  3.0025
 8474TIP3   OH249616   4.867   3.758   8.132  0.3579 -0.1520 -0.1560
 8474TIP3    H149617   4.811   3.705   8.076  0.8179 -1.3089  0.4464
 8474TIP3    H249618   4.814   3.835   8.154 -0.7196 -0.8757 -0.1834
 8475TIP3   OH249619   5.975   0.953   1.506 -0.1765  0.2522 -0.0249
 8475TIP3    H149620   6.027   1.018   1.459 -0.9414  0.0158 -1.2505
 8475TIP3    H249621   6.034   0.919   1.573  0.9473  0.6662 -0.7710
 8476TIP3   OH249622   7.261   4.321   8.183  0.1914 -0.2718 -0.4381
 8476TIP3    H149623   7.288   4.393   8.239 -0.0843 -0.1999 -0.3943
 8476TIP3    H249624   7.334   4.259   8.186  0.4443  0.0234 -0.5084
 8477TIP3   OH249625   4.560   1.843   1.521 -0.1404  0.5045  0.0849
 8477TIP3    H149626   4.634   1.820   1.578  1.0147  0.7484 -1.2742
 8477TIP3    H249627   4.498   1.888   1.579  0.5847 -0.0624  1.3350
 8478TIP3   OH249628   5.422   1.865   8.370  0.0884  0.3374  0.0156
 8478TIP3    H149629   5.368   1.852   8.448  0.8383  0.1452  0.5099
 8478TIP3    H249630   5.360   1.889   8.301 -0.8467 -1.6773  0.1087
 8479TIP3   OH249631   4.151   4.558   8.019 -0.1667 -0.1484 -0.2627
 8479TIP3    H149632   4.179   4.493   7.954  1.3740 -0.6413  0.8421
 8479TIP3    H249633   4.222   4.561   8.082 -2.5820 -1.5761  2.8479
 8480TIP3   OH249634   4.940   0.247   9.112  0.0118  0.1799 -0.3086
 8480TIP3    H149635   5.009   0.192   9.149 -0.0880 -0.6257 -1.2627
 8480TIP3    H249636   4.984   0.329   9.089  0.5229 -0.0928 -0.3203
 8481TIP3   OH249637   6.927   3.091   1.064 -0.8928  0.2091  0.3482
 8481TIP3    H149638   6.983   3.160   1.100 -0.2003 -0.3886  0.4317
 8481TIP3    H249639   6.977   3.011   1.075 -1.7000 -0.3209  0.2668
 8482TIP3   OH249640   3.295   0.164   7.015  0.2881  0.4276 -0.8126
 8482TIP3    H149641   3.365   0.161   6.950 -0.0477  0.1759 -1.1750
 8482TIP3    H249642   3.229   0.221   6.975  1.3934  2.9182  0.6781
 8483TIP3   OH249643   5.931   2.098   0.814 -0.1181 -0.4162  0.2646
 8483TIP3    H149644   5.846   2.075   0.777  0.2900  0.5114 -1.3292
 8483TIP3    H249645   5.915   2.179   0.863 -0.0124  0.2049 -0.7101
 8484TIP3   OH249646   3.492   0.173   1.062 -0.5871 -0.6440 -0.5582
 8484TIP3    H149647   3.462   0.083   1.050 -1.4059 -0.3403 -0.8900
 8484TIP3    H249648   3.431   0.211   1.125  1.1066 -0.9557  1.3528
 8485TIP3   OH249649   3.824   2.109   1.584 -0.2426 -0.7576 -0.5189
 8485TIP3    H149650   3.855   2.199   1.576  1.3265 -1.3007 -0.9392
 8485TIP3    H249651   3.795   2.085   1.496  1.0546 -1.2313 -0.8363
 8486TIP3   OH249652   1.429   3.504   2.518  0.1966 -0.1817  0.1695
 8486TIP3    H149653   1.506   3.454   2.492  0.0671 -0.6407  0.6473
 8486TIP3    H249654   1.359   3.473   2.460  0.3144  0.0680 -0.1087
 8487TIP3   OH249655   4.158   3.706   8.276 -0.1488 -0.2021  0.3205
 8487TIP3    H149656   4.210   3.787   8.279 -1.5813  0.7736  0.2820
 8487TIP3    H249657   4.096   3.716   8.349 -1.4360 -0.4683 -0.6923
 8488TIP3   OH249658   3.983   5.314   0.785 -0.6483  0.3106  0.5946
 8488TIP3    H149659   4.032   5.260   0.722  0.1439  0.2404  1.2604
 8488TIP3    H249660   4.024   5.400   0.780 -0.5901  0.3069  1.0043
 8489TIP3   OH249661   4.663   1.412   1.197  0.0021  0.0932  0.3167
 8489TIP3    H149662   4.633   1.476   1.132 -0.6269  0.3987  0.9043
 8489TIP3    H249663   4.758   1.406   1.183  0.4626  2.8149  1.7026
 8490TIP3   OH249664   4.835   4.882   9.012  0.4090 -0.3439  0.0051
 8490TIP3    H149665   4.887   4.814   8.969  0.8994  0.3244 -0.4844
 8490TIP3    H249666   4.748   4.844   9.021  0.6921 -1.0580 -0.2104
 8491TIP3   OH249667   3.739   0.788   1.427 -0.0120  0.2429  0.1466
 8491TIP3    H149668   3.678   0.812   1.497 -1.5779 -0.1217 -1.0486
 8491TIP3    H249669   3.688   0.793   1.347  1.1478 -1.4652 -0.7698
 8492TIP3   OH249670   7.084   6.177   8.563 -0.5570 -0.4873  0.1159
 8492TIP3    H149671   7.050   6.112   8.502  0.2502 -0.1274 -0.7567
 8492TIP3    H249672   7.165   6.139   8.597  0.5588  0.4595 -1.2863
 8493TIP3   OH249673   4.174   6.606   7.609  0.3557 -0.2259 -0.7220
 8493TIP3    H149674   4.217   6.632   7.528 -0.0898  1.6080 -0.4226
 8493TIP3    H249675   4.242   6.617   7.676 -0.2141  1.6711 -0.3957
 8494TIP3   OH249676   5.915   0.642   9.274  0.5552  0.3734 -0.4255
 8494TIP3    H149677   5.992   0.628   9.220  0.7470  0.1086 -0.0836
 8494TIP3    H249678   5.949   0.664   9.361  0.2588 -1.0401  0.0718
 8495TIP3   OH249679   1.930   4.765   8.733  0.2962  0.8112 -0.5331
 8495TIP3    H149680   1.955   4.674   8.744  1.2219  1.0980 -0.1410
 8495TIP3    H249681   1.939   4.782   8.639 -0.5199  0.3311 -0.7081
 8496TIP3   OH249682   5.003   7.184   0.955 -0.0888 -0.0201 -0.2869
 8496TIP3    H149683   4.932   7.147   1.007  0.2205 -0.8479 -0.4420
 8496TIP3    H249684   5.035   7.257   1.007 -2.1390  1.4506 -0.9544
 8497TIP3   OH249685   6.520   3.225   9.653  0.3727  0.6772 -0.6192
 8497TIP3    H149686   6.469   3.259   9.579  1.3074  2.4087 -0.5164
 8497TIP3    H249687   6.560   3.302   9.692 -1.0470  0.0302  2.4929
 8498TIP3   OH249688   4.586   2.325   0.093  0.1131  0.1957 -0.4513
 8498TIP3    H149689   4.612   2.237   0.067  0.4104  0.1581 -0.0480
 8498TIP3    H249690   4.500   2.314   0.133  1.0643 -0.2737  1.6015
 8499TIP3   OH249691   2.901   4.799   7.977  0.5267 -0.2206  0.1514
 8499TIP3    H149692   2.847   4.838   7.908 -1.6197 -2.5037  0.3835
 8499TIP3    H249693   2.990   4.801   7.942 -0.1495  0.8422 -1.6457
 8500TIP3   OH249694   5.774   4.907   8.401 -0.1050 -0.2153 -0.2676
 8500TIP3    H149695   5.850   4.942   8.355 -0.0272 -1.4932 -1.1649
 8500TIP3    H249696   5.811   4.867   8.480  0.4900 -2.5955 -1.6544
 8501TIP3   OH249697   2.661   2.016   7.381 -0.1641  0.0047  0.3944
 8501TIP3    H149698   2.648   2.105   7.415  0.7030  1.3516 -2.3908
 8501TIP3    H249699   2.599   2.009   7.308 -0.3306 -1.7688  0.6669
 8502TIP3   OH249700   6.291   2.504   2.144 -0.3019  0.6455  0.5624
 8502TIP3    H149701   6.224   2.550   2.195 -0.5439  0.3160  0.5388
 8502TIP3    H249702   6.307   2.423   2.193  1.2803  1.4521  1.4937
 8503TIP3   OH249703   1.776   0.404   1.760 -0.0959 -0.2988 -0.5281
 8503TIP3    H149704   1.865   0.439   1.745  0.5221 -1.8350 -0.5772
 8503TIP3    H249705   1.719   0.464   1.711  0.7024  1.7138  0.8675
 8504TIP3   OH249706   0.256   2.990   6.593 -0.1534 -0.4695  0.2345
 8504TIP3    H149707   0.261   3.057   6.661  0.6087  1.7098 -1.8487
 8504TIP3    H249708   0.297   3.030   6.516 -0.6611 -2.9390 -1.4367
 8505TIP3   OH249709   6.664   3.810   3.102  0.5289  0.0330 -0.1488
 8505TIP3    H149710   6.734   3.857   3.148 -0.6538  0.4259  1.3326
 8505TIP3    H249711   6.589   3.816   3.161 -0.2512 -1.9342 -0.8792
 8506TIP3   OH249712   7.162   5.189   9.144 -0.4335  0.0452 -0.2980
 8506TIP3    H149713   7.168   5.131   9.068  0.4507 -0.5309  0.2013
 8506TIP3    H249714   7.083   5.241   9.127 -1.0896 -1.0951 -0.8996
 8507TIP3   OH249715   3.921   1.256   2.822  0.3126  0.0801  0.0186
 8507TIP3    H149716   3.848   1.315   2.842 -0.6247 -1.6862  2.1857
 8507TIP3    H249717   3.996   1.295   2.867 -0.6892 -1.1771  3.0155
 8508TIP3   OH249718   3.647   1.411   0.396  0.4179  0.5055  0.5000
 8508TIP3    H149719   3.687   1.325   0.395 -0.0896  0.1644 -3.0012
 8508TIP3    H249720   3.687   1.456   0.470  3.3401 -1.5471  0.3305
 8509TIP3   OH249721   3.874   0.960   6.691  0.0810 -0.0848 -0.3518
 8509TIP3    H149722   3.796   0.916   6.658 -0.3131  0.1440  0.2785
 8509TIP3    H249723   3.904   1.013   6.617 -0.3546 -0.1699 -0.5926
 8510TIP3   OH249724   2.612   3.808   1.961 -1.0588  0.4607 -0.6555
 8510TIP3    H149725   2.533   3.765   1.993 -0.8206  0.1780 -0.4420
 8510TIP3    H249726   2.602   3.900   1.986 -2.3124  0.8878 -2.4916
 8511TIP3   OH249727   0.208   1.232   9.037 -0.3004  0.0322  0.0562
 8511TIP3    H149728   0.126   1.213   8.993 -0.3828 -2.1765  1.0001
 8511TIP3    H249729   0.273   1.235   8.966 -1.0177  0.7390 -0.5880
 8512TIP3   OH249730   2.897   2.752   1.500  0.8504  0.2447 -0.2555
 8512TIP3    H149731   2.809   2.775   1.468  1.5877  2.1523 -1.0872
 8512TIP3    H249732   2.922   2.826   1.556  2.0472 -0.1231 -0.2751
 8513TIP3   OH249733   3.404   3.379   8.547 -0.4962 -0.4424  0.7006
 8513TIP3    H149734   3.450   3.295   8.549 -0.0848 -0.2378 -0.0404
 8513TIP3    H249735   3.328   3.363   8.490  0.8165  0.2927 -1.3404
 8514TIP3   OH249736   1.693   2.275   9.362  0.0164  0.1446  0.4196
 8514TIP3    H149737   1.754   2.310   9.298 -0.4614  1.4853  0.6770
 8514TIP3    H249738   1.735   2.289   9.446  0.9822 -2.2791  0.4470
 8515TIP3   OH249739   2.760   6.568   0.068  0.0343 -0.1832 -0.0947
 8515TIP3    H149740   2.823   6.498   0.086  1.0640  0.6839 -0.1798
 8515TIP3    H249741   2.684   6.547   0.122  0.5331 -1.0670  0.2905
 8516TIP3   OH249742   6.267   7.138   1.519  0.4397 -0.1692 -0.1263
 8516TIP3    H149743   6.200   7.171   1.458  0.0722 -0.8742 -0.1166
 8516TIP3    H249744   6.217   7.094   1.588  0.8680  0.3577  0.5345
 8517TIP3   OH249745   2.619   5.138   9.882  0.0819 -0.6883  0.3998
 8517TIP3    H149746   2.568   5.123   9.961 -2.2430  1.1483 -0.6338
 8517TIP3    H249747   2.705   5.166   9.914 -0.9028  0.3640  2.3207
 8518TIP3   OH249748   2.479   4.127   1.140 -0.1718  0.1472  0.5839
 8518TIP3    H149749   2.422   4.084   1.076 -1.4669  1.8874  0.4651
 8518TIP3    H249750   2.458   4.085   1.223 -1.2187  0.3327  0.4323
 8519TIP3   OH249751   1.756   6.821   7.423 -0.0924 -0.0664 -0.3910
 8519TIP3    H149752   1.814   6.756   7.461 -0.8370 -1.5716 -1.7225
 8519TIP3    H249753   1.713   6.862   7.499  0.3559 -1.1452  0.4703
 8520TIP3   OH249754   2.377   3.307   0.039 -0.0780 -0.0175  0.2951
 8520TIP3    H149755   2.418   3.221   0.045  0.3796  0.1399 -0.3494
 8520TIP3    H249756   2.451   3.367   0.025 -0.5337  0.2184 -1.3310
 8521TIP3   OH249757   4.109   0.698   0.840  0.1159  0.2512  0.1714
 8521TIP3    H149758   4.136   0.623   0.787 -1.1526 -0.6871  0.8008
 8521TIP3    H249759   4.141   0.678   0.928 -2.3542 -0.8227  0.9044
 8522TIP3   OH249760   0.192   2.928   8.892 -0.0841 -0.4768 -0.1424
 8522TIP3    H149761   0.273   2.885   8.920  0.7927 -0.2008 -2.0906
 8522TIP3    H249762   0.148   2.863   8.838 -0.8540 -0.3848  0.3575
 8523TIP3   OH249763   7.152   6.378   1.499  0.4082 -0.3352  0.0114
 8523TIP3    H149764   7.140   6.381   1.594 -1.0411  0.0212 -0.1502
 8523TIP3    H249765   7.223   6.315   1.486 -0.4461 -1.6429  1.2680
 8524TIP3   OH249766   4.441   0.708   8.949 -0.4335  0.4641  0.1302
 8524TIP3    H149767   4.438   0.628   9.000  0.0652  0.4919  0.2165
 8524TIP3    H249768   4.506   0.763   8.994 -0.7596  0.9090  0.0656
 8525TIP3   OH249769   4.631   2.128   0.969 -0.1727 -0.0473 -0.6409
 8525TIP3    H149770   4.658   2.216   0.997  0.1278 -0.5098  0.6066
 8525TIP3    H249771   4.713   2.078   0.967 -0.7333 -1.3621  2.7812
 8526TIP3   OH249772   1.723   2.322   2.547 -0.2785 -0.2739  0.1298
 8526TIP3    H149773   1.815   2.332   2.571  0.0970 -0.3533 -1.1974
 8526TIP3    H249774   1.695   2.410   2.521  0.1845 -0.7016 -1.9586
 8527TIP3   OH249775   7.063   6.430   2.225  0.2127 -0.3319  0.3127
 8527TIP3    H149776   7.109   6.378   2.290 -0.3258 -0.1011  0.8851
 8527TIP3    H249777   7.016   6.496   2.276 -0.3497 -0.2552 -0.2971
 8528TIP3   OH249778   6.448   2.343   9.574  0.3191 -0.2795 -0.5754
 8528TIP3    H149779   6.444   2.338   9.670 -1.4929 -0.3431 -0.6308
 8528TIP3    H249780   6.512   2.276   9.550  0.3021 -0.7271  0.5530
 8529TIP3   OH249781   0.785   6.588   9.618 -0.3769 -0.0242 -0.1369
 8529TIP3    H149782   0.701   6.633   9.604  0.0348  0.6528 -0.4889
 8529TIP3    H249783   0.764   6.516   9.677 -1.5410 -0.9194 -1.5836
 8530TIP3   OH249784   6.685   0.971   1.358 -0.1655 -0.2635 -0.2985
 8530TIP3    H149785   6.590   0.975   1.369 -0.3777 -0.0863 -2.0024
 8530TIP3    H249786   6.713   1.062   1.366 -0.2128 -0.2420 -0.3744
 8531TIP3   OH249787   2.862   3.970   8.725 -0.2316 -0.1232 -0.3102
 8531TIP3    H149788   2.837   3.973   8.633  1.9649  2.1840 -0.9403
 8531TIP3    H249789   2.851   3.878   8.750 -0.6779 -0.8477 -2.9063
 8532TIP3   OH249790   2.032   4.877   8.499  0.4296 -0.0463  0.0433
 8532TIP3    H149791   1.977   4.870   8.421  0.9857 -1.1240 -0.2765
 8532TIP3    H249792   2.120   4.858   8.467  0.9743  1.4824  0.5832
 8533TIP3   OH249793   3.553   5.106   1.918  0.1220 -0.0862  0.1264
 8533TIP3    H149794   3.547   5.020   1.877 -1.8750 -0.1514  0.4537
 8533TIP3    H249795   3.544   5.168   1.846  1.7177 -0.1070 -0.1308
 8534TIP3   OH249796   0.151   3.617   0.856 -0.1276  0.3241  0.0296
 8534TIP3    H149797   0.183   3.693   0.903 -0.8455  0.3570  0.4869
 8534TIP3    H249798   0.223   3.554   0.860  0.0017  0.5040  0.7687
 8535TIP3   OH249799   3.617   3.656   1.376  0.3524  0.1566  0.2107
 8535TIP3    H149800   3.603   3.749   1.361 -0.8192  0.2314  1.5528
 8535TIP3    H249801   3.580   3.613   1.298 -1.3365  0.7164  0.6585
 8536TIP3   OH249802   6.987   4.544   0.147 -0.1230 -0.1356 -0.4755
 8536TIP3    H149803   7.053   4.595   0.194 -0.1022 -0.0715 -0.5724
 8536TIP3    H249804   6.964   4.599   0.071  1.3610 -1.1072 -1.6983
 8537TIP3   OH249805   4.260   4.270   9.124  0.0511 -0.3117  0.0600
 8537TIP3    H149806   4.168   4.287   9.143 -0.1365 -0.6730 -0.4815
 8537TIP3    H249807   4.269   4.175   9.133  1.1304 -0.0118  3.2927
 8538TIP3   OH249808   2.801   4.595   0.456  0.1231  0.4795  0.7057
 8538TIP3    H149809   2.710   4.609   0.428  0.7623 -1.7544 -3.2186
 8538TIP3    H249810   2.851   4.659   0.406  1.0071 -1.2226 -0.7092
 8539TIP3   OH249811   0.515   2.552   9.235  0.3197 -0.4600  0.2396
 8539TIP3    H149812   0.605   2.581   9.249  0.3034 -0.9451  1.4516
 8539TIP3    H249813   0.465   2.592   9.306 -0.6773  0.8052 -1.1138
 8540TIP3   OH249814   6.738   5.600   1.778 -0.2276 -0.4868  0.2203
 8540TIP3    H149815   6.734   5.505   1.793 -0.9741 -0.1792  2.3119
 8540TIP3    H249816   6.648   5.629   1.786  0.2884  0.7196  2.4091
 8541TIP3   OH249817   7.280   0.470   9.722  0.4080 -0.2022 -0.6620
 8541TIP3    H149818   7.314   0.533   9.659  0.9913 -0.2382 -0.3975
 8541TIP3    H249819   7.266   0.520   9.802 -2.2962  0.2984 -1.3461
 8542TIP3   OH249820   0.532   2.399   9.750 -0.1079  0.2729 -0.7831
 8542TIP3    H149821   0.598   2.454   9.708  0.0128 -0.6368 -1.8152
 8542TIP3    H249822   0.565   2.387   9.839 -0.0652  1.7323 -0.5695
 8543TIP3   OH249823   3.503   2.301   9.469  0.1536  0.3329  0.5438
 8543TIP3    H149824   3.432   2.315   9.532 -1.0394 -2.1039 -0.1375
 8543TIP3    H249825   3.527   2.209   9.479  2.4256  0.7861 -0.1112
 8544TIP3   OH249826   2.019   0.806   8.311 -0.1635  0.9667 -0.5419
 8544TIP3    H149827   2.001   0.895   8.343  0.5546  0.8519  0.2017
 8544TIP3    H249828   2.113   0.796   8.320 -0.3686 -0.2798  0.4691
 8545TIP3   OH249829   1.405   2.102   1.777 -0.6659  0.1371  0.0864
 8545TIP3    H149830   1.317   2.065   1.766 -0.4989 -0.0272 -0.7936
 8545TIP3    H249831   1.415   2.163   1.704 -0.5298  1.1503  0.9251
 8546TIP3   OH249832   7.178   6.967   1.824 -0.4175 -0.0168  0.5221
 8546TIP3    H149833   7.241   7.038   1.809 -1.2844  0.9748  1.4520
 8546TIP3    H249834   7.096   7.012   1.843 -1.7145 -1.2636 -1.6783
 8547TIP3   OH249835   2.952   3.874   8.356  0.0321 -0.3911  0.0479
 8547TIP3    H149836   2.874   3.867   8.301  0.1989  0.1264 -0.2612
 8547TIP3    H249837   2.926   3.935   8.426  0.6613  1.1173 -0.9779
 8548TIP3   OH249838   3.323   1.284   1.259  0.6350 -0.1092 -0.6157
 8548TIP3    H149839   3.306   1.265   1.351 -0.3700  0.1639 -0.7420
 8548TIP3    H249840   3.398   1.343   1.260 -0.8085  1.7920  0.1620
 8549TIP3   OH249841   1.227   3.275   1.064  0.0140  0.0101  0.1219
 8549TIP3    H149842   1.144   3.314   1.035 -0.9556 -3.9505 -3.3762
 8549TIP3    H249843   1.286   3.286   0.990  1.5403 -0.2084  1.2649
 8550TIP3   OH249844   5.913   0.677   2.138 -0.6078 -0.2127 -0.0713
 8550TIP3    H149845   5.825   0.678   2.101 -0.6020 -3.0104 -0.4004
 8550TIP3    H249846   5.971   0.669   2.062 -0.0796  1.0876  0.1720
 8551TIP3   OH249847   2.872   5.432   7.480  0.6209 -0.4021 -0.1075
 8551TIP3    H149848   2.794   5.482   7.454 -0.3106 -1.1920  1.0435
 8551TIP3    H249849   2.848   5.341   7.461  1.2002 -0.6632  0.4047
 8552TIP3   OH249850   2.528   0.195   7.479 -0.5442  0.0689 -0.3700
 8552TIP3    H149851   2.545   0.287   7.458  0.0715  0.4871  1.7362
 8552TIP3    H249852   2.614   0.153   7.469 -0.5831 -0.0480 -0.2070
 8553TIP3   OH249853   2.126   1.928   0.575 -0.0026  0.0528  0.2092
 8553TIP3    H149854   2.190   2.000   0.575 -0.6732  0.6652  0.0648
 8553TIP3    H249855   2.156   1.869   0.644  1.0986 -0.0211 -0.3164
 8554TIP3   OH249856   4.561   1.014   6.815  0.4172 -0.0976  0.6628
 8554TIP3    H149857   4.558   0.962   6.735  0.5237  0.2326  0.4438
 8554TIP3    H249858   4.655   1.025   6.833  0.4178  0.7791  0.2061
 8555TIP3   OH249859   4.563   3.690   7.567 -0.4963 -0.5618  0.4588
 8555TIP3    H149860   4.608   3.728   7.491 -1.3158 -1.8662 -0.7394
 8555TIP3    H249861   4.616   3.614   7.590  0.3362  0.4248  1.9127
 8556TIP3   OH249862   2.740   5.351   6.152  0.5034 -0.0544  0.2241
 8556TIP3    H149863   2.714   5.436   6.118 -0.4515  0.5177  2.2312
 8556TIP3    H249864   2.834   5.358   6.168  0.3779  0.7611  0.6667
 8557TIP3   OH249865   0.903   1.237   8.937 -0.2676 -0.3953  0.1588
 8557TIP3    H149866   0.856   1.320   8.947  1.1768  0.3811  0.8929
 8557TIP3    H249867   0.985   1.250   8.986 -0.1496 -2.3774  0.5803
 8558TIP3   OH249868   6.872   2.828   9.142  0.3666  0.3247  0.1210
 8558TIP3    H149869   6.900   2.743   9.174 -0.2799  0.3601  0.7885
 8558TIP3    H249870   6.837   2.873   9.219 -0.9599  0.5099 -0.5669
 8559TIP3   OH249871   6.083   5.507   0.960  0.0657 -0.1515  0.0456
 8559TIP3    H149872   6.032   5.508   1.041 -0.2876 -1.3608 -0.1500
 8559TIP3    H249873   6.020   5.526   0.891 -0.5015 -3.0870 -0.3620
 8560TIP3   OH249874   0.742   6.198   1.772 -0.0511 -0.4199 -0.1775
 8560TIP3    H149875   0.690   6.176   1.695  0.4124 -2.1884 -0.0276
 8560TIP3    H249876   0.831   6.171   1.749  0.1959 -0.4289  0.7583
 8561TIP3   OH249877   1.007   1.146   7.142 -0.0839  0.0298  0.0112
 8561TIP3    H149878   0.976   1.226   7.100  0.5682  0.5093  0.4257
 8561TIP3    H249879   1.100   1.143   7.122  0.1120 -0.0532  0.8981
 8562TIP3   OH249880   6.016   3.846   7.800 -0.4009  0.1257 -0.0847
 8562TIP3    H149881   6.039   3.869   7.710 -0.6931 -0.4057 -0.3005
 8562TIP3    H249882   6.099   3.846   7.848 -0.1167 -0.5278 -0.5700
 8563TIP3   OH249883   2.813   0.934   8.305 -0.3113 -0.1225 -0.2384
 8563TIP3    H149884   2.725   0.902   8.328 -0.8324 -0.8689 -2.8537
 8563TIP3    H249885   2.798   0.991   8.229  1.4515 -0.1983 -0.6772
 8564TIP3   OH249886   4.672   6.829   2.680 -0.1929  0.4008  0.0246
 8564TIP3    H149887   4.714   6.776   2.748 -0.0685  2.0137  1.2599
 8564TIP3    H249888   4.606   6.771   2.642 -0.2398 -0.5731  1.4917
 8565TIP3   OH249889   5.424   0.323   2.900  0.6752 -0.2734 -0.0446
 8565TIP3    H149890   5.365   0.398   2.895  0.8363 -0.2183 -1.3414
 8565TIP3    H249891   5.502   0.357   2.944 -0.1990 -0.3412  1.6561
 8566TIP3   OH249892   2.837   1.165   0.397 -0.3967  0.4491  0.4267
 8566TIP3    H149893   2.870   1.211   0.474 -1.7716  2.4521 -0.0842
 8566TIP3    H249894   2.907   1.172   0.333  1.3883 -2.5305  1.8235
 8567TIP3   OH249895   2.989   2.347   7.869  0.2231 -0.1321 -0.4303
 8567TIP3    H149896   2.920   2.304   7.921  1.6387 -1.1882  0.6384
 8567TIP3    H249897   3.045   2.276   7.840  0.7087  0.6938 -1.5649
 8568TIP3   OH249898   3.529   3.104   1.866  0.2478 -0.3063  0.3712
 8568TIP3    H149899   3.446   3.089   1.910 -0.3983 -1.0713 -1.0567
 8568TIP3    H249900   3.557   3.191   1.895 -0.3571 -0.6030  1.9163
 8569TIP3   OH249901   3.430   2.538   9.112  1.4755  0.0321  0.0065
 8569TIP3    H149902   3.486   2.482   9.166 -0.0445 -1.1983  0.3791
 8569TIP3    H249903   3.434   2.499   9.025  1.6158  0.2765 -0.0986
 8570TIP3   OH249904   1.707   5.274   9.649 -0.6057  0.0818  0.0809
 8570TIP3    H149905   1.735   5.271   9.557  1.0801  1.6553  0.4838
 8570TIP3    H249906   1.656   5.355   9.656 -1.4700 -0.4706  0.3726
 8571TIP3   OH249907   2.594   6.598   7.865 -0.0481 -0.2041  0.2579
 8571TIP3    H149908   2.507   6.596   7.827  0.0808  1.2304 -0.1480
 8571TIP3    H249909   2.579   6.609   7.959 -0.3372  2.3740 -0.0121
 8572TIP3   OH249910   1.509   2.153   8.830  0.0402  0.2390  0.0858
 8572TIP3    H149911   1.496   2.246   8.815 -4.6851  0.1924  2.0864
 8572TIP3    H249912   1.557   2.149   8.913  3.1487  0.6564 -1.5320
 8573TIP3   OH249913   3.138   2.896   6.938 -0.2283  0.1499 -0.2647
 8573TIP3    H149914   3.146   2.956   7.012 -0.2948  0.1353 -0.2458
 8573TIP3    H249915   3.226   2.862   6.925  0.3892  2.2034 -1.9122
 8574TIP3   OH249916   6.136   3.042   9.714 -0.3244 -0.4049 -0.4115
 8574TIP3    H149917   6.127   3.098   9.637  0.2319  1.1328  0.5980
 8574TIP3    H249918   6.230   3.037   9.729 -0.4847  1.3988  1.5994
 8575TIP3   OH249919   1.919   0.377   7.504  0.0408 -0.3544 -0.8327
 8575TIP3    H149920   1.934   0.286   7.476 -0.6576 -1.2842  1.5060
 8575TIP3    H249921   1.992   0.396   7.562  0.4635  0.8041 -1.7217
 8576TIP3   OH249922   6.470   6.853   8.027  0.0373  0.4115  0.1025
 8576TIP3    H149923   6.521   6.865   8.108 -0.5935  0.3429  0.5222
 8576TIP3    H249924   6.440   6.941   8.005  1.8106  0.7633 -1.1712
 8577TIP3   OH249925   2.216   4.229   8.270 -0.3760 -0.7868 -0.3985
 8577TIP3    H149926   2.140   4.182   8.236 -0.4579 -0.3152 -0.8781
 8577TIP3    H249927   2.198   4.241   8.363 -1.7574  0.9427 -0.8469
 8578TIP3   OH249928   7.045   2.099   9.433 -0.2083 -0.2760 -0.5421
 8578TIP3    H149929   6.983   2.050   9.487 -0.0256 -1.9797 -1.8288
 8578TIP3    H249930   7.045   2.187   9.472 -0.8197 -1.1482  1.6101
 8579TIP3   OH249931   5.825   6.444   9.251 -0.5206 -0.3212 -0.3178
 8579TIP3    H149932   5.839   6.504   9.325  1.2196 -0.5614 -0.3984
 8579TIP3    H249933   5.755   6.386   9.280 -0.1516 -0.1448  0.9985
 8580TIP3   OH249934   6.735   5.340   2.086  0.4755 -0.0681 -0.4024
 8580TIP3    H149935   6.661   5.381   2.041 -0.3262 -1.3137 -0.2731
 8580TIP3    H249936   6.786   5.414   2.121  1.4773  1.0068 -3.7730
 8581TIP3   OH249937   3.305   4.389   9.150  0.2451  0.0111  0.0499
 8581TIP3    H149938   3.339   4.305   9.121  0.0584 -0.0871  0.1147
 8581TIP3    H249939   3.229   4.368   9.204  0.9450  0.1665  1.1174
 8582TIP3   OH249940   5.969   0.412   8.389 -0.3223  0.6576 -0.2537
 8582TIP3    H149941   6.051   0.368   8.365 -1.1071 -1.0447  0.0807
 8582TIP3    H249942   5.968   0.407   8.485 -0.3723  1.5374 -0.2038
 8583TIP3   OH249943   5.833   3.012   8.547  0.4521  0.7337  0.2121
 8583TIP3    H149944   5.790   3.044   8.467 -0.6606  1.0750  0.9299
 8583TIP3    H249945   5.894   2.945   8.516  0.2880  1.1036 -0.9612
 8584TIP3   OH249946   5.488   2.566   9.645 -0.4770  0.1948 -0.1528
 8584TIP3    H149947   5.414   2.603   9.597  0.2011 -0.7792 -2.0629
 8584TIP3    H249948   5.463   2.475   9.659 -0.5306  0.3902  1.1570
 8585TIP3   OH249949   0.582   4.879   9.647  0.8997  0.1016  0.2964
 8585TIP3    H149950   0.641   4.953   9.632  1.5030 -0.0650  1.7534
 8585TIP3    H249951   0.559   4.885   9.739 -2.6797  1.0898 -0.5098
 8586TIP3   OH249952   0.411   2.157   2.820  0.0062  0.6516 -0.4575
 8586TIP3    H149953   0.380   2.243   2.791 -1.6802  0.6853  1.1948
 8586TIP3    H249954   0.387   2.154   2.913  1.5580 -0.9619 -0.0620
 8587TIP3   OH249955   2.986   3.879   0.693  0.0139 -0.1168 -0.4267
 8587TIP3    H149956   3.062   3.899   0.639  0.7913  0.0085  0.6902
 8587TIP3    H249957   2.990   3.943   0.765  0.2216 -1.6341  0.9544
 8588TIP3   OH249958   1.109   6.754   0.027 -0.0127 -0.1872  0.0849
 8588TIP3    H149959   1.174   6.793  -0.032 -1.1755  1.4533 -0.1873
 8588TIP3    H249960   1.057   6.697  -0.030  1.6978 -2.2519  0.4842
 8589TIP3   OH249961   6.487   4.105   9.975  0.4005 -0.3879  0.0944
 8589TIP3    H149962   6.413   4.047   9.961  0.0325 -0.1522  0.9714
 8589TIP3    H249963   6.473   4.141  10.063  1.1827  0.1993 -0.0080
 8590TIP3   OH249964   4.957   5.214   0.271  0.0779  0.2756 -0.2229
 8590TIP3    H149965   4.979   5.288   0.328  1.4515  0.6298 -1.1656
 8590TIP3    H249966   4.944   5.254   0.185  0.1534 -0.4953 -0.5981
 8591TIP3   OH249967   1.193   3.057   9.327  0.1439  0.3090 -0.2827
 8591TIP3    H149968   1.150   3.028   9.246  0.4340 -1.6852  0.2262
 8591TIP3    H249969   1.160   2.998   9.394  2.5031 -0.3253  0.4155
 8592TIP3   OH249970   0.723   3.215   1.417 -0.8909 -0.2475 -0.4285
 8592TIP3    H149971   0.731   3.121   1.404 -1.8996 -0.5038  0.6401
 8592TIP3    H249972   0.780   3.234   1.492 -2.3762 -0.4056  0.7790
 8593TIP3   OH249973   2.484   5.995   9.551 -0.1800 -0.1476 -0.1349
 8593TIP3    H149974   2.480   5.987   9.456  0.0154  1.1826 -0.2760
 8593TIP3    H249975   2.404   5.953   9.582 -1.7235  1.8784 -1.0955
 8594TIP3   OH249976   6.312   3.338   0.501 -0.0700  0.5527 -0.2392
 8594TIP3    H149977   6.243   3.278   0.473 -0.7511  1.1478  0.1114
 8594TIP3    H249978   6.287   3.362   0.591  0.6558  0.6923 -0.0691
 8595TIP3   OH249979   5.241   3.244   2.052  0.0201  0.1111  0.5968
 8595TIP3    H149980   5.218   3.288   2.134  1.7185  1.8277  0.2400
 8595TIP3    H249981   5.174   3.272   1.990 -0.6732 -0.3337  1.1423
 8596TIP3   OH249982   1.923   5.311   7.941 -0.9525  0.1497 -0.0299
 8596TIP3    H149983   2.017   5.300   7.934 -1.1705 -0.8757 -2.2920
 8596TIP3    H249984   1.907   5.402   7.916 -0.6658 -0.2042 -1.6343
 8597TIP3   OH249985   5.451   0.893   1.570 -0.3724 -0.0311  0.3955
 8597TIP3    H149986   5.433   0.987   1.579  0.5819  0.1120  0.9925
 8597TIP3    H249987   5.541   0.883   1.600  0.4834 -0.7507 -2.2012
 8598TIP3   OH249988   2.242   1.038   1.178 -0.4925  0.0118 -0.2254
 8598TIP3    H149989   2.259   1.127   1.209  1.2006 -0.5564  0.5634
 8598TIP3    H249990   2.246   1.045   1.083 -0.1090  0.7435 -0.1650
 8599TIP3   OH249991   1.647   6.821   0.361  0.1902 -0.1480 -0.6103
 8599TIP3    H149992   1.676   6.864   0.441  0.0910 -0.4783 -0.3936
 8599TIP3    H249993   1.650   6.728   0.381 -1.6874 -0.1824 -0.3441
 8600TIP3   OH249994   1.880   0.703   7.048 -0.5195 -0.4625 -0.3126
 8600TIP3    H149995   1.948   0.660   6.997  0.3914 -0.4835  0.8591
 8600TIP3    H249996   1.828   0.751   6.984  0.0821 -1.1390 -1.3299
 8601TIP3   OH249997   5.408   1.262   2.936 -0.2626  0.0815 -0.7073
 8601TIP3    H149998   5.445   1.351   2.939 -1.2479  0.5348 -1.7097
 8601TIP3    H249999   5.469   1.213   2.881  0.4146  0.0612  0.0432
 8602TIP3   OH250000   2.820   0.225   8.369 -0.2055  0.1963 -0.1022
 8602TIP3    H150001   2.764   0.223   8.447  0.6289 -3.0745  0.5876
 8602TIP3    H250002   2.906   0.252   8.402  0.1878 -1.3441  0.2329
 8603TIP3   OH250003   1.307   7.196   1.094  0.2795  0.3746  0.5797
 8603TIP3    H150004   1.304   7.229   1.183 -0.9894 -2.7642  1.8519
 8603TIP3    H250005   1.215   7.186   1.068  0.6285  0.9631 -0.9786
 8604TIP3   OH250006   6.713   4.416   9.905 -0.3435 -0.6625 -0.4363
 8604TIP3    H150007   6.786   4.403   9.844  0.6646  1.9142  0.1026
 8604TIP3    H250008   6.718   4.341   9.964  0.1480 -1.9575 -2.0304
 8605TIP3   OH250009   4.532   1.645   8.373  0.1301 -0.0567 -0.0782
 8605TIP3    H150010   4.591   1.719   8.386  1.3271 -1.0868  0.6515
 8605TIP3    H250011   4.496   1.627   8.459 -0.6818  0.1021 -0.3827
 8606TIP3   OH250012   6.082   3.886   0.854  0.5779  0.4735  0.3987
 8606TIP3    H150013   6.028   3.816   0.817  0.4912  0.5121  0.4518
 8606TIP3    H250014   6.087   3.951   0.785  2.1759 -0.3892 -0.3347
 8607TIP3   OH250015   7.024   3.049   0.567 -0.1106 -0.2667 -0.6881
 8607TIP3    H150016   6.955   3.053   0.500 -1.8399 -0.6063  0.9597
 8607TIP3    H250017   7.036   2.956   0.584 -0.0815 -0.1739 -0.1665
 8608TIP3   OH250018   6.249   6.467   7.929  0.2466  0.1261  0.1110
 8608TIP3    H150019   6.178   6.430   7.982 -0.3235  0.4031 -0.4484
 8608TIP3    H250020   6.285   6.537   7.983 -0.8633  0.9482 -0.1734
 8609TIP3   OH250021   5.051   1.627   7.106 -0.4186  0.1192  0.1663
 8609TIP3    H150022   5.134   1.592   7.139 -0.0926  1.7961  1.2270
 8609TIP3    H250023   4.985   1.582   7.158 -0.1256 -0.3385  0.1538
 8610TIP3   OH250024   6.029   1.582   6.686 -0.1113  0.1304 -0.5086
 8610TIP3    H150025   6.106   1.547   6.641 -1.8623  0.6047 -4.2350
 8610TIP3    H250026   5.969   1.508   6.692 -0.0475  0.1586  0.9282
 8611TIP3   OH250027   4.338   5.897   0.822  0.2350 -0.1317  0.2359
 8611TIP3    H150028   4.291   5.867   0.900 -0.5494 -0.8633 -0.5002
 8611TIP3    H250029   4.363   5.817   0.776 -1.2589  0.2654 -1.3942
 8612TIP3   OH250030   1.208   5.051   7.496  0.4794  0.7071 -0.3245
 8612TIP3    H150031   1.197   5.133   7.448  0.2674  1.1305  0.4430
 8612TIP3    H250032   1.258   4.995   7.436 -0.8530  0.7778 -1.5512
 8613TIP3   OH250033   2.107   3.953   0.610  0.4056  0.2628 -0.9649
 8613TIP3    H150034   2.014   3.970   0.595  0.1152  0.3032  0.7326
 8613TIP3    H250035   2.150   3.986   0.531 -1.1688 -1.5963 -2.6984
 8614TIP3   OH250036   5.377   5.661   7.618 -0.0142  0.2708  0.0163
 8614TIP3    H150037   5.295   5.698   7.587  0.1194 -0.7316 -1.6402
 8614TIP3    H250038   5.351   5.600   7.687 -0.5411  0.7913  0.2845
 8615TIP3   OH250039   0.287   5.032   8.125 -0.2583  0.0523 -0.7573
 8615TIP3    H150040   0.192   5.039   8.123 -0.2807 -0.1373 -0.4652
 8615TIP3    H250041   0.305   4.944   8.091 -0.3042 -0.6957  1.0305
 8616TIP3   OH250042   6.342   0.419   0.469 -0.4269  0.8139  0.0827
 8616TIP3    H150043   6.284   0.492   0.448  0.5812  1.6010 -0.0457
 8616TIP3    H250044   6.336   0.362   0.392  2.1985  3.0095 -1.9641
 8617TIP3   OH250045   0.881   1.263   9.368 -0.4795  0.2934  0.4987
 8617TIP3    H150046   0.839   1.257   9.454  0.1089 -0.2578  0.7603
 8617TIP3    H250047   0.814   1.301   9.311 -1.3074 -0.4807  0.9215
 8618TIP3   OH250048   0.354   0.269   7.367 -0.2254 -0.9516 -0.1696
 8618TIP3    H150049   0.426   0.263   7.430  3.3522 -0.4663 -3.7754
 8618TIP3    H250050   0.321   0.359   7.376  1.9669 -0.0425 -0.5514
 8619TIP3   OH250051   3.384   5.983   8.347 -0.4314  0.0699 -0.0599
 8619TIP3    H150052   3.370   5.937   8.430 -3.6566 -0.2356 -0.6382
 8619TIP3    H250053   3.333   6.064   8.355 -0.1782  0.4093 -1.4708
 8620TIP3   OH250054   2.447   2.186   8.391  0.3906  0.6528  0.3416
 8620TIP3    H150055   2.373   2.131   8.417  0.1423  0.6029 -0.4528
 8620TIP3    H250056   2.476   2.227   8.473  0.9826 -1.1319  1.0973
 8621TIP3   OH250057   3.476   3.982   9.141 -0.0011 -0.0570 -0.3006
 8621TIP3    H150058   3.406   3.919   9.156 -1.3617  1.2033 -1.1672
 8621TIP3    H250059   3.479   3.993   9.046  1.4392 -0.1453 -0.2908
 8622TIP3   OH250060   2.489   3.028   0.400  0.1906 -0.5494 -0.8935
 8622TIP3    H150061   2.399   3.048   0.426  0.5464 -0.4623  0.3486
 8622TIP3    H250062   2.514   2.954   0.455  0.6065 -1.1266 -1.8332
 8623TIP3   OH250063   5.994   2.390   8.878  0.5885  0.4535 -0.3741
 8623TIP3    H150064   5.937   2.413   8.952  2.0822 -0.6586  1.2053
 8623TIP3    H250065   6.077   2.435   8.897  1.5466 -1.2223 -0.4362
 8624TIP3   OH250066   1.715   7.175   1.999  0.2173 -0.2163  0.2147
 8624TIP3    H150067   1.802   7.196   1.964  0.0290  0.0371 -0.1016
 8624TIP3    H250068   1.706   7.233   2.075  0.4164 -0.4063  0.3857
 8625TIP3   OH250069   2.010   1.399   9.053 -0.0972  0.2094  0.5176
 8625TIP3    H150070   1.950   1.366   8.986 -0.7461  0.2762  1.0598
 8625TIP3    H250071   2.059   1.321   9.081 -0.1789  0.0892  0.3282
 8626TIP3   OH250072   2.518   1.984   9.136  0.3834 -0.2423  0.0403
 8626TIP3    H150073   2.573   1.906   9.129 -0.6075 -1.2132  2.1620
 8626TIP3    H250074   2.461   1.980   9.059  1.5146 -0.6327 -0.7992
 8627TIP3   OH250075   3.034   2.848   1.197  0.5155  0.6956 -0.1950
 8627TIP3    H150076   3.078   2.861   1.113  0.1543  0.3601 -0.4406
 8627TIP3    H250077   3.016   2.754   1.200  1.1592  0.5816  0.5777
 8628TIP3   OH250078   6.859   4.697   3.181  0.2369 -0.4637 -0.3441
 8628TIP3    H150079   6.859   4.665   3.091  0.3082 -0.6809 -0.2670
 8628TIP3    H250080   6.772   4.674   3.215 -0.5793  1.4671 -1.0099
 8629TIP3   OH250081   7.156   3.041   8.217  0.1674  0.1907  0.3996
 8629TIP3    H150082   7.072   3.087   8.224  0.3361  0.4070  1.1277
 8629TIP3    H250083   7.138   2.968   8.158 -0.3587  0.6231  0.0146
 8630TIP3   OH250084   1.877   2.031   9.896  0.0475 -0.0589  0.4891
 8630TIP3    H150085   1.945   2.028   9.964 -0.8913  1.0434  1.5346
 8630TIP3    H250086   1.917   2.080   9.824  0.9328 -0.9072  0.3920
 8631TIP3   OH250087   2.238   1.993   8.461 -0.3582  0.6404  0.0721
 8631TIP3    H150088   2.151   2.012   8.427  0.2242 -0.3349 -2.1571
 8631TIP3    H250089   2.226   1.915   8.515 -1.1002  1.4996  1.2137
 8632TIP3   OH250090   4.377   0.776   2.225  0.7300  0.1844  0.6305
 8632TIP3    H150091   4.320   0.790   2.302  0.1524  2.4593 -0.1154
 8632TIP3    H250092   4.365   0.855   2.172  0.0228 -1.8577 -2.5398
 8633TIP3   OH250093   6.553   2.851   1.066  0.5429 -0.4346  0.4418
 8633TIP3    H150094   6.631   2.795   1.058  0.7533 -0.4071  1.9796
 8633TIP3    H250095   6.588   2.937   1.089  0.1831  0.2366 -1.3625
 8634TIP3   OH250096   3.247   0.035   0.797 -0.0338 -0.3070  0.1146
 8634TIP3    H150097   3.180  -0.032   0.804  1.0204 -1.2801  1.3226
 8634TIP3    H250098   3.330  -0.012   0.801  0.7449  0.9469 -0.3853
 8635TIP3   OH250099   4.246   6.831   0.510 -0.8658  0.4857  0.0498
 8635TIP3    H150100   4.319   6.887   0.537 -0.3436 -0.6932  1.1652
 8635TIP3    H250101   4.177   6.849   0.575 -0.3499 -0.8340  1.0067
 8636TIP3   OH250102   4.560   1.904   7.840  0.7309 -0.3791  0.0846
 8636TIP3    H150103   4.528   1.827   7.793  0.6093  0.6798 -1.6987
 8636TIP3    H250104   4.655   1.898   7.835  0.7396 -0.8863  0.7897
 8637TIP3   OH250105   3.141   6.547   1.382  0.5585 -0.2413  0.0721
 8637TIP3    H150106   3.116   6.563   1.291  2.5339 -0.0675 -0.4729
 8637TIP3    H250107   3.233   6.523   1.378  0.3634 -1.5001  1.9251
 8638TIP3   OH250108   0.394   5.821   7.507 -0.0731  0.4150  0.1403
 8638TIP3    H150109   0.329   5.791   7.571 -1.3868  1.3875 -0.6955
 8638TIP3    H250110   0.379   5.767   7.430 -0.4204  1.1548 -0.3229
 8639TIP3   OH250111   1.301   6.213   7.513 -0.0457 -0.1810 -0.3815
 8639TIP3    H150112   1.211   6.224   7.542  0.3932 -1.2858  1.5807
 8639TIP3    H250113   1.333   6.136   7.560  1.9170  0.1516 -1.0426
 8640TIP3   OH250114   7.091   4.588   2.305 -0.1957  0.2359  0.0119
 8640TIP3    H150115   7.025   4.535   2.261 -0.6048  0.4743  0.3349
 8640TIP3    H250116   7.164   4.591   2.244 -0.1073 -0.8179  0.0452
 8641TIP3   OH250117   5.250   1.501   7.228 -0.4002  0.0729  0.4920
 8641TIP3    H150118   5.234   1.473   7.318  2.0226  0.8737  1.2639
 8641TIP3    H250119   5.317   1.440   7.196 -0.0152  0.8153 -0.1513
 8642TIP3   OH250120   6.511   5.839   2.080 -0.2248  0.0029  0.1287
 8642TIP3    H150121   6.533   5.757   2.125 -1.0614 -0.1962  0.1928
 8642TIP3    H250122   6.544   5.827   1.991  0.3227 -0.0966  0.3363
 8643TIP3   OH250123   1.587   1.411   8.392  0.0018 -0.2142 -0.0311
 8643TIP3    H150124   1.575   1.316   8.400  0.1952 -0.2701 -0.3790
 8643TIP3    H250125   1.573   1.429   8.299 -0.9378  0.2286  0.1798
 8644TIP3   OH250126   1.395   5.732   7.491  0.3791  0.2996 -1.0869
 8644TIP3    H150127   1.390   5.643   7.524  2.0864  0.4687 -0.2120
 8644TIP3    H250128   1.313   5.773   7.518  0.4052 -0.4677  0.2272
 8645TIP3   OH250129   0.602   6.765   9.468  0.0302  0.3279 -0.2270
 8645TIP3    H150130   0.540   6.718   9.412  1.5949  0.9412 -2.6658
 8645TIP3    H250131   0.681   6.774   9.413  1.0939  2.4765  1.4914
 8646TIP3   OH250132   3.687   1.571   0.619  0.6730 -0.4190  0.2000
 8646TIP3    H150133   3.607   1.585   0.670  1.1436 -0.7110  1.0287
 8646TIP3    H250134   3.723   1.659   0.606  1.3227 -0.4461  1.6495
 8647TIP3   OH250135   5.896   4.965   8.916  0.0106  0.2551 -0.0847
 8647TIP3    H150136   5.837   4.905   8.963 -2.1118  1.4319 -1.1172
 8647TIP3    H250137   5.893   5.046   8.967  1.6132  0.0200  0.4272
 8648TIP3   OH250138   4.802   5.353   9.714 -0.3021 -0.1793 -0.3037
 8648TIP3    H150139   4.717   5.316   9.734 -1.4758  1.2820 -2.1797
 8648TIP3    H250140   4.809   5.347   9.618  1.5629  0.0069 -0.2191
 8649TIP3   OH250141   6.825   6.376   0.833  0.0834  0.2419  0.0084
 8649TIP3    H150142   6.800   6.449   0.889 -0.7652 -0.4967  0.6273
 8649TIP3    H250143   6.916   6.358   0.856  0.4982  1.4693 -0.5822
 8650TIP3   OH250144   4.336   2.107   7.856  0.0635 -0.1631 -0.4564
 8650TIP3    H150145   4.255   2.057   7.861  0.1355 -0.3688 -1.2561
 8650TIP3    H250146   4.398   2.047   7.813  0.4508  0.2255 -0.4411
 8651TIP3   OH250147   3.667   2.472   2.271 -0.0376 -0.2260  0.2822
 8651TIP3    H150148   3.580   2.474   2.311  0.8690 -0.3309  2.3831
 8651TIP3    H250149   3.698   2.383   2.284  0.4259 -0.1719 -0.3931
 8652TIP3   OH250150   1.038   2.704   1.010  0.3798 -0.2807 -0.5273
 8652TIP3    H150151   1.091   2.625   1.003 -0.0952 -0.5857 -0.7085
 8652TIP3    H250152   1.101   2.776   1.004  0.8260 -0.6425 -0.2545
 8653TIP3   OH250153   4.664   3.086   9.816 -0.0606 -0.3084 -0.4016
 8653TIP3    H150154   4.744   3.137   9.824 -0.2213 -0.1176 -0.0011
 8653TIP3    H250155   4.691   2.996   9.830 -0.1555 -0.0991  1.2550
 8654TIP3   OH250156   6.415   6.365   0.510  0.1027 -0.3901 -0.2355
 8654TIP3    H150157   6.408   6.382   0.604 -3.0042 -0.5204 -0.3495
 8654TIP3    H250158   6.370   6.439   0.469  4.0652  1.3667 -1.9323
 8655TIP3   OH250159   3.475   1.861   0.257  0.0085 -0.6213  0.3894
 8655TIP3    H150160   3.537   1.791   0.240 -1.8701 -1.9741 -1.3707
 8655TIP3    H250161   3.450   1.893   0.170 -0.5058  1.0328  1.1053
 8656TIP3   OH250162   5.684   2.141   9.657  0.3787  0.1349 -0.0370
 8656TIP3    H150163   5.622   2.074   9.686  0.6032 -0.2384 -0.4246
 8656TIP3    H250164   5.724   2.173   9.738  1.5907 -1.4682  0.0351
 8657TIP3   OH250165   2.132   2.787   9.661 -0.1815 -0.2832 -0.7630
 8657TIP3    H150166   2.200   2.721   9.679 -0.7620 -0.8157 -0.4828
 8657TIP3    H250167   2.179   2.870   9.663  0.1075 -0.4317  1.7164
 8658TIP3   OH250168   1.000   1.642   1.801  0.0208 -0.1784  0.3962
 8658TIP3    H150169   1.036   1.557   1.829 -1.3241 -0.2228  2.1746
 8658TIP3    H250170   1.031   1.703   1.868  1.3447  0.8727 -1.1124
 8659TIP3   OH250171   0.676   5.078   8.138  0.3478  0.0718 -0.0100
 8659TIP3    H150172   0.747   5.016   8.123  1.1163  0.6988  0.8893
 8659TIP3    H250173   0.622   5.073   8.059  1.0467 -0.8659 -0.4449
 8660TIP3   OH250174   3.087   3.867   0.155 -0.0285 -0.2653 -0.4663
 8660TIP3    H150175   3.146   3.940   0.137  1.5110 -1.4738 -0.5019
 8660TIP3    H250176   3.001   3.908   0.167  0.9319  1.6135  0.3629
 8661TIP3   OH250177   1.348   1.831   1.374  0.3363 -0.3276 -0.4914
 8661TIP3    H150178   1.416   1.764   1.362 -0.4358 -1.1915 -0.2417
 8661TIP3    H250179   1.333   1.833   1.468  0.3765  0.2339 -0.4949
 8662TIP3   OH250180   6.363   6.826   2.603 -0.8058  0.0115 -0.5873
 8662TIP3    H150181   6.432   6.760   2.604 -1.6291 -0.9020  1.3665
 8662TIP3    H250182   6.404   6.905   2.638 -0.9062 -0.7469  1.3264
 8663TIP3   OH250183   4.323   3.842   1.468  0.3233  0.5423  0.6034
 8663TIP3    H150184   4.324   3.767   1.527  2.1239  1.3412  1.6731
 8663TIP3    H250185   4.352   3.807   1.384 -1.1767 -0.3852  0.4266
 8664TIP3   OH250186   4.897   3.714   7.019  0.3512 -0.3014  0.2344
 8664TIP3    H150187   4.992   3.705   7.021  0.3905  0.2112  1.0352
 8664TIP3    H250188   4.879   3.791   7.073 -0.3507  1.0594 -1.8017
 8665TIP3   OH250189   1.601   2.377   1.569 -0.5724 -0.4777 -0.1528
 8665TIP3    H150190   1.619   2.438   1.497  0.4830  0.1620  0.6260
 8665TIP3    H250191   1.506   2.383   1.582 -0.4440  1.4420  0.2400
 8666TIP3   OH250192   4.803   6.682   8.577 -0.3685  0.3607  0.2676
 8666TIP3    H150193   4.708   6.684   8.563 -0.4402 -0.2700  0.5999
 8666TIP3    H250194   4.840   6.692   8.489 -0.7763 -1.0657 -0.0965
 8667TIP3   OH250195   1.737   3.458   9.032  0.2932 -0.4414  0.8744
 8667TIP3    H150196   1.810   3.518   9.019 -0.7957  0.4602 -1.8247
 8667TIP3    H250197   1.733   3.445   9.127  1.7408  2.2588  1.3983
 8668TIP3   OH250198   3.527   6.382   8.236  0.8974 -0.5250  0.2981
 8668TIP3    H150199   3.609   6.335   8.221 -0.3031 -2.3380 -1.0285
 8668TIP3    H250200   3.464   6.313   8.260 -0.6143  0.5805 -0.3296
 8669TIP3   OH250201   0.311   3.612   8.770 -0.2047 -0.2506  0.0904
 8669TIP3    H150202   0.318   3.706   8.752 -0.4009  0.2038  2.1369
 8669TIP3    H250203   0.378   3.595   8.837 -1.5508 -1.1082  1.2846
 8670TIP3   OH250204   5.574   5.522   8.336 -0.0939  0.1354 -0.5072
 8670TIP3    H150205   5.633   5.589   8.369 -0.3218  0.5488 -0.9337
 8670TIP3    H250206   5.632   5.450   8.308  0.1202 -0.0521  0.4006
 8671TIP3   OH250207   5.452   3.539   9.341  1.1719 -0.6069  0.5760
 8671TIP3    H150208   5.363   3.504   9.333  0.6470  0.7765 -0.0084
 8671TIP3    H250209   5.483   3.506   9.425 -0.2287 -0.4081  1.2074
 8672TIP3   OH250210   4.238   0.787   0.269 -0.2177  0.1463  0.7212
 8672TIP3    H150211   4.204   0.775   0.358 -0.5387 -1.3435  0.4342
 8672TIP3    H250212   4.161   0.808   0.216 -0.5780 -2.0362  0.2851
 8673TIP3   OH250213   4.641   3.401   7.091  0.2438 -0.2124 -0.0371
 8673TIP3    H150214   4.634   3.470   7.025  0.9869  0.0712  0.1726
 8673TIP3    H250215   4.731   3.369   7.084 -0.8973 -3.4489 -2.3686
 8674TIP3   OH250216   4.087   2.133   1.395 -0.3696  0.0090  0.3281
 8674TIP3    H150217   4.034   2.197   1.442 -1.0870 -0.1709 -0.2176
 8674TIP3    H250218   4.053   2.134   1.306  0.2182 -0.4725  0.0880
 8675TIP3   OH250219   0.674   5.168   0.818 -0.0277  0.6073 -0.0553
 8675TIP3    H150220   0.698   5.075   0.808 -1.0197  0.3387  0.0100
 8675TIP3    H250221   0.642   5.193   0.731  0.2993  0.9099 -0.0889
 8676TIP3   OH250222   4.105   2.660   7.067 -0.2913  0.4370  0.0891
 8676TIP3    H150223   4.187   2.705   7.048  0.0652  0.0733  0.7276
 8676TIP3    H250224   4.054   2.723   7.118 -0.4019  0.6503 -0.2795
 8677TIP3   OH250225   0.401   2.697   8.882  0.0143 -0.1289 -0.0166
 8677TIP3    H150226   0.344   2.688   8.806  1.6140  0.0837 -1.2980
 8677TIP3    H250227   0.489   2.678   8.849  0.7987  0.2088  1.7339
 8678TIP3   OH250228   0.869   0.803   0.553  0.0781  0.2627  0.3835
 8678TIP3    H150229   0.947   0.792   0.498  0.4898 -1.0196  1.1867
 8678TIP3    H250230   0.903   0.837   0.635 -0.2678  0.1609  0.5689
 8679TIP3   OH250231   2.783   5.974   7.319 -1.2170  0.2740 -0.3552
 8679TIP3    H150232   2.872   5.998   7.293 -1.0912  0.7060  0.4305
 8679TIP3    H250233   2.760   6.038   7.387 -0.7630 -1.9392  2.0441
 8680TIP3   OH250234   7.122   4.776   3.307  0.0249 -0.1177 -0.0203
 8680TIP3    H150235   7.158   4.687   3.318 -0.9764 -0.6094 -0.5655
 8680TIP3    H250236   7.035   4.762   3.271 -0.0975  1.1083 -0.2427
 8681TIP3   OH250237   5.615   0.271   1.044  0.4848 -0.2077 -0.1153
 8681TIP3    H150238   5.708   0.290   1.041  0.3495  0.4373 -0.5138
 8681TIP3    H250239   5.574   0.354   1.069 -0.0112 -0.3691 -0.3768
 8682TIP3   OH250240   5.738   5.549   1.050  0.6285 -0.0836  0.5464
 8682TIP3    H150241   5.716   5.471   1.102 -0.4764  0.4900  0.9769
 8682TIP3    H250242   5.740   5.620   1.113 -1.5074  0.7683 -0.2424
 8683TIP3   OH250243   4.920   1.508   8.266 -0.3606 -0.4318  0.0782
 8683TIP3    H150244   4.999   1.559   8.246  0.8951 -1.9524  0.9323
 8683TIP3    H250245   4.926   1.492   8.360 -0.4933 -2.4750 -0.2210
 8684TIP3   OH250246   0.685   0.188   9.758 -0.0781  0.0035 -0.2516
 8684TIP3    H150247   0.735   0.110   9.781  1.1263  0.8029 -0.1289
 8684TIP3    H250248   0.694   0.196   9.663  0.6052  0.5288 -0.1478
 8685TIP3   OH250249   1.083   6.348   7.590  0.1523 -0.7607 -0.1899
 8685TIP3    H150250   1.143   6.367   7.661 -1.4846  2.5241  0.5150
 8685TIP3    H250251   1.003   6.317   7.633  0.0050 -1.3206 -0.8326
 8686TIP3   OH250252   0.988   4.178   9.724 -0.2961  0.5470  0.5585
 8686TIP3    H150253   0.960   4.117   9.655  1.6135 -0.1276  0.3382
 8686TIP3    H250254   0.948   4.144   9.804  0.5557 -0.8920  0.4025
 8687TIP3   OH250255   2.188   4.569   8.318  0.1222 -0.2085 -0.3170
 8687TIP3    H150256   2.251   4.503   8.347 -0.8936 -0.3526  1.7472
 8687TIP3    H250257   2.242   4.636   8.275  1.5632 -0.8242  0.4516
 8688TIP3   OH250258   5.729   1.889   1.019 -0.1576  0.1304  0.3862
 8688TIP3    H150259   5.675   1.909   1.096 -2.3201  2.7302 -1.5867
 8688TIP3    H250260   5.666   1.868   0.951  1.5599 -0.1095 -1.2085
 8689TIP3   OH250261   3.253   2.073   0.599 -0.6393 -0.0136 -0.2185
 8689TIP3    H150262   3.252   1.994   0.653 -0.3786  1.2723  1.7966
 8689TIP3    H250263   3.249   2.041   0.509 -0.6363 -2.2962  0.5252
 8690TIP3   OH250264   4.546   4.742   1.109 -0.3326 -0.1328  0.3281
 8690TIP3    H150265   4.482   4.783   1.051 -1.0880  0.0757  1.2677
 8690TIP3    H250266   4.503   4.660   1.137  1.2507 -1.7599 -1.7192
 8691TIP3   OH250267   6.065   2.039   9.414 -0.5262  0.3075  0.1144
 8691TIP3    H150268   6.029   1.956   9.446  0.0660  0.2294  0.5945
 8691TIP3    H250269   6.083   2.089   9.493 -3.7347  2.1888 -0.1594
 8692TIP3   OH250270   3.470   6.614   8.113  0.3631  0.0655  0.4861
 8692TIP3    H150271   3.383   6.618   8.074  0.4227 -0.2253  0.3272
 8692TIP3    H250272   3.473   6.530   8.159  0.9562 -0.4274 -0.4403
 8693TIP3   OH250273   2.288   2.579   9.360  0.0592  0.0194  0.6386
 8693TIP3    H150274   2.291   2.567   9.454 -1.6085  0.3886  0.7652
 8693TIP3    H250275   2.242   2.662   9.347 -1.9340 -1.1642 -0.5148
 8694TIP3   OH250276   6.201   0.240   8.309  0.3953  0.5320  0.5324
 8694TIP3    H150277   6.197   0.151   8.274  2.8000  0.1659  1.0228
 8694TIP3    H250278   6.211   0.296   8.232  4.3994 -0.1627  0.3066
 8695TIP3   OH250279   0.359   2.056   0.198 -0.1799  0.6899 -0.4099
 8695TIP3    H150280   0.289   2.103   0.244  0.8389 -0.0608  2.0663
 8695TIP3    H250281   0.428   2.122   0.188  0.9652  0.0821  2.4210
 8696TIP3   OH250282   5.227   6.435   7.171 -0.1943 -0.0248 -0.0454
 8696TIP3    H150283   5.152   6.392   7.212 -0.5820 -0.1146 -0.8162
 8696TIP3    H250284   5.189   6.486   7.099  0.6444 -1.6571 -1.7327
 8697TIP3   OH250285   3.602   3.534   0.250  0.2336  0.2417 -0.5308
 8697TIP3    H150286   3.538   3.522   0.181 -0.7855  1.8398  0.0757
 8697TIP3    H250287   3.653   3.610   0.223  0.4957  0.2618 -0.0025
 8698TIP3   OH250288   5.596   0.065   1.312  0.5229 -0.0714  0.4093
 8698TIP3    H150289   5.527   0.104   1.365 -1.0415 -1.4276 -0.5294
 8698TIP3    H250290   5.656   0.137   1.294 -0.6530  1.1605  1.2423
 8699TIP3   OH250291   3.225   1.939   8.421 -0.2789  0.6251  0.1029
 8699TIP3    H150292   3.139   1.953   8.381 -0.5607 -0.0042  0.4714
 8699TIP3    H250293   3.283   1.917   8.348 -0.2689  1.7051 -0.2328
 8700TIP3   OH250294   6.239   0.862   9.673 -0.2713 -0.3358 -0.5917
 8700TIP3    H150295   6.314   0.810   9.644 -0.2708 -0.0854 -1.0480
 8700TIP3    H250296   6.265   0.952   9.658 -1.0596 -0.2831 -1.7259
 8701TIP3   OH250297   5.592   3.625   1.081 -0.0318  0.2181  0.1481
 8701TIP3    H150298   5.576   3.694   1.145 -1.9710 -0.4069  0.4041
 8701TIP3    H250299   5.561   3.660   0.998 -1.7282 -0.5614  0.4139
 8702TIP3   OH250300   2.897   0.442   6.354  0.3379  0.2669  0.4384
 8702TIP3    H150301   2.872   0.434   6.262 -1.0870  2.0608  0.5949
 8702TIP3    H250302   2.925   0.355   6.380 -0.1693 -0.4906 -1.4405
 8703TIP3   OH250303   0.829   2.775   0.868  0.0828  0.5015 -0.7431
 8703TIP3    H150304   0.771   2.700   0.850  1.3467 -0.1389 -2.4216
 8703TIP3    H250305   0.898   2.738   0.923 -1.3201  1.4025  1.7721
 8704TIP3   OH250306   7.237   4.592   1.083 -0.4060 -0.2220  0.3792
 8704TIP3    H150307   7.207   4.593   1.174 -0.0666 -0.8361  0.5070
 8704TIP3    H250308   7.170   4.640   1.035  0.3883  1.8180  1.2355
 8705TIP3   OH250309   1.016   1.715   0.797 -0.0826 -0.0667 -0.3828
 8705TIP3    H150310   0.963   1.721   0.876  0.4445 -0.7952  0.0303
 8705TIP3    H250311   0.998   1.628   0.761  0.9061 -0.3712 -0.1743
 8706TIP3   OH250312   0.833   1.698   8.657  0.5861  0.0549 -0.2355
 8706TIP3    H150313   0.921   1.706   8.692  0.8920 -1.3914 -0.5735
 8706TIP3    H250314   0.776   1.703   8.734  1.1540 -1.6105  0.3418
 8707TIP3   OH250315   6.675   0.963   8.028  0.2213 -0.2933 -0.1478
 8707TIP3    H150316   6.681   1.019   8.106  1.1086 -0.6879  0.0806
 8707TIP3    H250317   6.764   0.929   8.017  0.3799  0.6185 -1.9709
 8708TIP3   OH250318   6.325   4.829   7.599 -0.1574 -0.4566 -0.1925
 8708TIP3    H150319   6.383   4.902   7.574 -3.0913  2.3925  0.5499
 8708TIP3    H250320   6.349   4.810   7.690 -0.8342  1.3315  0.4211
 8709TIP3   OH250321   4.938   6.102   7.373 -0.3075 -0.1797 -0.3554
 8709TIP3    H150322   4.957   6.177   7.317 -3.0375  0.0987 -1.0162
 8709TIP3    H250323   4.890   6.139   7.448  2.9144 -0.5844  2.1558
 8710TIP3   OH250324   2.377   6.338   8.051  0.2358  0.0156 -0.5318
 8710TIP3    H150325   2.307   6.294   8.099 -1.1160  1.6052 -0.9462
 8710TIP3    H250326   2.428   6.267   8.012 -0.5666 -1.2088  0.5764
 8711TIP3   OH250327   6.308   3.664   9.574 -0.1475 -0.0229  0.0044
 8711TIP3    H150328   6.253   3.665   9.653 -2.0492  0.7147 -1.2658
 8711TIP3    H250329   6.385   3.715   9.598 -0.3800 -0.3562  1.5747
 8712TIP3   OH250330   1.267   1.363   8.538  0.2517 -0.6041  0.4056
 8712TIP3    H150331   1.225   1.354   8.624  0.3104  0.4995  0.5637
 8712TIP3    H250332   1.338   1.425   8.553  0.6538 -0.8833 -0.3154
 8713TIP3   OH250333   2.149   2.079   7.074  0.0774 -0.7028 -0.2353
 8713TIP3    H150334   2.144   2.174   7.084 -0.1533 -0.7672  0.3435
 8713TIP3    H250335   2.068   2.056   7.028 -1.0890 -0.8542  1.7521
 8714TIP3   OH250336   6.126   1.401   1.857 -0.0334 -0.6644  0.0343
 8714TIP3    H150337   6.221   1.392   1.860  0.1662  1.1307  1.2194
 8714TIP3    H250338   6.098   1.393   1.948 -0.8421  0.0994 -0.1254
 8715TIP3   OH250339   3.551   6.160   0.364 -0.0074 -0.2608  0.3995
 8715TIP3    H150340   3.472   6.146   0.312  0.8882  0.6544 -1.2945
 8715TIP3    H250341   3.596   6.076   0.361  0.2286 -0.1119 -0.6976
 8716TIP3   OH250342   1.363   0.899   7.365 -0.2001  0.1581 -0.4090
 8716TIP3    H150343   1.317   0.856   7.437 -1.1385  1.9461  0.1234
 8716TIP3    H250344   1.342   0.847   7.288  0.9473 -1.9007  0.5737
 8717TIP3   OH250345   1.985   3.695   2.980  0.3710 -0.4982  0.2002
 8717TIP3    H150346   1.952   3.785   2.986  0.6330 -0.4089  0.3329
 8717TIP3    H250347   1.985   3.676   2.887  1.6617  0.1571  0.0474
 8718TIP3   OH250348   5.717   5.524   8.779 -0.6004 -0.2826 -0.1302
 8718TIP3    H150349   5.649   5.535   8.712 -1.2166 -0.4935  0.4536
 8718TIP3    H250350   5.795   5.498   8.729 -0.6194  1.0861 -0.9298
 8719TIP3   OH250351   4.377   3.075   9.280 -0.2082  0.5439 -0.5122
 8719TIP3    H150352   4.313   3.011   9.247  0.4814 -1.5935  1.9290
 8719TIP3    H250353   4.325   3.135   9.334 -0.2642 -1.1417  1.4114
 8720TIP3   OH250354   0.989   2.342   8.428 -0.1247 -0.1919  0.1445
 8720TIP3    H150355   0.949   2.421   8.464 -1.0909 -1.4623  1.9887
 8720TIP3    H250356   0.922   2.306   8.370  0.2066  0.1554 -0.4699
 8721TIP3   OH250357   0.121   2.447   2.460 -0.1754  0.3227  0.4445
 8721TIP3    H150358   0.134   2.386   2.532  2.3376 -0.1516 -0.3019
 8721TIP3    H250359   0.153   2.531   2.494 -0.5887  0.4904  0.4230
 8722TIP3   OH250360   6.199   5.614   2.699  0.3674 -0.4708  0.2558
 8722TIP3    H150361   6.286   5.581   2.674  0.1595 -1.5673  0.9101
 8722TIP3    H250362   6.217   5.701   2.736  0.8358  0.5567 -2.2042
 8723TIP3   OH250363   2.446   1.796   0.908  0.1674  0.2166 -0.1249
 8723TIP3    H150364   2.496   1.843   0.842 -0.0920  1.1124  0.2968
 8723TIP3    H250365   2.375   1.857   0.931 -1.9879 -1.5201 -1.7125
 8724TIP3   OH250366   6.774   4.406   0.969 -0.0317  0.2949  0.2897
 8724TIP3    H150367   6.748   4.314   0.971  1.1496 -0.1153 -1.1661
 8724TIP3    H250368   6.694   4.454   0.990 -1.5533 -0.9535 -2.2111
 8725TIP3   OH250369   0.266   4.478   1.727  0.1293  0.2117 -0.0639
 8725TIP3    H150370   0.191   4.440   1.680  0.5143  0.3044 -0.7723
 8725TIP3    H250371   0.342   4.447   1.678  0.6256 -0.7286  1.2422
 8726TIP3   OH250372   4.356   4.868   6.587 -0.3843 -0.4562  0.0807
 8726TIP3    H150373   4.367   4.920   6.507 -1.7931 -0.2301  0.0092
 8726TIP3    H250374   4.262   4.849   6.590  0.0656 -2.9351  0.1641
 8727TIP3   OH250375   1.297   3.593   2.771  0.2966 -0.1505  0.4570
 8727TIP3    H150376   1.359   3.530   2.733 -0.3909 -0.4862 -0.1327
 8727TIP3    H250377   1.301   3.576   2.865 -0.6688 -1.8533  0.2297
 8728TIP3   OH250378   0.776   4.743   9.463  0.0595  0.0264 -0.1422
 8728TIP3    H150379   0.759   4.775   9.375 -1.2899 -0.6761 -0.1605
 8728TIP3    H250380   0.759   4.818   9.520 -3.0556 -0.5379 -0.1867
 8729TIP3   OH250381   5.275   5.087   1.406  0.3564 -0.3751  0.6183
 8729TIP3    H150382   5.327   5.167   1.394  0.3018 -0.6806 -2.4633
 8729TIP3    H250383   5.215   5.109   1.477 -0.4485  2.8261 -0.8268
 8730TIP3   OH250384   2.332   4.736   2.254 -0.4766  0.4830 -0.2794
 8730TIP3    H150385   2.242   4.704   2.262 -0.8122  1.0929 -1.4467
 8730TIP3    H250386   2.382   4.681   2.315 -1.6791  0.3628  0.6504
 8731TIP3   OH250387   6.976   5.031   8.584  0.2687  0.0873  1.0005
 8731TIP3    H150388   6.913   5.034   8.656  0.5509  0.1763  1.2460
 8731TIP3    H250389   6.961   5.113   8.536 -0.4528 -0.3322  0.4993
 8732TIP3   OH250390   6.536   5.295   8.040  0.2072  0.0482  0.4001
 8732TIP3    H150391   6.493   5.257   7.963  0.0486 -0.9215  0.9471
 8732TIP3    H250392   6.474   5.359   8.073 -0.1780 -0.2846  0.3275
 8733TIP3   OH250393   1.655   3.792   1.326  0.2758  0.8155  0.2450
 8733TIP3    H150394   1.585   3.759   1.382  2.6304 -1.2940  2.1715
 8733TIP3    H250395   1.668   3.722   1.261  0.5632  1.2083 -0.1250
 8734TIP3   OH250396   1.422   1.556   1.330 -0.4386 -0.2625 -0.2210
 8734TIP3    H150397   1.501   1.601   1.361 -0.2825 -0.7078  0.0449
 8734TIP3    H250398   1.366   1.550   1.408 -1.4671  1.5102 -0.7544
 8735TIP3   OH250399   0.656   2.255   7.852 -1.0314  0.1968 -0.5566
 8735TIP3    H150400   0.597   2.216   7.916  0.8687 -2.2065 -0.0815
 8735TIP3    H250401   0.715   2.183   7.827  0.6660  2.0102 -2.1797
 8736TIP3   OH250402   5.221   5.718   6.554  0.7747 -0.2240  0.3034
 8736TIP3    H150403   5.128   5.718   6.531  0.7913 -1.7471  0.1901
 8736TIP3    H250404   5.257   5.794   6.507 -0.6630  1.3096  1.5522
 8737TIP3   OH250405   5.900   0.700   2.434 -0.1434 -0.4890  0.1290
 8737TIP3    H150406   5.946   0.625   2.473 -0.5215 -0.8583 -0.1239
 8737TIP3    H250407   5.831   0.661   2.380 -1.8574  0.0605  1.8196
 8738TIP3   OH250408   4.706   6.080   8.111 -0.2974 -0.2636 -0.2567
 8738TIP3    H150409   4.800   6.096   8.124  0.2393 -2.0515 -1.5422
 8738TIP3    H250410   4.674   6.160   8.068  0.8147  0.0441 -0.5530
 8739TIP3   OH250411   4.268   5.761   6.605  0.9801 -0.4791  0.0635
 8739TIP3    H150412   4.233   5.848   6.587 -1.1275 -1.3715 -0.4607
 8739TIP3    H250413   4.298   5.766   6.696 -0.3846  0.4312  0.4964
 8740TIP3   OH250414   7.101   1.788   1.719 -0.4841 -0.2207  0.1897
 8740TIP3    H150415   7.054   1.719   1.674 -2.2578 -0.2822  1.9721
 8740TIP3    H250416   7.163   1.742   1.776  0.7707 -0.1891 -1.1198
 8741TIP3   OH250417   7.037   3.667   2.036 -0.7576  0.2940  0.4334
 8741TIP3    H150418   7.116   3.624   2.005 -0.5522 -0.1062  1.4594
 8741TIP3    H250419   7.020   3.736   1.973 -0.0799 -0.1673 -0.2643
 8742TIP3   OH250420   0.570   4.558   2.343  0.0374 -0.2450 -0.1570
 8742TIP3    H150421   0.567   4.535   2.250  1.2181  0.4907 -0.4054
 8742TIP3    H250422   0.485   4.598   2.361  0.0408  0.2097 -1.0987
 8743TIP3   OH250423   0.466   6.910   0.407 -0.4132 -0.6173 -0.1895
 8743TIP3    H150424   0.445   6.867   0.490  0.2493 -3.5289 -1.3865
 8743TIP3    H250425   0.440   6.846   0.341  3.3572 -0.4501 -2.0521
 8744TIP3   OH250426   6.844   1.582   9.420 -0.5482  0.4408 -0.2282
 8744TIP3    H150427   6.874   1.497   9.450 -1.6728 -0.1241 -0.6267
 8744TIP3    H250428   6.807   1.624   9.498 -0.9227  0.1334 -0.2392
 8745TIP3   OH250429   7.195   0.317   7.752 -0.4232  0.0753  0.0690
 8745TIP3    H150430   7.124   0.253   7.755  0.1916 -0.6078  0.8379
 8745TIP3    H250431   7.257   0.281   7.688 -0.8359  0.7575 -0.7326
 8746TIP3   OH250432   2.059   2.419   0.021 -0.1411 -0.0213 -0.2892
 8746TIP3    H150433   1.979   2.440   0.070  0.0849  0.9689 -0.3395
 8746TIP3    H250434   2.103   2.354   0.076  0.5959  1.7784  1.3608
 8747TIP3   OH250435   7.227   6.550   8.634 -0.4496 -0.3546 -0.3144
 8747TIP3    H150436   7.294   6.493   8.671 -0.4117  0.4692  0.9484
 8747TIP3    H250437   7.276   6.619   8.589 -0.4457 -0.1356  0.0178
 8748TIP3   OH250438   5.484   0.933   0.550 -0.4405 -0.1905  0.1328
 8748TIP3    H150439   5.539   0.968   0.479 -0.8865 -0.6900 -0.4770
 8748TIP3    H250440   5.395   0.958   0.525 -0.5531  0.0655  0.7836
 8749TIP3   OH250441   2.550   2.669   0.847 -0.0585  0.3756 -0.4529
 8749TIP3    H150442   2.538   2.719   0.927 -2.5263 -1.2087  0.2803
 8749TIP3    H250443   2.463   2.664   0.808  0.6506 -0.8728 -2.0287
 8750TIP3   OH250444   3.568   1.077   1.192  0.0668 -0.4241 -0.2754
 8750TIP3    H150445   3.509   1.149   1.169  1.0909  0.9558  1.1799
 8750TIP3    H250446   3.517   1.023   1.252 -0.2540 -0.1431 -0.2879
 8751TIP3   OH250447   6.352   7.121   7.975 -0.0959  0.2471  0.4061
 8751TIP3    H150448   6.419   7.153   7.914 -0.7066  3.1229  1.0977
 8751TIP3    H250449   6.366   7.171   8.055 -2.0589 -0.2767  1.1423
 8752TIP3   OH250450   2.941   0.381   2.531  0.0062  0.1669 -0.3112
 8752TIP3    H150451   2.964   0.337   2.449 -1.6822  0.3264 -0.9061
 8752TIP3    H250452   2.956   0.315   2.599  2.7960  0.4677 -0.5184
 8753TIP3   OH250453   3.255   1.477   7.174 -0.5244 -0.5657 -0.2380
 8753TIP3    H150454   3.304   1.395   7.183  1.4613  0.1698 -3.0519
 8753TIP3    H250455   3.309   1.542   7.219 -1.4451 -0.5142  0.8487
 8754TIP3   OH250456   3.529   5.661   7.523 -0.7175  0.0540  0.9436
 8754TIP3    H150457   3.595   5.656   7.454 -2.2502  1.3092 -0.6925
 8754TIP3    H250458   3.511   5.569   7.546 -0.0349 -0.3766 -0.1828
 8755TIP3   OH250459   6.523   2.612   2.018  0.3374  0.6496 -0.2156
 8755TIP3    H150460   6.444   2.583   2.064 -0.0159  0.3990 -0.9491
 8755TIP3    H250461   6.595   2.590   2.076 -0.0655 -0.0481  0.0364
 8756TIP3   OH250462   5.255   2.797   0.644 -0.2188 -0.2500 -0.6132
 8756TIP3    H150463   5.203   2.738   0.589 -0.0655  0.0638 -1.1003
 8756TIP3    H250464   5.190   2.849   0.691 -0.3537 -0.7030 -0.2882
 8757TIP3   OH250465   3.838   0.714   0.775  0.0200 -0.2922 -0.1020
 8757TIP3    H150466   3.932   0.702   0.789  0.1107 -0.5047 -0.8718
 8757TIP3    H250467   3.814   0.644   0.714 -0.3624  0.6336 -1.0232
 8758TIP3   OH250468   1.911   6.632   1.630 -0.3304  0.4499 -0.5487
 8758TIP3    H150469   1.886   6.616   1.539 -2.6805 -0.7667  0.2240
 8758TIP3    H250470   1.850   6.699   1.660 -0.9731 -0.6308  0.6636
 8759TIP3   OH250471   2.883   2.966   7.153 -0.2032 -0.4921 -0.3665
 8759TIP3    H150472   2.890   2.957   7.058 -1.3409 -1.2688 -0.3991
 8759TIP3    H250473   2.966   2.933   7.186 -0.7966 -2.7290 -0.9794
 8760TIP3   OH250474   4.785   1.249   9.630  0.0739 -0.1376 -0.5271
 8760TIP3    H150475   4.784   1.256   9.725  0.7230  0.4682 -0.5598
 8760TIP3    H250476   4.697   1.275   9.603  0.9933  3.7159 -0.3447
 8761TIP3   OH250477   2.345   3.188   9.121  0.3866 -0.6584 -0.3354
 8761TIP3    H150478   2.400   3.259   9.155  0.4469 -0.6681 -0.4127
 8761TIP3    H250479   2.376   3.111   9.168 -0.1069 -0.5258  0.2147
 8762TIP3   OH250480   0.994   5.687   8.738  0.6011 -0.2571  0.6436
 8762TIP3    H150481   0.955   5.614   8.690 -0.3572 -0.2365  1.3423
 8762TIP3    H250482   0.938   5.696   8.816 -1.2636  3.1945 -0.8573
 8763TIP3   OH250483   4.352   6.145   9.276 -0.3310  0.2690 -0.1025
 8763TIP3    H150484   4.263   6.112   9.285 -0.7358  1.6083  1.1945
 8763TIP3    H250485   4.403   6.069   9.247 -1.4211 -1.2212  1.6791
 8764TIP3   OH250486   0.449   1.693   9.830  0.3591  0.0695 -0.2541
 8764TIP3    H150487   0.416   1.781   9.848  0.5644  0.0694  0.1284
 8764TIP3    H250488   0.455   1.689   9.734 -0.0263  0.3309 -0.2921
 8765TIP3   OH250489   0.858   1.639   0.273 -0.3828  0.1035  0.0888
 8765TIP3    H150490   0.773   1.681   0.279 -0.2932  0.3152 -0.0977
 8765TIP3    H250491   0.915   1.705   0.233 -0.3237 -0.3065 -0.5312
 8766TIP3   OH250492   2.660   3.040   0.770 -0.2148  0.3107  0.2182
 8766TIP3    H150493   2.684   2.993   0.850 -0.8184 -0.7086 -0.1787
 8766TIP3    H250494   2.646   2.971   0.704  1.2852  1.1673 -1.0640
 8767TIP3   OH250495   7.137   0.520   1.326  0.4319  0.5413  0.4243
 8767TIP3    H150496   7.126   0.545   1.234 -1.1978 -1.4184  0.0071
 8767TIP3    H250497   7.205   0.452   1.324  1.1273  1.2199  0.8163
 8768TIP3   OH250498   2.444   6.605   8.107  0.3743 -0.3923  0.3273
 8768TIP3    H150499   2.417   6.513   8.098 -1.4411  0.2180 -1.0322
 8768TIP3    H250500   2.472   6.612   8.198 -0.5790 -2.0311  0.8044
 8769TIP3   OH250501   2.270   3.004   9.517  0.3850  0.1468  0.2240
 8769TIP3    H150502   2.316   2.969   9.441 -0.6273  0.4955 -0.5827
 8769TIP3    H250503   2.252   3.095   9.495  2.0281  0.9336  1.8405
 8770TIP3   OH250504   2.833   1.795   1.499 -0.6647  0.2437 -0.4975
 8770TIP3    H150505   2.835   1.703   1.526 -1.3815 -0.1365 -1.6739
 8770TIP3    H250506   2.924   1.816   1.479 -0.2518  0.2658  1.2030
 8771TIP3   OH250507   2.981   6.505   9.376 -0.0164  0.2062 -0.8605
 8771TIP3    H150508   2.989   6.447   9.452 -3.4325  0.2019 -0.3490
 8771TIP3    H250509   3.059   6.486   9.323  0.3248 -2.9320  0.5364
 8772TIP3   OH250510   1.934   5.903   9.511  0.6292  0.3884 -0.0403
 8772TIP3    H150511   1.985   5.874   9.435  1.1827 -1.2774  0.9213
 8772TIP3    H250512   1.858   5.947   9.474  0.8529 -0.4531 -1.5694
 8773TIP3   OH250513   0.783   0.742   8.765 -0.1784 -0.2090  0.1292
 8773TIP3    H150514   0.875   0.723   8.779 -0.2362 -0.4362  0.2141
 8773TIP3    H250515   0.775   0.836   8.779  0.2130 -0.0298 -0.8316
 8774TIP3   OH250516   6.418   4.440   8.943 -0.0016 -0.5208 -0.3345
 8774TIP3    H150517   6.413   4.522   8.894  1.0117  0.3681  0.9728
 8774TIP3    H250518   6.447   4.376   8.878 -1.0028  0.0861 -1.4274
 8775TIP3   OH250519   4.237   0.944   7.018 -0.5797 -0.0873 -0.3969
 8775TIP3    H150520   4.291   0.879   7.063  1.2533 -0.2818 -2.7234
 8775TIP3    H250521   4.223   1.013   7.084  0.6195 -1.0714  0.9472
 8776TIP3   OH250522   6.982   2.318   0.832 -0.2048 -0.7825  0.5359
 8776TIP3    H150523   6.942   2.368   0.903 -0.3331 -1.3670  0.8799
 8776TIP3    H250524   7.023   2.243   0.875 -3.0877 -2.9925 -0.2506
 8777TIP3   OH250525   1.846   7.117   8.258 -0.6045  0.3430  0.3135
 8777TIP3    H150526   1.802   7.035   8.280  0.3811 -0.3009 -0.0229
 8777TIP3    H250527   1.823   7.132   8.166  0.4278 -0.3865 -0.0872
 8778TIP3   OH250528   1.901   4.248   7.588  0.4712 -0.5287 -0.3308
 8778TIP3    H150529   1.929   4.159   7.608  1.8325 -0.0614 -0.0221
 8778TIP3    H250530   1.979   4.302   7.605 -0.3334  0.7233 -0.4712
 8779TIP3   OH250531   0.822   2.119   7.430  0.0006  0.0085 -0.8535
 8779TIP3    H150532   0.773   2.200   7.415 -0.8988 -0.3135  0.2061
 8779TIP3    H250533   0.902   2.129   7.377 -0.8798  0.8395 -2.0929
 8780TIP3   OH250534   1.702   7.253   7.543  0.9392  0.5103 -0.0860
 8780TIP3    H150535   1.694   7.325   7.606  0.6258  0.5301 -0.1458
 8780TIP3    H250536   1.790   7.262   7.508  0.5659  1.4669 -0.8278
 8781TIP3   OH250537   6.999   6.741   1.741 -0.2689 -0.5902 -0.5194
 8781TIP3    H150538   7.007   6.704   1.829  0.8848 -2.7179 -1.4359
 8781TIP3    H250539   7.049   6.823   1.745  0.5967 -1.1407  0.5743
 8782TIP3   OH250540   3.967   4.799   1.044  0.0994 -0.3451 -0.4569
 8782TIP3    H150541   3.910   4.827   0.973  0.1244  0.6324 -0.1081
 8782TIP3    H250542   3.908   4.785   1.118  0.2025 -0.2492 -0.3553
 8783TIP3   OH250543   3.022   7.274   9.961 -0.1422 -0.2855 -0.6601
 8783TIP3    H150544   3.080   7.305   9.892 -0.8493 -0.1695 -1.2091
 8783TIP3    H250545   3.081   7.252  10.034  0.7414 -1.6177 -1.7253
 8784TIP3   OH250546   7.177   5.493   3.020  0.4918 -0.3431 -0.1077
 8784TIP3    H150547   7.128   5.575   3.025 -1.5704 -1.4562 -0.8680
 8784TIP3    H250548   7.160   5.450   3.104 -1.7477 -1.6848 -1.1536
 8785TIP3   OH250549   2.383   5.774   1.713 -0.2249  0.2576 -0.3324
 8785TIP3    H150550   2.396   5.799   1.622  0.0638 -0.4848 -0.5087
 8785TIP3    H250551   2.419   5.685   1.719 -1.4444 -0.2261  0.1856
 8786TIP3   OH250552   4.853   4.808   7.188 -0.2988 -0.0704  0.8621
 8786TIP3    H150553   4.824   4.839   7.102 -0.7559  1.5649  1.5598
 8786TIP3    H250554   4.908   4.732   7.169 -0.4263  0.2264 -0.8672
 8787TIP3   OH250555   6.054   6.233   6.739 -0.2487  0.1727  0.1850
 8787TIP3    H150556   6.107   6.161   6.705 -1.3185 -0.2199 -0.7394
 8787TIP3    H250557   5.973   6.191   6.769 -0.6138  0.9041  0.2570
 8788TIP3   OH250558   5.006   5.364   7.776  0.2267  0.1529  0.6479
 8788TIP3    H150559   4.933   5.415   7.811  1.0402  0.7746  1.4898
 8788TIP3    H250560   5.015   5.394   7.685  2.1423  3.3185  1.7261
 8789TIP3   OH250561   3.439   6.664   7.295  0.2059  0.0291  0.0060
 8789TIP3    H150562   3.496   6.716   7.239  0.0848 -1.0018 -1.1221
 8789TIP3    H250563   3.375   6.624   7.235  0.2496 -1.3437  0.8189
 8790TIP3   OH250564   2.883   6.903   8.990  0.6762  0.4603  0.1836
 8790TIP3    H150565   2.836   6.960   8.929  0.9979  1.9184  1.2384
 8790TIP3    H250566   2.908   6.827   8.938  0.0816  1.2030 -1.2389
 8791TIP3   OH250567   6.978   5.426   1.896  0.0379 -0.3708  0.7827
 8791TIP3    H150568   6.899   5.415   1.843  0.4380  0.9410 -0.1168
 8791TIP3    H250569   6.946   5.457   1.980 -0.3641  1.1275  0.1057
 8792TIP3   OH250570   1.506   4.965   8.966  0.6314 -0.5788 -0.2372
 8792TIP3    H150571   1.441   5.003   9.025  0.0134 -0.5692 -0.9053
 8792TIP3    H250572   1.577   4.937   9.023  0.4082  0.1711  0.4243
 8793TIP3   OH250573   4.875   6.754   9.536  0.1541  0.3579 -0.1075
 8793TIP3    H150574   4.843   6.830   9.487 -1.6977 -1.2717 -1.6140
 8793TIP3    H250575   4.970   6.760   9.530  0.0881  2.8317  0.3221
 8794TIP3   OH250576   4.041   5.275   2.108 -0.0727 -0.2126  0.4827
 8794TIP3    H150577   3.985   5.352   2.097  0.3458  0.0936  0.5185
 8794TIP3    H250578   3.982   5.208   2.144 -0.4491  0.0695  0.3939
 8795TIP3   OH250579   3.622   4.769   9.409 -0.2667 -0.1913  0.2529
 8795TIP3    H150580   3.622   4.694   9.349  0.4737  0.3117 -0.3828
 8795TIP3    H250581   3.530   4.779   9.435 -0.5815 -0.4575 -0.7424
 8796TIP3   OH250582   0.625   1.736   8.502 -0.0145  0.0931  0.3407
 8796TIP3    H150583   0.583   1.814   8.539  0.2404  0.6112 -0.4251
 8796TIP3    H250584   0.711   1.733   8.543  0.5360  1.0620 -0.6759
 8797TIP3   OH250585   4.693   0.424   0.442 -0.5626  0.1368  0.6046
 8797TIP3    H150586   4.717   0.450   0.353  0.2809  0.0595  0.8063
 8797TIP3    H250587   4.607   0.382   0.432  0.1109 -1.0797 -0.3776
 8798TIP3   OH250588   5.961   5.390   2.221  0.7160  0.0559  0.1319
 8798TIP3    H150589   6.016   5.348   2.154  0.6069  0.9304 -0.5317
 8798TIP3    H250590   5.953   5.325   2.290  0.2838 -1.1396 -1.0056
 8799TIP3   OH250591   2.337   1.571   9.328 -0.5894 -0.4254  0.4934
 8799TIP3    H150592   2.360   1.644   9.271 -3.2715 -1.0395 -1.5948
 8799TIP3    H250593   2.372   1.494   9.284 -1.1367 -0.7385  0.5922
 8800TIP3   OH250594   6.231   0.572   1.212 -0.0070  0.0741  0.3967
 8800TIP3    H150595   6.299   0.587   1.278 -0.1043 -0.2015  0.5628
 8800TIP3    H250596   6.173   0.508   1.252  0.3775 -0.7146 -0.2746
 8801TIP3   OH250597   5.158   5.611   9.219  0.3443 -0.1048  0.1045
 8801TIP3    H150598   5.186   5.545   9.282 -1.2628  0.6189  1.6656
 8801TIP3    H250599   5.109   5.562   9.153  0.3676 -0.6302  0.4716
 8802TIP3   OH250600   0.384   6.575   7.094  0.4377 -0.0973  0.1147
 8802TIP3    H150601   0.478   6.588   7.101  0.2950  0.8619  0.3012
 8802TIP3    H250602   0.375   6.483   7.070  1.4833  0.1077 -1.2157
 8803TIP3   OH250603   5.442   1.127   7.446 -0.3634 -0.1592 -0.3240
 8803TIP3    H150604   5.388   1.060   7.404 -0.2465 -0.1658 -0.4644
 8803TIP3    H250605   5.411   1.130   7.536  0.4127 -1.2120 -0.0125
 8804TIP3   OH250606   1.817   4.128   1.709  0.4048  0.2747 -0.0840
 8804TIP3    H150607   1.773   4.047   1.683 -2.9409  1.5036  1.1715
 8804TIP3    H250608   1.902   4.099   1.743 -0.7285 -2.7564  0.5091
 8805TIP3   OH250609   5.239   5.996   2.144 -0.0991  0.2548  0.6813
 8805TIP3    H150610   5.256   5.910   2.106  2.1139  0.6044  0.7141
 8805TIP3    H250611   5.326   6.037   2.149 -0.8861  1.8799  2.1167
 8806TIP3   OH250612   2.319   0.794   9.859 -0.4800  0.0540 -0.1144
 8806TIP3    H150613   2.249   0.766   9.800  1.1401  1.8161 -3.1313
 8806TIP3    H250614   2.278   0.862   9.913 -0.9517  1.8428 -2.5615
 8807TIP3   OH250615   6.413   1.912   1.330 -0.2659 -0.0354  0.4304
 8807TIP3    H150616   6.400   1.943   1.240 -0.9044  0.5997  0.7366
 8807TIP3    H250617   6.436   1.820   1.319  0.2352  0.1738 -0.4139
 8808TIP3   OH250618   5.409   5.975   9.420  0.7031 -0.3405  0.4642
 8808TIP3    H150619   5.316   5.955   9.420  0.1290  1.9309 -0.8599
 8808TIP3    H250620   5.438   5.960   9.510 -1.5692  1.4099  1.5912
 8809TIP3   OH250621   3.371   1.688   0.994  0.0657 -0.3833 -0.3482
 8809TIP3    H150622   3.427   1.702   1.070  0.2910 -0.4321 -0.5049
 8809TIP3    H250623   3.366   1.593   0.984  1.8329 -0.3863 -1.7048
 8810TIP3   OH250624   1.607   5.691   9.419 -0.1808 -0.8987  0.6926
 8810TIP3    H150625   1.521   5.649   9.425 -0.4391 -0.7932 -1.3211
 8810TIP3    H250626   1.669   5.623   9.446 -0.7065 -2.1012 -0.9615
 8811TIP3   OH250627   2.626   5.752   1.167 -0.0972 -0.4353  0.2781
 8811TIP3    H150628   2.660   5.814   1.230  2.2738 -0.1420 -1.1574
 8811TIP3    H250629   2.671   5.669   1.188  0.8505 -0.2916 -1.0430
 8812TIP3   OH250630   6.545   7.142   8.585 -0.8882  0.0939 -0.3591
 8812TIP3    H150631   6.628   7.132   8.632  0.2719  1.3586 -2.0049
 8812TIP3    H250632   6.485   7.179   8.650  0.1008 -0.0027  0.6367
 8813TIP3   OH250633   5.005   0.381   6.868 -0.1578  0.0171  0.4758
 8813TIP3    H150634   4.985   0.460   6.818 -3.0398 -0.9676 -0.0923
 8813TIP3    H250635   5.043   0.414   6.950  1.3648  1.7918 -0.8432
 8814TIP3   OH250636   5.566   1.643   2.710 -0.1771 -0.3815  0.4524
 8814TIP3    H150637   5.545   1.710   2.645  0.7835  0.4747  0.9908
 8814TIP3    H250638   5.583   1.564   2.659 -0.0542  0.1177 -0.2968
 8815TIP3   OH250639   3.125   2.784   0.220 -0.3590 -0.1948  0.6797
 8815TIP3    H150640   3.165   2.866   0.192 -0.3672  0.2602  1.9029
 8815TIP3    H250641   3.128   2.788   0.316  0.2829 -1.9401  0.7709
 8816TIP3   OH250642   6.687   0.800   9.670  0.4946  0.3252 -0.1376
 8816TIP3    H150643   6.773   0.792   9.711 -0.3984 -0.6867  1.6546
 8816TIP3    H250644   6.649   0.878   9.710  1.0823  1.6437 -2.0144
 8817TIP3   OH250645   4.371   3.831   7.691  0.0347 -0.3348  0.3611
 8817TIP3    H150646   4.351   3.801   7.780 -2.4807  0.8419  0.2931
 8817TIP3    H250647   4.438   3.771   7.660  2.8942  0.7031  3.8831
 8818TIP3   OH250648   3.783   5.166   0.902  0.7308 -0.0082 -0.1558
 8818TIP3    H150649   3.800   5.085   0.855  2.2843 -0.4269  1.0564
 8818TIP3    H250650   3.836   5.232   0.858 -0.9679  0.5368 -1.5020
 8819TIP3   OH250651   2.750   6.802   9.381 -0.3619 -0.3827 -0.1019
 8819TIP3    H150652   2.739   6.731   9.317  0.6535 -0.1210 -0.5938
 8819TIP3    H250653   2.667   6.848   9.379 -1.2026 -1.7940  0.5449
 8820TIP3   OH250654   6.305   3.308   6.815  0.1129 -0.2916  0.4032
 8820TIP3    H150655   6.399   3.312   6.835  0.5207 -1.2501 -1.1198
 8820TIP3    H250656   6.272   3.396   6.835  1.2461 -0.0550  1.3331
 8821TIP3   OH250657   4.101   6.730   8.681  0.2692  0.1094  0.0481
 8821TIP3    H150658   4.137   6.819   8.674  0.8877 -0.0738  0.8497
 8821TIP3    H250659   4.028   6.739   8.742 -1.1389  0.4881 -1.6051
 8822TIP3   OH250660   3.950   7.003   9.937 -0.6186  0.3255 -0.2861
 8822TIP3    H150661   3.922   6.996   9.846 -2.0165  1.0363  0.0641
 8822TIP3    H250662   3.936   6.915   9.973 -1.3129  0.3676 -0.4318
 8823TIP3   OH250663   5.838   2.275   9.455 -0.8621 -0.2201  0.3614
 8823TIP3    H150664   5.826   2.243   9.544  0.8852  0.4648  0.8841
 8823TIP3    H250665   5.775   2.346   9.445 -0.8558 -0.0935  1.1705
 8824TIP3   OH250666   3.835   5.419   1.072  0.0775  0.2483 -0.3778
 8824TIP3    H150667   3.759   5.409   1.014 -0.3733  2.9865 -0.4008
 8824TIP3    H250668   3.888   5.342   1.055 -0.7389  0.2224 -3.4252
 8825TIP3   OH250669   0.941   4.101   1.797 -0.0967  0.4484  0.1411
 8825TIP3    H150670   0.872   4.035   1.811  0.6050 -0.4078 -0.3465
 8825TIP3    H250671   1.006   4.056   1.744  0.9062  1.2120  0.7034
 8826TIP3   OH250672   1.256   0.956   0.159  0.0638  0.1882 -0.0081
 8826TIP3    H150673   1.318   1.028   0.169 -0.3043  0.5996 -0.6639
 8826TIP3    H250674   1.268   0.903   0.238  0.0077  1.2206  0.7176
 8827TIP3   OH250675   0.626   1.461   0.350 -0.9225  0.2012  0.4129
 8827TIP3    H150676   0.532   1.481   0.348 -0.3480  4.1297  2.4511
 8827TIP3    H250677   0.641   1.426   0.438 -0.4223 -0.3205  0.1306
 8828TIP3   OH250678   0.120   1.720   8.245  0.5041  0.1232  0.1788
 8828TIP3    H150679   0.143   1.688   8.158  0.0891  1.2217 -0.3558
 8828TIP3    H250680   0.203   1.733   8.290  0.8592  1.8037 -0.8963
 8829TIP3   OH250681   1.241   5.405   1.268 -0.3933  0.1242 -0.2390
 8829TIP3    H150682   1.235   5.500   1.261 -0.3996  0.2137  0.8018
 8829TIP3    H250683   1.296   5.379   1.194 -0.0976  0.9729 -0.3307
 8830TIP3   OH250684   6.539   2.022   1.918 -0.1552 -0.1901  0.1316
 8830TIP3    H150685   6.533   2.117   1.927 -2.7942 -0.2461 -0.3590
 8830TIP3    H250686   6.543   2.008   1.823 -0.8188 -0.5998  0.1623
 8831TIP3   OH250687   0.351   3.449   0.933 -0.1279  0.4797  0.4517
 8831TIP3    H150688   0.398   3.428   1.014 -0.8318  0.5402  0.8835
 8831TIP3    H250689   0.420   3.456   0.866  0.3430 -0.9228  0.7552
 8832TIP3   OH250690   1.791   1.598   8.669  0.2477 -0.2331 -0.1949
 8832TIP3    H150691   1.811   1.565   8.581 -0.1470 -1.5668  0.1764
 8832TIP3    H250692   1.804   1.522   8.726 -1.2961  0.0913  0.6462
 8833TIP3   OH250693   6.636   0.208   9.671  0.0226  0.5537 -0.0265
 8833TIP3    H150694   6.635   0.298   9.638 -1.0823 -0.0466 -1.7797
 8833TIP3    H250695   6.551   0.172   9.645  0.7868 -1.2796 -0.1750
 8834TIP3   OH250696   4.401   7.252   1.576 -0.4620 -0.6892 -0.0516
 8834TIP3    H150697   4.381   7.254   1.669  0.5570 -2.0131  0.2223
 8834TIP3    H250698   4.481   7.303   1.567 -1.3548  0.6971 -0.4545
 8835TIP3   OH250699   4.396   3.318   1.123  0.1127  0.4533 -0.1481
 8835TIP3    H150700   4.402   3.409   1.093  1.3465  0.1580 -0.8852
 8835TIP3    H250701   4.333   3.277   1.064  0.6418  0.4928 -0.7525
 8836TIP3   OH250702   5.911   1.492   7.624  0.4584 -0.1061 -0.6057
 8836TIP3    H150703   5.976   1.560   7.642 -0.7842  0.9353  0.1855
 8836TIP3    H250704   5.955   1.410   7.646  1.7072  0.5075 -0.7319
 8837TIP3   OH250705   5.319   3.943   2.363 -0.1675 -0.4676  0.2227
 8837TIP3    H150706   5.404   3.978   2.393 -0.2758  0.0521 -0.0500
 8837TIP3    H250707   5.254   3.998   2.407 -0.3625 -0.8623  0.4259
 8838TIP3   OH250708   6.959   3.316   9.548 -0.6005  0.3645  0.0687
 8838TIP3    H150709   6.985   3.317   9.455  2.3345  0.4046  0.7826
 8838TIP3    H250710   6.891   3.250   9.553 -0.2418 -0.2490 -2.0006
 8839TIP3   OH250711   3.795   7.257   9.774  0.6242  0.0757 -0.0338
 8839TIP3    H150712   3.819   7.331   9.718  2.0808  0.7989  1.4514
 8839TIP3    H250713   3.878   7.214   9.794  0.1635 -0.1860  1.4983
 8840TIP3   OH250714   3.575   2.235   0.233  0.0126  0.3020 -0.1955
 8840TIP3    H150715   3.526   2.239   0.315 -0.1178  1.2300 -0.3150
 8840TIP3    H250716   3.644   2.301   0.242 -1.1379  1.7782 -1.5533
 8841TIP3   OH250717   6.481   1.460   7.618  0.3201  0.4503  0.1960
 8841TIP3    H150718   6.558   1.406   7.633  0.0525 -0.3389 -1.0941
 8841TIP3    H250719   6.424   1.443   7.693  1.1578  0.6158  0.8740
 8842TIP3   OH250720   3.541   3.445   8.768 -0.7794 -0.1041  1.0523
 8842TIP3    H150721   3.491   3.446   8.687 -1.7384  0.3957  1.6322
 8842TIP3    H250722   3.485   3.398   8.830 -0.3091  0.0098  1.5699
 8843TIP3   OH250723   5.294   1.384   1.445 -0.0113 -0.5413  0.4879
 8843TIP3    H150724   5.350   1.452   1.484 -0.6001  0.1024  0.2326
 8843TIP3    H250725   5.284   1.411   1.354 -2.8501  0.8477  1.0831
 8844TIP3   OH250726   3.188   3.506   0.918 -1.1202  0.5688 -0.1899
 8844TIP3    H150727   3.212   3.545   0.834 -0.8713  0.4110 -0.1939
 8844TIP3    H250728   3.236   3.423   0.920  0.6869  1.5751  1.0945
 8845TIP3   OH250729   6.615   2.370   2.153  0.3356  0.0681  0.2416
 8845TIP3    H150730   6.659   2.285   2.148  1.7817  0.5941  2.6301
 8845TIP3    H250731   6.534   2.353   2.199  0.2323 -0.1472 -0.0193
 8846TIP3   OH250732   1.998   0.603   0.325 -0.1409 -0.2371  0.7752
 8846TIP3    H150733   1.929   0.569   0.268  0.1051  1.5074 -0.6689
 8846TIP3    H250734   2.078   0.595   0.273  1.1010 -3.3792  2.8757
 8847TIP3   OH250735   2.706   2.042   1.494 -0.0528 -0.1853  0.6056
 8847TIP3    H150736   2.774   1.977   1.508  0.1544  0.0332  0.6248
 8847TIP3    H250737   2.639   1.996   1.443  0.0993 -0.4065  0.6036
 8848TIP3   OH250738   3.564   3.012   0.405  0.7588 -0.6885 -0.7419
 8848TIP3    H150739   3.605   3.091   0.369  0.2144 -0.2285 -0.3633
 8848TIP3    H250740   3.526   2.968   0.329 -0.0633  0.0867 -0.7879
 8849TIP3   OH250741   1.194   4.442   8.243 -0.1390  0.1756 -0.5511
 8849TIP3    H150742   1.187   4.510   8.177  1.6318 -1.1015 -2.1771
 8849TIP3    H250743   1.105   4.431   8.277 -0.7361  2.1649 -1.3446
 8850TIP3   OH250744   3.729   1.223   7.676 -0.1295 -0.4793  0.0073
 8850TIP3    H150745   3.765   1.154   7.733  0.2111 -1.6387 -1.5569
 8850TIP3    H250746   3.799   1.242   7.614 -0.0707  1.6097  0.6413
 8851TIP3   OH250747   4.501   6.418   8.393  0.9096  0.2596 -0.0901
 8851TIP3    H150748   4.515   6.505   8.431 -1.6252  0.3421  0.8676
 8851TIP3    H250749   4.410   6.421   8.362  1.2472 -1.5885 -1.3614
 8852TIP3   OH250750   7.010   5.984   8.391 -0.0280 -0.1176  0.2911
 8852TIP3    H150751   7.001   6.051   8.323 -0.7772  0.7742  1.2489
 8852TIP3    H250752   6.964   5.908   8.356 -0.9333  0.5303  0.0493
 8853TIP3   OH250753   2.934   0.348   7.627  0.1444  0.0525  0.2397
 8853TIP3    H150754   2.841   0.366   7.642 -0.0302 -0.5018 -0.1201
 8853TIP3    H250755   2.945   0.356   7.533  0.8604  1.8543  0.4468
 8854TIP3   OH250756   6.946   4.841   1.581  0.1448  0.2354 -0.0866
 8854TIP3    H150757   7.024   4.844   1.525  1.2831 -0.7432  1.3686
 8854TIP3    H250758   6.874   4.868   1.524  1.4530  0.5888 -1.6369
 8855TIP3   OH250759   5.847   6.729   1.499 -0.4441  0.4990  0.2123
 8855TIP3    H150760   5.875   6.643   1.466 -2.2026 -0.5697  1.3639
 8855TIP3    H250761   5.902   6.791   1.451  0.3271 -1.2032 -1.2605
 8856TIP3   OH250762   0.461   6.428   8.744 -0.4031  0.5074  0.9905
 8856TIP3    H150763   0.440   6.392   8.831  1.0642 -0.7665  0.8668
 8856TIP3    H250764   0.553   6.456   8.752 -0.3756  0.7307 -0.0467
 8857TIP3   OH250765   3.773   3.580   9.185  0.5428 -0.1182 -0.6331
 8857TIP3    H150766   3.863   3.577   9.217 -0.1004 -1.3084  1.2578
 8857TIP3    H250767   3.756   3.492   9.152 -0.4408 -0.4669  0.7008
 8858TIP3   OH250768   6.765   0.223   6.898  0.2283  0.4831  0.0026
 8858TIP3    H150769   6.830   0.275   6.945 -0.7956  1.8819 -0.0668
 8858TIP3    H250770   6.727   0.284   6.835 -0.3933 -0.6001 -0.6938
 8859TIP3   OH250771   3.742   6.602   1.975  0.0793  0.1325 -0.8951
 8859TIP3    H150772   3.773   6.511   1.982  0.6206  0.3498 -0.3111
 8859TIP3    H250773   3.647   6.594   1.966 -0.0878 -0.4673  0.8847
 8860TIP3   OH250774   2.333   3.656   9.209 -0.1544  0.1089 -0.4470
 8860TIP3    H150775   2.286   3.739   9.209 -0.1334  0.1246  0.1019
 8860TIP3    H250776   2.322   3.622   9.298  4.1577  1.9742  1.1081
 8861TIP3   OH250777   2.104   6.821   7.342 -0.1648  0.0994 -0.7631
 8861TIP3    H150778   2.181   6.876   7.326 -0.0601  0.0691 -0.3679
 8861TIP3    H250779   2.051   6.872   7.403 -0.1188 -0.1904 -0.4800
 8862TIP3   OH250780   2.108   4.015   2.153  0.5396 -0.2937  0.5710
 8862TIP3    H150781   2.060   3.990   2.231  0.3832  0.0988  0.6023
 8862TIP3    H250782   2.195   3.976   2.165  0.5302 -0.1979  0.9576
 8863TIP3   OH250783   6.391   5.176   2.044 -0.4999 -0.1128  0.2267
 8863TIP3    H150784   6.414   5.161   2.135 -2.1783  1.5395  0.9988
 8863TIP3    H250785   6.344   5.097   2.017  0.5037 -0.8456  0.6068
 8864TIP3   OH250786   4.313   6.949   9.496 -0.0795 -0.5206 -0.6369
 8864TIP3    H150787   4.224   6.948   9.460 -0.6774 -1.2379  0.7738
 8864TIP3    H250788   4.312   6.881   9.564  1.0556  0.5820  0.5383
 8865TIP3   OH250789   6.587   0.875   0.994  0.8160 -0.0013  0.0770
 8865TIP3    H150790   6.631   0.811   1.049  0.3095 -0.5095 -0.0956
 8865TIP3    H250791   6.568   0.827   0.913 -2.6838 -0.7934  1.1709
 8866TIP3   OH250792   4.206   4.105   1.529 -0.1938 -1.0895 -0.0039
 8866TIP3    H150793   4.210   4.049   1.451  2.6869  1.3741 -1.8230
 8866TIP3    H250794   4.295   4.106   1.562 -0.5518  0.9772  1.0316
 8867TIP3   OH250795   2.097   1.480   9.435  0.6711  0.2508  0.4916
 8867TIP3    H150796   2.170   1.506   9.379  0.0144  0.5984 -0.2119
 8867TIP3    H250797   2.025   1.537   9.410  0.1541 -0.0770  1.1893
 8868TIP3   OH250798   7.187   3.718   1.397  0.1876  0.1640  0.2176
 8868TIP3    H150799   7.108   3.706   1.449 -1.5336  0.2625 -2.2000
 8868TIP3    H250800   7.183   3.809   1.369  0.4274 -0.1877 -1.0089
 8869TIP3   OH250801   4.922   4.984   8.434  0.1589 -0.4885  0.3758
 8869TIP3    H150802   4.835   4.972   8.394  0.9657 -0.5023 -1.4765
 8869TIP3    H250803   4.980   5.000   8.360  1.3523  2.0203  1.7399
 8870TIP3   OH250804   1.917   7.216   2.585 -0.0184  1.0173 -0.3314
 8870TIP3    H150805   1.864   7.214   2.665  1.3041  0.5624  0.5583
 8870TIP3    H250806   2.007   7.225   2.616  0.5088  0.9616 -1.7877
 8871TIP3   OH250807   0.580   3.643   2.595  0.3145  0.4405 -0.4107
 8871TIP3    H150808   0.517   3.571   2.599  0.2524  0.3133 -2.6377
 8871TIP3    H250809   0.551   3.704   2.663 -1.1218 -0.4716 -0.1640
 8872TIP3   OH250810   5.378   7.079   7.996  0.3719  0.0080  0.3551
 8872TIP3    H150811   5.354   6.992   8.027  0.2535  0.0505  0.3845
 8872TIP3    H250812   5.351   7.138   8.066  1.0008  0.0156  0.6010
 8873TIP3   OH250813   2.811   4.121   7.095  0.6159 -0.3884  0.2091
 8873TIP3    H150814   2.765   4.200   7.065  0.8541 -0.6222 -0.7898
 8873TIP3    H250815   2.769   4.049   7.047  0.2921 -0.9046  1.2318
 8874TIP3   OH250816   0.640   5.154   1.717  0.1408 -0.2537  0.1606
 8874TIP3    H150817   0.644   5.121   1.807  0.3890 -1.3276 -0.2359
 8874TIP3    H250818   0.698   5.230   1.717  0.0070 -0.1402  0.9479
 8875TIP3   OH250819   1.591   2.247   7.813 -0.4404 -0.4698  0.1471
 8875TIP3    H150820   1.560   2.322   7.864 -0.8975  1.3678 -2.6140
 8875TIP3    H250821   1.686   2.260   7.808 -0.1781 -1.5076  1.6922
 8876TIP3   OH250822   3.779   2.305   1.156 -0.0445 -0.5502  0.5053
 8876TIP3    H150823   3.830   2.336   1.081 -0.4288 -0.1316  0.4047
 8876TIP3    H250824   3.814   2.219   1.176 -2.0750 -2.2214 -2.3035
 8877TIP3   OH250825   2.858   4.468   8.389 -0.2146  0.0601 -0.5198
 8877TIP3    H150826   2.895   4.384   8.361  2.1826  0.2471  1.7132
 8877TIP3    H250827   2.888   4.531   8.324 -2.1070 -0.7043 -2.2684
 8878TIP3   OH250828   6.776   4.898   7.968  0.0191  0.2130  0.2496
 8878TIP3    H150829   6.839   4.970   7.959 -1.2383  1.1818 -1.3354
 8878TIP3    H250830   6.712   4.913   7.898 -0.1662 -2.5996 -0.3105
 8879TIP3   OH250831   4.181   6.599   6.672 -0.3017 -0.1719  0.0758
 8879TIP3    H150832   4.223   6.530   6.723 -1.9526 -0.3079  1.3570
 8879TIP3    H250833   4.135   6.652   6.737 -3.1245 -0.7866 -1.2376
 8880TIP3   OH250834   2.951   6.864   1.576  0.0668  0.3910 -0.2020
 8880TIP3    H150835   2.904   6.886   1.656  0.5312  0.0890  0.1548
 8880TIP3    H250836   3.038   6.902   1.588  0.4107 -0.3778 -0.1944
 8881TIP3   OH250837   1.776   0.540   0.107 -0.4507 -0.0104 -0.0870
 8881TIP3    H150838   1.682   0.550   0.122 -0.6890 -2.0581  0.0031
 8881TIP3    H250839   1.793   0.447   0.119  1.4370  0.1601 -1.0507
 8882TIP3   OH250840   4.242   2.788   7.501  0.0851  0.5150  0.2561
 8882TIP3    H150841   4.280   2.710   7.460  1.0638  0.7444  0.6944
 8882TIP3    H250842   4.251   2.856   7.434 -1.8802 -0.0035 -0.5888
 8883TIP3   OH250843   7.093   2.421   0.167 -0.1666 -0.1817 -0.3695
 8883TIP3    H150844   7.013   2.417   0.220  0.3240  1.3161  0.5514
 8883TIP3    H250845   7.062   2.428   0.077 -1.0770  0.1095 -0.0449
 8884TIP3   OH250846   5.359   0.615   1.600 -0.8067 -0.3063 -0.2788
 8884TIP3    H150847   5.373   0.708   1.584 -1.3594 -0.0575  0.6248
 8884TIP3    H250848   5.397   0.571   1.523  2.1761  0.4796  0.6043
 8885TIP3   OH250849   1.114   4.255   9.154  0.1998 -0.0347  0.7174
 8885TIP3    H150850   1.185   4.319   9.148 -0.9109  1.2236  0.5147
 8885TIP3    H250851   1.046   4.300   9.205 -0.9228 -0.7527 -0.1075
 8886TIP3   OH250852   4.658   6.943   9.993  0.1188 -0.1016 -0.2477
 8886TIP3    H150853   4.647   7.002  10.067 -0.0045  0.0811 -0.4080
 8886TIP3    H250854   4.625   6.859  10.024 -0.0028 -0.0076 -0.1190
 8887TIP3   OH250855   1.599   5.054   1.955 -0.0419  1.1784  0.2549
 8887TIP3    H150856   1.562   5.099   1.879  0.4015 -0.1544 -0.7965
 8887TIP3    H250857   1.693   5.059   1.943  0.0229  0.3219  0.2918
 8888TIP3   OH250858   4.050   2.063   1.906 -0.1736 -0.3224 -0.4334
 8888TIP3    H150859   4.028   2.046   1.998 -2.7341  0.9809 -0.7224
 8888TIP3    H250860   4.146   2.057   1.903  0.1292  1.1167  2.6442
 8889TIP3   OH250861   0.496   4.769   3.033 -0.2527 -0.7292 -0.0744
 8889TIP3    H150862   0.462   4.807   3.114  1.1017  2.5268 -0.8613
 8889TIP3    H250863   0.587   4.748   3.052 -0.5021 -1.9649 -0.1815
 8890TIP3   OH250864   6.969   5.281   0.727  0.3737  0.0723 -0.3465
 8890TIP3    H150865   6.989   5.363   0.684 -1.0020  1.3170  1.2553
 8890TIP3    H250866   6.878   5.261   0.702  0.3463 -0.4101  0.0987
 8891TIP3   OH250867   3.780   0.343   2.090 -0.2083  1.0187 -0.0603
 8891TIP3    H150868   3.741   0.382   2.169 -2.6804 -0.5520 -0.3704
 8891TIP3    H250869   3.709   0.289   2.053  2.6784 -3.5667  0.2475
 8892TIP3   OH250870   0.166   4.290   1.546  0.0287 -0.2511 -0.6571
 8892TIP3    H150871   0.240   4.323   1.496  0.6130 -0.5397  0.0013
 8892TIP3    H250872   0.128   4.223   1.489 -0.6622  0.9343 -1.6398
 8893TIP3   OH250873   6.004   0.696   8.385  0.2136  0.1424 -0.1310
 8893TIP3    H150874   5.989   0.604   8.363 -1.7900  0.3777  0.0156
 8893TIP3    H250875   6.006   0.698   8.481  0.2291  0.2396 -0.1327
 8894TIP3   OH250876   5.400   0.310   2.069  0.4349 -0.7195  0.3669
 8894TIP3    H150877   5.332   0.364   2.108  0.8447 -0.1458  0.3060
 8894TIP3    H250878   5.353   0.244   2.018 -0.0930 -1.0990  1.3181
 8895TIP3   OH250879   2.316   0.769   1.120 -0.3246 -0.3626  0.5670
 8895TIP3    H150880   2.302   0.852   1.164 -0.3260 -0.5938  1.0101
 8895TIP3    H250881   2.305   0.789   1.027 -0.1909  0.1544  0.6612
 8896TIP3   OH250882   6.407   6.239   1.567 -0.1895 -0.5376  0.2521
 8896TIP3    H150883   6.472   6.208   1.630 -0.7500 -1.5218  0.3547
 8896TIP3    H250884   6.439   6.208   1.483  0.7044  1.0088 -0.0270
 8897TIP3   OH250885   5.677   2.497   9.451  0.0117 -0.1372 -0.0396
 8897TIP3    H150886   5.615   2.530   9.515  0.2952  1.4488 -0.5403
 8897TIP3    H250887   5.629   2.496   9.368  0.0215 -0.9717 -0.0435
 8898TIP3   OH250888   2.192   5.503   9.144  0.2870  0.1641  0.1285
 8898TIP3    H150889   2.147   5.555   9.211 -1.4823 -2.0551  0.7893
 8898TIP3    H250890   2.233   5.568   9.087 -0.1785  2.2013  1.9713
 8899TIP3   OH250891   5.305   0.587   8.453  0.4778 -0.5878  0.3986
 8899TIP3    H150892   5.261   0.641   8.388  1.7002 -0.5513 -0.4451
 8899TIP3    H250893   5.262   0.608   8.535 -1.4008 -0.9549 -0.4417
 8900TIP3   OH250894   3.251   4.545   2.118 -0.6636 -0.4536  0.0532
 8900TIP3    H150895   3.177   4.541   2.179  0.2568 -0.1034  1.2165
 8900TIP3    H250896   3.300   4.465   2.135  2.0114  1.5923  2.9800
 8901TIP3   OH250897   2.184   0.508   0.101  0.3778 -0.0393 -0.3917
 8901TIP3    H150898   2.211   0.510   0.009  0.3671  0.6604 -0.3822
 8901TIP3    H250899   2.148   0.420   0.113 -0.4811  0.1753 -1.3012
 8902TIP3   OH250900   2.750   2.269   9.959  0.4339  0.2079 -0.1317
 8902TIP3    H150901   2.746   2.187  10.008  0.3424 -0.1236 -0.6869
 8902TIP3    H250902   2.839   2.301   9.974  1.3152 -1.2432 -1.8962
 8903TIP3   OH250903   5.543   4.231   7.871 -0.1348 -0.3458 -0.9993
 8903TIP3    H150904   5.526   4.279   7.951  0.1282  1.6128 -2.0615
 8903TIP3    H250905   5.499   4.147   7.883 -2.0179  0.7598  0.2867
 8904TIP3   OH250906   6.357   3.755   9.938  0.8528 -0.2462  0.0085
 8904TIP3    H150907   6.300   3.826   9.908  1.1658 -0.2449 -0.5926
 8904TIP3    H250908   6.405   3.792  10.012  0.3385 -0.1338  0.2936
 8905TIP3   OH250909   0.744   6.900   0.063  0.3058  0.3958 -0.2330
 8905TIP3    H150910   0.703   6.876   0.146  2.1273 -1.9265  0.0790
 8905TIP3    H250911   0.671   6.906   0.001 -0.7649 -1.4271  0.7621
 8906TIP3   OH250912   1.154   4.733   8.751 -0.3571  0.7088 -0.7507
 8906TIP3    H150913   1.245   4.707   8.735 -0.7876  0.2626 -2.6178
 8906TIP3    H250914   1.139   4.807   8.692 -1.0429  1.1907 -0.0077
 8907TIP3   OH250915   3.616   4.404   8.425 -0.5645  0.0552  0.6325
 8907TIP3    H150916   3.710   4.407   8.408 -1.0095 -0.0611 -2.5994
 8907TIP3    H250917   3.598   4.484   8.475  1.1276  0.5041  0.5857
 8908TIP3   OH250918   3.238   6.330   9.285 -0.1283  0.1293  0.0058
 8908TIP3    H150919   3.278   6.280   9.356  0.8082 -0.7971 -1.1333
 8908TIP3    H250920   3.283   6.300   9.207 -2.7964 -0.7230 -1.3391
 8909TIP3   OH250921   0.951   4.155   7.566 -0.3175  0.3462  0.2149
 8909TIP3    H150922   1.000   4.144   7.648 -0.7753  2.2693  0.7974
 8909TIP3    H250923   1.007   4.114   7.499  1.1177  0.6967  1.1582
 8910TIP3   OH250924   2.732   1.200   1.543  0.2912 -0.1419  0.1271
 8910TIP3    H150925   2.781   1.270   1.500  0.1058  0.4765  0.8926
 8910TIP3    H250926   2.644   1.237   1.556  0.3629 -0.2743  1.0937
 8911TIP3   OH250927   6.339   7.006   9.881 -0.2441  0.2819 -0.0077
 8911TIP3    H150928   6.434   6.994   9.879  0.0545  2.2674 -0.5755
 8911TIP3    H250929   6.303   6.924   9.848  1.3783  0.2370 -1.8434
 8912TIP3   OH250930   3.176   4.398   1.439 -0.0439 -0.0786 -0.1739
 8912TIP3    H150931   3.187   4.317   1.487  0.5945 -1.4310 -2.4654
 8912TIP3    H250932   3.253   4.450   1.461  0.2312 -0.6550  0.2441
 8913TIP3   OH250933   6.212   6.558   7.271 -0.2998  0.2630  0.4096
 8913TIP3    H150934   6.306   6.566   7.252 -0.5299 -0.0325 -0.9562
 8913TIP3    H250935   6.195   6.464   7.263 -0.7666  0.3489  0.3910
 8914TIP3   OH250936   5.917   4.866   7.610  0.0193 -0.3070 -0.6482
 8914TIP3    H150937   5.869   4.803   7.557 -0.6118 -1.2592  0.9818
 8914TIP3    H250938   5.873   4.865   7.694  0.3911  1.8783 -0.3739
 8915TIP3   OH250939   2.504   0.493   8.599 -0.2077 -0.0224 -0.0677
 8915TIP3    H150940   2.565   0.567   8.607  1.3159 -1.3883  1.8968
 8915TIP3    H250941   2.423   0.525   8.639  0.5028  0.5400  0.9562
 8916TIP3   OH250942   3.457   0.025   1.795  0.4104  0.0500 -0.3334
 8916TIP3    H150943   3.392   0.033   1.724  0.5610 -0.4140 -0.5282
 8916TIP3    H250944   3.410  -0.019   1.865  1.1284 -2.4314 -1.3161
 8917TIP3   OH250945   0.960   1.712   8.924 -0.4615  0.0181 -0.4069
 8917TIP3    H150946   0.937   1.805   8.928 -2.1033 -0.1985 -2.6080
 8917TIP3    H250947   1.044   1.710   8.878  0.0592  0.4170  0.4905
 8918TIP3   OH250948   3.503   7.035   7.616 -0.3339 -0.2873  0.1508
 8918TIP3    H150949   3.507   7.057   7.709  0.3589 -1.5284  0.4466
 8918TIP3    H250950   3.538   6.946   7.611 -2.6743 -1.2282 -0.9953
 8919TIP3   OH250951   2.114   2.921   8.402  0.0232 -0.4589  0.4640
 8919TIP3    H150952   2.070   2.838   8.423  1.8485 -1.5347  0.3357
 8919TIP3    H250953   2.192   2.921   8.458  2.5359 -1.1350 -2.7331
 8920TIP3   OH250954   4.180   0.039   9.809 -0.6062 -0.7145 -0.0658
 8920TIP3    H150955   4.105   0.074   9.760  0.8155 -0.3572 -2.0950
 8920TIP3    H250956   4.149   0.036   9.900 -1.9847  2.5913 -0.2716
 8921TIP3   OH250957   6.413   5.261   9.958  0.2446 -0.5998  0.0289
 8921TIP3    H150958   6.426   5.172   9.927  1.3848 -0.6269  0.4928
 8921TIP3    H250959   6.479   5.272  10.027 -0.5140  0.2829  0.6481
 8922TIP3   OH250960   1.938   6.179   7.687  0.2617 -0.0065  0.0537
 8922TIP3    H150961   1.918   6.244   7.755 -4.1971 -1.7334  0.7704
 8922TIP3    H250962   1.975   6.105   7.735 -1.9755 -0.8489  0.5985
 8923TIP3   OH250963   2.020   4.098   8.148  0.2879 -0.1790  0.2713
 8923TIP3    H150964   2.023   4.108   8.053 -2.1404  0.8773  0.2325
 8923TIP3    H250965   2.003   4.004   8.162  1.1154 -0.4212 -0.2995
 8924TIP3   OH250966   6.157   3.106   9.440  0.3604 -0.3641  0.1262
 8924TIP3    H150967   6.211   3.178   9.473  0.7825 -0.4481 -0.3835
 8924TIP3    H250968   6.219   3.036   9.420  0.0511 -0.5133 -0.3310
 8925TIP3   OH250969   3.698   3.530   0.561  0.2035  0.1476 -0.4701
 8925TIP3    H150970   3.757   3.553   0.489 -0.8434  0.2644 -1.3122
 8925TIP3    H250971   3.755   3.524   0.638  1.3776 -0.2062 -1.3454
 8926TIP3   OH250972   2.709   6.530   6.673 -0.1674  0.4556  0.1071
 8926TIP3    H150973   2.722   6.437   6.657 -1.5495  0.4857 -1.5287
 8926TIP3    H250974   2.628   6.551   6.626 -1.0928  2.0398  2.2297
 8927TIP3   OH250975   5.751   3.884   7.743 -0.1904 -0.3065  0.2314
 8927TIP3    H150976   5.833   3.854   7.783  0.7670  0.4556 -1.0913
 8927TIP3    H250977   5.756   3.979   7.746 -1.3233 -0.2378  0.6724
 8928TIP3   OH250978   3.802   6.681   1.717 -0.0525 -0.3922 -0.3305
 8928TIP3    H150979   3.792   6.652   1.808  0.1557 -0.6658 -0.3925
 8928TIP3    H250980   3.894   6.706   1.710  0.0700 -0.8930 -0.6085
 8929TIP3   OH250981   6.920   0.720   9.805 -0.1001  0.1295  0.1500
 8929TIP3    H150982   6.956   0.724   9.716  1.9199  0.3665  0.9338
 8929TIP3    H250983   6.887   0.631   9.814 -1.3152  0.3995 -1.1621
 8930TIP3   OH250984   0.002   1.132   8.869 -0.1956  0.1005 -0.0273
 8930TIP3    H150985  -0.000   1.069   8.797 -0.6809 -0.0460  0.1086
 8930TIP3    H250986   0.006   1.217   8.827 -3.1901  0.1855 -0.3317
 8931TIP3   OH250987   1.569   3.176   8.399 -0.3342  0.0772 -0.0091
 8931TIP3    H150988   1.641   3.219   8.445  1.6346  0.0448 -2.8114
 8931TIP3    H250989   1.610   3.103   8.353 -2.6353 -1.4600  0.1761
 8932TIP3   OH250990   6.918   5.323   9.436 -0.5581  0.3344 -0.3963
 8932TIP3    H150991   6.926   5.230   9.417  0.5362  0.7178 -1.9280
 8932TIP3    H250992   6.844   5.328   9.497  0.3826 -1.6785  1.0267
 8933TIP3   OH250993   3.016   5.059   8.341  0.0249 -0.0843 -0.3019
 8933TIP3    H150994   2.949   5.064   8.272  1.5892 -0.8140 -1.9697
 8933TIP3    H250995   3.041   5.150   8.356 -0.6627  0.1202 -0.3631
 8934TIP3   OH250996   5.657   7.270   8.482  0.0468  0.4949 -0.3154
 8934TIP3    H150997   5.663   7.352   8.531  0.3897 -0.9357  2.1877
 8934TIP3    H250998   5.564   7.251   8.478  0.0686  0.1565  0.6355
 8935TIP3   OH250999   3.209   3.694   2.818 -0.1654 -0.0482  0.2502
 8935TIP3    H151000   3.165   3.747   2.885 -0.6043 -1.7252  1.3567
 8935TIP3    H251001   3.155   3.616   2.810  0.9194 -0.7357 -0.7162
 8936TIP3   OH251002   2.029   5.911   2.828 -0.4290 -0.2703  0.0664
 8936TIP3    H151003   2.082   5.990   2.835 -0.7073 -0.0087 -0.6344
 8936TIP3    H251004   2.069   5.849   2.889  0.7995 -0.1484 -0.5798
 8937TIP3   OH251005   1.028   0.459   7.799  0.5819 -0.2677  0.8680
 8937TIP3    H151006   1.058   0.406   7.725  0.5619 -1.1909  1.5155
 8937TIP3    H251007   1.008   0.544   7.760 -1.2403 -1.2703 -0.5542
 8938TIP3   OH251008   2.911   0.669   8.366 -0.3109  0.0668  0.4040
 8938TIP3    H151009   2.889   0.616   8.289 -1.1061  1.0207 -0.0432
 8938TIP3    H251010   2.866   0.752   8.352  1.8631  1.3323  0.5317
 8939TIP3   OH251011   1.740   4.584   7.925 -0.2409 -0.1739  0.0803
 8939TIP3    H151012   1.764   4.582   8.018 -2.0167 -2.4220  0.5671
 8939TIP3    H251013   1.733   4.492   7.900  0.5620  0.3683 -2.4308
 8940TIP3   OH251014   2.785   0.153   1.852  0.6325  0.2789 -0.2488
 8940TIP3    H151015   2.742   0.238   1.859 -1.7271 -0.9610  1.9230
 8940TIP3    H251016   2.745   0.100   1.921  2.2011 -2.5310 -1.3323
 8941TIP3   OH251017   0.357   5.952   1.083 -0.2183  0.1215 -0.3478
 8941TIP3    H151018   0.439   5.970   1.036  1.0829 -2.5032  0.6750
 8941TIP3    H251019   0.306   5.898   1.023 -0.0036 -0.4483 -0.0328
 8942TIP3   OH251020   2.913   2.474   1.919 -0.0446 -0.2837  0.2065
 8942TIP3    H151021   2.962   2.555   1.905  0.7418 -0.7040  0.4147
 8942TIP3    H251022   2.932   2.450   2.010  2.0741 -2.1492 -0.6051
 8943TIP3   OH251023   7.265   4.339   9.689  0.3958 -0.2321  0.0783
 8943TIP3    H151024   7.285   4.335   9.595 -0.1208 -2.2609  0.0074
 8943TIP3    H251025   7.285   4.252   9.722  1.8039  0.7926  2.1771
 8944TIP3   OH251026   5.465   7.062   1.402  0.2273 -0.4312  0.5476
 8944TIP3    H151027   5.529   7.017   1.457  0.6934  0.0714  0.4275
 8944TIP3    H251028   5.482   7.155   1.417 -0.5301 -0.2906  0.5743
 8945TIP3   OH251029   5.378   5.532   1.296 -0.4135 -0.0918  0.0359
 8945TIP3    H151030   5.304   5.589   1.318 -0.1379 -0.3912  1.8575
 8945TIP3    H251031   5.424   5.580   1.226 -0.2769  1.8990  1.3919
 8946TIP3   OH251032   7.252   0.910   6.647 -0.0940 -0.1448  0.3587
 8946TIP3    H151033   7.172   0.903   6.594 -0.4131 -1.3983  0.9648
 8946TIP3    H251034   7.264   1.004   6.659 -0.4621  0.1444 -1.2444
 8947TIP3   OH251035   1.252   5.461   2.564 -0.5843  0.2235  0.0004
 8947TIP3    H151036   1.183   5.485   2.625 -0.8107  0.4789 -0.3554
 8947TIP3    H251037   1.323   5.523   2.581 -0.1642 -0.4558  0.8309
 8948TIP3   OH251038   1.779   2.169   1.529  0.0133 -0.1327 -0.0732
 8948TIP3    H151039   1.730   2.251   1.518 -0.5104  0.0091  2.7022
 8948TIP3    H251040   1.714   2.101   1.511 -0.5118  0.0783  0.9297
 8949TIP3   OH251041   3.693   0.884   7.384  0.1800  0.9104  0.1394
 8949TIP3    H151042   3.634   0.950   7.422  1.4494  1.3933  1.3417
 8949TIP3    H251043   3.672   0.885   7.290 -3.1750 -0.4547  0.7300
 8950TIP3   OH251044   5.029   6.073   2.292  0.4955  0.2211 -0.2541
 8950TIP3    H151045   4.979   5.998   2.260 -1.0796  0.4512  1.4840
 8950TIP3    H251046   5.119   6.055   2.265 -0.3270 -0.7207 -2.5951
 8951TIP3   OH251047   6.874   3.143   0.797  0.1839 -0.3388  0.1352
 8951TIP3    H151048   6.950   3.095   0.763  0.1726 -0.0592 -0.2883
 8951TIP3    H251049   6.892   3.152   0.891  1.2306  0.7137 -0.1371
 8952TIP3   OH251050   4.172   4.683   0.750 -0.5179 -0.5761  0.1655
 8952TIP3    H151051   4.090   4.640   0.772 -0.1136 -2.1137 -1.1505
 8952TIP3    H251052   4.209   4.631   0.678 -0.0108  1.9657 -1.5805
 8953TIP3   OH251053   5.238   3.369   8.001 -0.3609  0.0085  0.5836
 8953TIP3    H151054   5.299   3.428   8.045  0.3864  0.2817 -0.7539
 8953TIP3    H251055   5.212   3.307   8.069  1.6867 -0.3191  1.1463
 8954TIP3   OH251056   0.277   5.006   7.690 -0.1944 -0.2440 -0.5171
 8954TIP3    H151057   0.368   5.007   7.660 -0.3919 -0.2422 -1.1399
 8954TIP3    H251058   0.247   4.917   7.672 -0.4841 -0.0832 -0.8449
 8955TIP3   OH251059   0.163   4.891   8.844 -0.2588  0.1983  0.3884
 8955TIP3    H151060   0.139   4.919   8.755  1.0903  0.6629  0.1433
 8955TIP3    H251061   0.129   4.802   8.851  2.2522 -1.0774 -1.7837
 8956TIP3   OH251062   5.975   3.974   8.689  0.4257 -0.0347 -0.2073
 8956TIP3    H151063   5.968   3.910   8.618  0.6488  0.5204 -0.7267
 8956TIP3    H251064   6.067   3.970   8.716  0.2244 -0.6436  0.4338
 8957TIP3   OH251065   0.171   0.495   7.808 -0.2024  0.0799 -0.1329
 8957TIP3    H151066   0.238   0.432   7.836 -0.8045 -0.0196  1.1389
 8957TIP3    H251067   0.110   0.444   7.755 -0.0453 -0.1352 -0.1075
 8958TIP3   OH251068   1.361   2.313   7.989  0.3238  0.0787  0.2380
 8958TIP3    H151069   1.309   2.377   8.038  0.9483  0.1525  0.8218
 8958TIP3    H251070   1.301   2.279   7.922 -0.1050  1.0500  0.1164
 8959TIP3   OH251071   3.574   2.495   7.643  0.3258  0.4044 -0.3781
 8959TIP3    H151072   3.581   2.471   7.551 -0.8687  0.6366 -0.5412
 8959TIP3    H251073   3.490   2.459   7.671 -0.0904  1.7329  0.1776
 8960TIP3   OH251074   4.085   2.592   8.663  0.0165 -0.1120  0.4863
 8960TIP3    H151075   4.029   2.540   8.606  0.4933  1.1384 -1.1748
 8960TIP3    H251076   4.050   2.577   8.751 -0.8339 -1.9542 -0.1107
 8961TIP3   OH251077   5.952   3.602   8.743  0.3227 -0.1444 -0.1086
 8961TIP3    H151078   6.022   3.566   8.797  0.7409  0.1618 -0.4399
 8961TIP3    H251079   5.990   3.607   8.655 -0.3881 -0.7538 -0.4643
 8962TIP3   OH251080   3.130   3.060   9.110 -0.4569 -0.1511  0.5070
 8962TIP3    H151081   3.142   2.967   9.089  0.9728  0.1220 -0.0153
 8962TIP3    H251082   3.113   3.062   9.204 -0.3004 -0.9171  0.5566
 8963TIP3   OH251083   5.375   1.474   0.763  0.1323  0.1285 -0.5708
 8963TIP3    H151084   5.330   1.443   0.685  0.6324 -1.6580 -0.1983
 8963TIP3    H251085   5.311   1.531   0.807 -0.9574 -0.5986 -1.1702
 8964TIP3   OH251086   4.037   1.254   0.366 -0.5369 -0.4414  0.2563
 8964TIP3    H151087   4.069   1.210   0.287  1.2201 -0.0924  0.7357
 8964TIP3    H251088   3.979   1.323   0.333 -0.7663 -1.0496 -0.6547
 8965TIP3   OH251089   0.418   1.245   0.757 -0.2017  0.2349 -0.7037
 8965TIP3    H151090   0.409   1.165   0.809  0.1389 -0.2176 -1.3265
 8965TIP3    H251091   0.410   1.316   0.821  2.6992 -0.3228  0.4302
 8966TIP3   OH251092   5.487   6.853   9.630 -0.0277 -0.0333 -0.3910
 8966TIP3    H151093   5.420   6.826   9.693 -0.9985  0.0268 -1.3844
 8966TIP3    H251094   5.521   6.771   9.595  0.7487 -0.0786  0.4224
 8967TIP3   OH251095   2.949   1.788   8.470 -0.1752  0.4959  0.2769
 8967TIP3    H151096   2.878   1.836   8.513 -0.7449 -1.5641  1.7733
 8967TIP3    H251097   2.940   1.810   8.378 -0.5551  3.0068  0.8348
 8968TIP3   OH251098   1.920   5.382   8.231 -0.2058  0.4045  0.3282
 8968TIP3    H151099   1.915   5.390   8.136 -0.7025  1.7463  0.4565
 8968TIP3    H251100   1.954   5.466   8.261  1.8819 -0.6717  1.2217
 8969TIP3   OH251101   4.132   5.077   1.362  0.5789 -0.5806  0.6356
 8969TIP3    H151102   4.099   5.109   1.445 -2.8068  1.2212 -1.1825
 8969TIP3    H251103   4.145   5.156   1.309  1.6010 -1.7037 -0.8789
 8970TIP3   OH251104   2.450   5.300   8.240 -0.5098  0.3221  0.1004
 8970TIP3    H151105   2.475   5.230   8.179 -0.8322  1.2604 -1.1311
 8970TIP3    H251106   2.533   5.331   8.275 -0.2363  0.5130 -0.6962
 8971TIP3   OH251107   1.504   2.032   7.661  0.2126  0.0199  0.2737
 8971TIP3    H151108   1.531   2.110   7.709 -0.1406  0.1398  0.2804
 8971TIP3    H251109   1.565   2.026   7.588 -0.2169  0.7273 -0.1535
 8972TIP3   OH251110   5.202   3.274   0.354 -0.2294 -0.3041  0.1354
 8972TIP3    H151111   5.157   3.358   0.345 -0.9383 -0.4963  1.6147
 8972TIP3    H251112   5.238   3.257   0.267  0.2460  1.6981 -0.1141
 8973TIP3   OH251113   0.514   4.860   2.508 -0.0064 -0.1114 -0.3772
 8973TIP3    H151114   0.468   4.940   2.532  1.7484  0.3782  1.6867
 8973TIP3    H251115   0.450   4.790   2.522 -0.3030  0.5651  2.1767
 8974TIP3   OH251116   3.565   4.778   2.454 -0.4148 -0.1518  0.3773
 8974TIP3    H151117   3.565   4.872   2.439 -0.7685 -0.3185 -0.7058
 8974TIP3    H251118   3.647   4.747   2.416  0.0869 -0.1856  1.4468
 8975TIP3   OH251119   5.193   2.093   9.054 -0.3276 -0.4235  0.4989
 8975TIP3    H151120   5.271   2.081   9.109 -0.4979 -0.0131  0.8397
 8975TIP3    H251121   5.170   2.005   9.024  0.0152 -0.5982  0.7428
 8976TIP3   OH251122   7.135   5.126   1.935 -0.6452 -0.1321 -0.8453
 8976TIP3    H151123   7.092   5.050   1.896 -2.3562  0.7990 -0.8921
 8976TIP3    H251124   7.087   5.201   1.899  0.4369  0.9274 -0.1399
 8977TIP3   OH251125   0.733   0.547   0.860  0.1963  0.2255 -0.2335
 8977TIP3    H151126   0.816   0.505   0.836 -0.4620 -0.1957 -1.9100
 8977TIP3    H251127   0.666   0.484   0.834 -0.6681  0.1159  2.0368
 8978TIP3   OH251128   0.990   5.092   0.916 -0.6978 -0.4576 -0.5929
 8978TIP3    H151129   0.976   5.105   0.822  0.5658  2.7368 -0.4539
 8978TIP3    H251130   1.073   5.044   0.921  1.0832  2.3104 -1.2154
 8979TIP3   OH251131   1.614   0.311   8.967 -0.4729 -0.2194 -0.2782
 8979TIP3    H151132   1.616   0.215   8.971 -0.7630 -0.2608 -1.0511
 8979TIP3    H251133   1.686   0.338   9.023 -1.1531 -0.8585  0.9637
 8980TIP3   OH251134   2.856   6.470   0.875  0.2281 -0.2645  0.0146
 8980TIP3    H151135   2.934   6.419   0.899 -0.2214 -1.4920 -1.0769
 8980TIP3    H251136   2.891   6.555   0.848  1.5453 -1.6509 -3.1180
 8981TIP3   OH251137   2.127   1.449   1.206 -0.8321 -0.1861 -0.4627
 8981TIP3    H151138   2.205   1.503   1.220  0.2819 -1.7585 -0.3081
 8981TIP3    H251139   2.068   1.505   1.155  0.9303  0.6242 -1.7321
 8982TIP3   OH251140   0.436   5.711   2.122  0.4318  0.2825  0.8191
 8982TIP3    H151141   0.416   5.805   2.119  1.4131  0.4922 -0.0242
 8982TIP3    H251142   0.527   5.708   2.151  0.3667 -0.4120  0.9439
 8983TIP3   OH251143   4.242   3.505   9.506  0.1107 -0.1551  0.0494
 8983TIP3    H151144   4.161   3.556   9.507 -0.5145 -1.0882 -1.1941
 8983TIP3    H251145   4.294   3.543   9.577 -2.0345 -0.5842  1.9654
 8984TIP3   OH251146   6.772   1.490   9.694  0.0016 -0.6058 -0.1012
 8984TIP3    H151147   6.694   1.482   9.748  0.5285 -1.9689  0.4952
 8984TIP3    H251148   6.769   1.414   9.636  0.0707  0.1945 -1.1821
 8985TIP3   OH251149   5.886   6.682   1.774  0.0175 -0.1850 -0.2415
 8985TIP3    H151150   5.822   6.749   1.797 -0.3100 -0.8009  0.7146
 8985TIP3    H251151   5.885   6.680   1.678  0.0071  1.1250 -0.2861
 8986TIP3   OH251152   5.125   4.000   9.137  0.4864  0.6040  0.4667
 8986TIP3    H151153   5.106   3.907   9.150 -0.2357  0.7482  0.4879
 8986TIP3    H251154   5.065   4.045   9.197  0.2266  1.1160 -0.1702
 8987TIP3   OH251155   2.581   2.037   1.198 -0.1804 -0.6197  0.2200
 8987TIP3    H151156   2.570   2.128   1.227  0.6518  0.3264 -2.1305
 8987TIP3    H251157   2.494   1.999   1.204 -0.2452 -0.2522  2.8711
 8988TIP3   OH251158   5.562   6.354   8.047  0.4232  0.3884 -0.0632
 8988TIP3    H151159   5.596   6.296   7.980 -0.9462  0.9140 -1.2725
 8988TIP3    H251160   5.605   6.325   8.128  0.6186 -1.5730 -0.8011
 8989TIP3   OH251161   2.098   1.545   8.620 -0.1726 -0.3432 -0.4775
 8989TIP3    H151162   2.126   1.464   8.663 -0.4276 -0.5691 -0.7371
 8989TIP3    H251163   2.025   1.519   8.564 -0.1608  0.0395 -0.6736
 8990TIP3   OH251164   5.515   2.470   2.698 -0.6191 -0.5365 -0.5298
 8990TIP3    H151165   5.428   2.506   2.716 -0.4786  0.3132 -1.4626
 8990TIP3    H251166   5.500   2.379   2.676 -1.0359 -1.0005  1.4710
 8991TIP3   OH251167   4.316   5.889   1.863  0.4331  0.0467  0.3300
 8991TIP3    H151168   4.265   5.857   1.938  0.5148  2.6108  1.6153
 8991TIP3    H251169   4.361   5.966   1.897  1.2343  0.7638 -2.1483
 8992TIP3   OH251170   0.360   1.175   1.304  0.0607  0.3838 -0.0283
 8992TIP3    H151171   0.352   1.119   1.382 -0.0169  0.8815  0.3298
 8992TIP3    H251172   0.286   1.151   1.249 -0.7626  1.0769  0.7406
 8993TIP3   OH251173   3.963   4.815   9.067 -0.2684  0.1265  0.1151
 8993TIP3    H151174   3.970   4.910   9.078  1.0252 -0.1073  1.8043
 8993TIP3    H251175   3.888   4.802   9.009 -1.3372  2.1306  0.9772
 8994TIP3   OH251176   2.930   0.054   2.304 -0.2508 -0.2569  0.4825
 8994TIP3    H151177   2.909   0.106   2.226  2.3352  0.8659  0.4196
 8994TIP3    H251178   3.026   0.053   2.307 -0.2572 -1.4704  2.8816
 8995TIP3   OH251179   5.131   1.813   0.031  0.3562  0.5770 -0.6294
 8995TIP3    H151180   5.063   1.835   0.094 -0.3310  0.6037 -1.3591
 8995TIP3    H251181   5.212   1.845   0.070 -0.1913  1.4879 -0.2143
 8996TIP3   OH251182   0.928   4.061   7.138 -0.4312  0.7782 -0.2187
 8996TIP3    H151183   1.005   4.101   7.099 -0.4785  0.3627 -0.7487
 8996TIP3    H251184   0.881   4.022   7.064  0.4973 -1.7653  0.4391
 8997TIP3   OH251185   3.518   5.839   1.622  0.5270  0.0974 -0.3210
 8997TIP3    H151186   3.517   5.871   1.532  0.9071  1.9252  0.2702
 8997TIP3    H251187   3.426   5.828   1.645  0.4311 -0.5082 -0.9586
 8998TIP3   OH251188   0.381   4.873   0.895  0.2972 -0.8603 -0.2183
 8998TIP3    H151189   0.303   4.856   0.948  0.6589  0.2105  0.6974
 8998TIP3    H251190   0.355   4.944   0.837  0.8266  0.1256  0.7076
 8999TIP3   OH251191   5.102   4.136   1.252  0.1178 -0.4430 -0.0495
 8999TIP3    H151192   5.045   4.162   1.324  1.2637 -2.6106  1.7799
 8999TIP3    H251193   5.169   4.204   1.248 -0.7533  0.4305 -0.0471
 9000TIP3   OH251194   3.477   3.904   9.515  0.2149 -0.2138 -0.1501
 9000TIP3    H151195   3.533   3.859   9.451 -0.1292 -2.0131  0.7309
 9000TIP3    H251196   3.394   3.858   9.511 -0.9467  1.8351 -0.7747
 9001TIP3   OH251197   2.233   5.165   8.325 -0.9152  0.1517  0.1651
 9001TIP3    H151198   2.257   5.076   8.351  0.4272  0.3743 -0.1967
 9001TIP3    H251199   2.317   5.206   8.302 -1.4617  1.6226  0.6763
 9002TIP3   OH251200   3.713   0.984   0.234  0.5729 -0.0847  0.3476
 9002TIP3    H151201   3.685   0.912   0.178  2.1608  1.3942 -2.5853
 9002TIP3    H251202   3.633   1.033   0.253 -0.0126 -0.6358 -0.6273
 9003TIP3   OH251203   6.865   0.140   1.329 -0.0151 -0.2027 -0.2094
 9003TIP3    H151204   6.888   0.206   1.264 -0.8588 -0.5139 -0.8495
 9003TIP3    H251205   6.774   0.117   1.309 -0.2063 -0.5090  0.9108
 9004TIP3   OH251206   1.535   6.255   1.107 -0.2919 -0.0574 -0.2915
 9004TIP3    H151207   1.607   6.301   1.065  1.7032 -2.1817  0.5397
 9004TIP3    H251208   1.529   6.172   1.060 -1.0623 -0.6045  0.7241
 9005TIP3   OH251209   0.137   6.250   9.591  0.3146  0.8721 -0.0994
 9005TIP3    H151210   0.053   6.206   9.580 -0.1183  1.0342  2.0969
 9005TIP3    H251211   0.167   6.267   9.501 -1.5378 -0.0043 -0.9448
 9006TIP3   OH251212   2.311   6.687   1.365  0.3615  0.2925 -0.1344
 9006TIP3    H151213   2.258   6.619   1.324  1.3463 -0.9952  0.6480
 9006TIP3    H251214   2.315   6.756   1.299  0.3052 -0.8954 -1.4409
 9007TIP3   OH251215   2.402   3.713   1.418 -0.0633 -0.3104  0.4780
 9007TIP3    H151216   2.406   3.627   1.376 -0.9962 -0.5240  0.8007
 9007TIP3    H251217   2.418   3.696   1.510 -2.3736 -0.4705  0.9104
 9008TIP3   OH251218   2.715   6.923   7.502 -0.0828 -0.3798  0.2729
 9008TIP3    H151219   2.730   7.006   7.546 -1.0413  0.6103 -1.1397
 9008TIP3    H251220   2.620   6.910   7.508  0.1960 -2.0192  1.5445
 9009TIP3   OH251221   5.376   6.695   2.153 -0.7312  0.0738 -0.4217
 9009TIP3    H151222   5.319   6.621   2.132 -0.9989  0.8411 -2.6161
 9009TIP3    H251223   5.323   6.772   2.134  0.4053  0.8204 -0.6400
 9010TIP3   OH251224   6.577   4.151   0.271  0.0709  0.2033 -0.5112
 9010TIP3    H151225   6.646   4.214   0.290  0.3109 -0.3011  0.3514
 9010TIP3    H251226   6.543   4.126   0.357 -1.0487  0.2880 -0.9142
 9011TIP3   OH251227   1.305   4.470   1.802  0.3439  0.1200  0.0328
 9011TIP3    H151228   1.280   4.377   1.807  2.3082 -0.6227 -1.9518
 9011TIP3    H251229   1.285   4.495   1.712 -0.0241  1.6150  0.5086
 9012TIP3   OH251230   0.450   3.522   3.203  0.2020  0.0807  0.1297
 9012TIP3    H151231   0.463   3.544   3.295 -0.0650  0.0614  0.1726
 9012TIP3    H251232   0.442   3.426   3.202  1.0416 -0.0014 -0.0179
 9013TIP3   OH251233   1.215   5.633   9.665 -0.2857 -1.2255 -0.3389
 9013TIP3    H151234   1.265   5.554   9.682  0.5788 -0.8634 -1.1056
 9013TIP3    H251235   1.210   5.677   9.750  2.1087 -0.4893 -0.5075
 9014TIP3   OH251236   5.739   0.586   8.553  0.0651 -0.0748 -0.2249
 9014TIP3    H151237   5.752   0.662   8.610  1.3612 -0.9785  0.7403
 9014TIP3    H251238   5.810   0.527   8.576 -1.5782 -2.0972 -0.1130
 9015TIP3   OH251239   1.369   5.262   9.006 -0.6484 -0.4761  1.1530
 9015TIP3    H151240   1.325   5.313   8.938 -0.8280 -2.2896 -0.1436
 9015TIP3    H251241   1.462   5.281   8.993 -0.5766 -1.6793 -0.4152
 9016TIP3   OH251242   6.350   3.555   1.641  0.3775  0.2712 -0.1517
 9016TIP3    H151243   6.364   3.499   1.718 -1.1003 -0.4546 -0.3806
 9016TIP3    H251244   6.435   3.558   1.597  0.9634 -0.1817  0.9254
 9017TIP3   OH251245   2.114   0.667   7.900  0.1295  0.0552 -0.6118
 9017TIP3    H151246   2.154   0.751   7.879  0.0740 -0.1289 -1.4806
 9017TIP3    H251247   2.162   0.636   7.977 -0.6245  1.4164  0.4659
 9018TIP3   OH251248   6.711   6.503   8.612 -0.0302 -0.0631 -0.3568
 9018TIP3    H151249   6.783   6.566   8.608 -0.2605  0.1441 -1.9193
 9018TIP3    H251250   6.644   6.539   8.555 -0.4108 -1.4226 -0.8127
 9019TIP3   OH251251   4.730   6.080   9.633 -0.0719 -0.3484 -0.1340
 9019TIP3    H151252   4.639   6.095   9.657 -0.5789 -1.4943 -1.1993
 9019TIP3    H251253   4.759   6.162   9.593 -0.5821  0.0628  0.3341
 9020TIP3   OH251254   1.786   5.487   6.383 -0.8470  1.0072  0.0737
 9020TIP3    H151255   1.876   5.460   6.364 -0.8861 -0.5583  1.8248
 9020TIP3    H251256   1.794   5.578   6.411  0.4263  0.4852  1.5462
 9021TIP3   OH251257   2.544   1.084   0.319  0.1550  0.0475  0.1388
 9021TIP3    H151258   2.640   1.085   0.312  0.2559  3.7632  0.0737
 9021TIP3    H251259   2.526   1.125   0.403 -1.4152 -0.3676  0.0340
 9022TIP3   OH251260   3.383   5.542   1.296  0.2781  0.3209 -0.9524
 9022TIP3    H151261   3.329   5.463   1.303  1.1496 -0.4010 -1.9990
 9022TIP3    H251262   3.321   5.613   1.280 -0.4788 -0.2437 -0.5405
 9023TIP3   OH251263   1.295   5.292   2.114 -0.1002  0.1518  0.1355
 9023TIP3    H151264   1.224   5.253   2.165  0.0459 -0.0118  0.2169
 9023TIP3    H251265   1.288   5.251   2.028 -0.9741  1.1749 -0.2946
 9024TIP3   OH251266   4.694   6.160   1.331 -0.3455  0.3057  0.0168
 9024TIP3    H151267   4.725   6.211   1.256 -0.0360  1.2303  0.7495
 9024TIP3    H251268   4.707   6.069   1.306  0.6177  0.6249 -0.6759
 9025TIP3   OH251269   1.303   3.871   9.397  0.5607  0.7539  0.2679
 9025TIP3    H151270   1.260   3.943   9.442  0.1432  1.5569 -1.3383
 9025TIP3    H251271   1.339   3.817   9.467 -0.2037  1.8412  1.5459
 9026TIP3   OH251272   2.454   3.531   9.006 -0.1074  0.3880  0.0580
 9026TIP3    H151273   2.470   3.607   8.950 -0.6554  0.1298 -0.4543
 9026TIP3    H251274   2.417   3.568   9.086  0.3132  0.7240  0.1009
 9027TIP3   OH251275   5.939   3.114   9.281 -0.7499 -0.1104  0.2927
 9027TIP3    H151276   5.896   3.058   9.346 -0.5787  0.0396  0.5414
 9027TIP3    H251277   6.033   3.101   9.297 -0.7015 -0.6332 -0.4165
 9028TIP3   OH251278   5.789   5.437   2.461 -0.5365 -0.1807 -0.2213
 9028TIP3    H151279   5.814   5.413   2.550 -1.6892  0.3665  0.2570
 9028TIP3    H251280   5.871   5.470   2.422  0.2755 -1.5938  0.1940
 9029TIP3   OH251281   6.664   5.108   7.817  0.5497  0.4966  0.1183
 9029TIP3    H151282   6.675   5.150   7.731 -0.0218 -0.9847 -0.7131
 9029TIP3    H251283   6.742   5.134   7.866  1.2097  0.8448 -1.0795
 9030TIP3   OH251284   3.707   0.832   9.388 -0.1126 -0.7581 -0.5679
 9030TIP3    H151285   3.727   0.923   9.412 -1.2387 -0.6772  0.1260
 9030TIP3    H251286   3.792   0.789   9.385  0.6591  0.6919 -2.5999
 9031TIP3   OH251287   6.081   4.856   7.029 -0.2787  0.3477 -0.3649
 9031TIP3    H151288   6.117   4.918   6.965  1.2797 -2.1915 -2.1318
 9031TIP3    H251289   5.987   4.854   7.010 -0.4743  2.4750  0.1117
 9032TIP3   OH251290   5.224   3.558   0.117 -0.0693  0.0682  0.3077
 9032TIP3    H151291   5.307   3.597   0.087 -0.1492  0.5044  0.6360
 9032TIP3    H251292   5.187   3.518   0.039  0.0998  0.5133 -0.0093
 9033TIP3   OH251293   6.863   6.015   7.020 -0.4376 -0.2214 -0.2736
 9033TIP3    H151294   6.900   5.945   6.966 -2.1234 -0.6743 -0.9081
 9033TIP3    H251295   6.833   6.080   6.957  0.3657  0.7275  0.2830
 9034TIP3   OH251296   3.627   2.386   9.239  0.4587 -0.2497  0.1865
 9034TIP3    H151297   3.681   2.314   9.205 -0.7327 -0.7096 -0.7882
 9034TIP3    H251298   3.592   2.352   9.321  1.9298  0.2016  1.0426
 9035TIP3   OH251299   1.953   5.631   1.837 -0.3643 -0.0739  0.0631
 9035TIP3    H151300   1.912   5.714   1.860  0.2138 -0.1496  1.4856
 9035TIP3    H251301   1.973   5.590   1.922 -2.3402 -2.5330 -0.5595
 9036TIP3   OH251302   4.293   0.989   6.681  0.4344 -0.7197 -0.0734
 9036TIP3    H151303   4.370   1.046   6.685  0.1651 -0.4204  1.1279
 9036TIP3    H251304   4.254   0.995   6.768 -0.8857 -0.9736 -0.6228
 9037TIP3   OH251305   2.265   6.232   9.582 -0.2130 -0.4453  0.6233
 9037TIP3    H151306   2.248   6.165   9.515 -0.4262 -1.3011  1.5147
 9037TIP3    H251307   2.252   6.187   9.665 -2.7371  1.3024  1.2813
 9038TIP3   OH251308   2.152   3.125   0.615 -0.4360  0.2263 -0.0392
 9038TIP3    H151309   2.227   3.173   0.580 -0.0143 -0.7183 -0.4627
 9038TIP3    H251310   2.169   3.118   0.709  0.0552 -0.0612 -0.1469
 9039TIP3   OH251311   2.857   6.488   7.981 -0.0169  0.2010  0.8395
 9039TIP3    H151312   2.772   6.521   7.951  0.1729 -0.9590 -1.1024
 9039TIP3    H251313   2.840   6.399   8.010  0.7314 -0.5299 -0.8465
 9040TIP3   OH251314   4.022   6.021   0.146  0.1196 -0.8589 -0.4236
 9040TIP3    H151315   3.958   6.041   0.078  0.6952  0.0497 -0.7095
 9040TIP3    H251316   4.015   6.093   0.208  0.6055 -0.9510 -0.2605
 9041TIP3   OH251317   6.010   7.191   9.922 -0.5896  0.5621 -0.0691
 9041TIP3    H151318   6.075   7.225   9.861 -0.6632  2.4088  0.7842
 9041TIP3    H251319   6.056   7.186  10.006 -1.5297  2.1152  0.5991
 9042TIP3   OH251320   0.131   3.158   8.143  0.0266  0.0190 -0.1788
 9042TIP3    H151321   0.123   3.232   8.203  0.2927  1.3240 -1.6892
 9042TIP3    H251322   0.063   3.097   8.171 -0.6267  1.1195  0.7044
 9043TIP3   OH251323   6.907   1.335   2.791 -0.4314  0.3072  0.4970
 9043TIP3    H151324   6.936   1.317   2.702 -1.5766  0.3001  0.1058
 9043TIP3    H251325   6.936   1.424   2.809  1.7583 -0.4482  0.9612
 9044TIP3   OH251326   1.842   2.269   0.482  0.0042 -0.0670  0.3082
 9044TIP3    H151327   1.903   2.279   0.555  0.0308 -0.1309  0.2954
 9044TIP3    H251328   1.770   2.217   0.518  1.5292 -3.0589 -0.5335
 9045TIP3   OH251329   0.495   0.382   7.756 -0.3575  0.1485  0.1910
 9045TIP3    H151330   0.446   0.429   7.688  0.1886 -0.2409 -0.4874
 9045TIP3    H251331   0.581   0.368   7.717 -0.2553 -0.6922  0.6967
 9046TIP3   OH251332   3.135   4.382   1.780  0.0434 -0.7564  0.2779
 9046TIP3    H151333   3.197   4.452   1.801  0.4067 -1.3828  1.4211
 9046TIP3    H251334   3.050   4.427   1.771  0.8919  0.4507 -3.5717
 9047TIP3   OH251335   0.980   5.171   0.668  0.2786 -0.5575 -0.0259
 9047TIP3    H151336   1.063   5.186   0.623 -0.3568 -0.4764 -1.2264
 9047TIP3    H251337   0.934   5.255   0.661  1.0813  0.1995  2.8592
 9048TIP3   OH251338   0.201   0.427   6.902 -0.1477  0.2132  0.1213
 9048TIP3    H151339   0.264   0.484   6.857 -1.6623 -0.3943 -3.1361
 9048TIP3    H251340   0.243   0.403   6.984  2.3266  2.5923 -0.3200
 9049TIP3   OH251341   1.334   0.769   7.627 -0.0760  0.0982 -0.0061
 9049TIP3    H151342   1.349   0.861   7.652  0.4331 -0.6059  2.6377
 9049TIP3    H251343   1.246   0.750   7.662 -0.3683 -0.3069 -0.9441
 9050TIP3   OH251344   1.951   4.476   1.028  0.1188  0.4371  0.2586
 9050TIP3    H151345   1.917   4.515   1.109 -0.4157  2.2161 -0.7573
 9050TIP3    H251346   2.046   4.478   1.039  0.0294 -0.2458  1.2343
 9051TIP3   OH251347   0.492   1.162   9.424  0.1188  0.0419 -0.0046
 9051TIP3    H151348   0.528   1.091   9.371 -1.8931 -0.1693 -1.1794
 9051TIP3    H251349   0.407   1.182   9.384 -1.5186 -0.0939  3.1214
 9052TIP3   OH251350   6.058   6.540   2.461  0.2318  0.2987  0.2696
 9052TIP3    H151351   6.114   6.595   2.406 -0.4330  0.0537 -0.6725
 9052TIP3    H251352   5.987   6.513   2.404 -0.2831 -0.2758  1.1555
 9053TIP3   OH251353   1.204   0.899   1.733 -0.4072 -0.5215  0.3809
 9053TIP3    H151354   1.118   0.938   1.746 -0.4164 -0.3561 -0.1596
 9053TIP3    H251355   1.192   0.806   1.755 -0.9130 -0.6563 -0.4319
 9054TIP3   OH251356   6.722   3.797   7.798 -0.0734  0.1750  0.2420
 9054TIP3    H151357   6.765   3.740   7.861 -0.9738 -0.2130  0.5170
 9054TIP3    H251358   6.768   3.781   7.715  0.0691 -0.4991  0.4493
 9055TIP3   OH251359   6.630   6.327   1.086  0.2724 -0.1624  0.1233
 9055TIP3    H151360   6.676   6.410   1.076 -0.7222  0.3605 -0.1611
 9055TIP3    H251361   6.694   6.261   1.061  0.6033  0.6023 -1.1171
 9056TIP3   OH251362   4.413   1.311   7.845  0.0896  0.0854  0.2846
 9056TIP3    H151363   4.363   1.385   7.880  2.7672  1.8524  0.6097
 9056TIP3    H251364   4.424   1.252   7.920  0.4580  0.8128  0.8138
 9057TIP3   OH251365   5.411   4.923   6.815 -0.3793  0.0846 -0.5056
 9057TIP3    H151366   5.385   4.911   6.723 -0.5506 -0.4668 -0.3885
 9057TIP3    H251367   5.442   5.014   6.819  0.2124 -0.0713 -1.2531
 9058TIP3   OH251368   4.706   2.072   0.033  0.1244  0.4900  0.0420
 9058TIP3    H151369   4.701   2.019   0.112 -1.0622  0.5193 -0.0030
 9058TIP3    H251370   4.671   2.015  -0.036 -2.0229  1.5851  0.1445
 9059TIP3   OH251371   0.370   3.062   2.032  0.3420  0.0766 -0.8936
 9059TIP3    H151372   0.276   3.059   2.049  0.2319  0.3006 -1.4360
 9059TIP3    H251373   0.409   3.093   2.114  0.1226 -1.6825 -0.0899
 9060TIP3   OH251374   0.739   0.051   1.680 -0.6516  0.4816 -0.2289
 9060TIP3    H151375   0.734  -0.045   1.677 -0.6538  0.4390  0.7677
 9060TIP3    H251376   0.648   0.080   1.669 -0.7456  0.3415  0.1591
 9061TIP3   OH251377   6.886   5.332   2.651 -0.0269 -0.1320 -0.5024
 9061TIP3    H151378   6.878   5.269   2.580 -0.6618  0.1437 -0.6785
 9061TIP3    H251379   6.802   5.379   2.652  0.9718  1.7838 -1.3898
 9062TIP3   OH251380   1.706   1.534   0.059  0.3243  0.7037  0.1066
 9062TIP3    H151381   1.623   1.490   0.041  0.8250 -0.0126 -0.5159
 9062TIP3    H251382   1.713   1.600  -0.010  0.1120  0.9976  0.3644
 9063TIP3   OH251383   1.946   1.713   9.066  0.6875  0.2625 -0.2887
 9063TIP3    H151384   1.997   1.640   9.030  1.1745  0.0442  0.8008
 9063TIP3    H251385   1.889   1.673   9.132 -0.4909  0.5953 -1.0841
 9064TIP3   OH251386   1.054   1.807   9.665  0.4244  0.2326  0.7928
 9064TIP3    H151387   1.109   1.815   9.743  0.1423  1.1154  0.9124
 9064TIP3    H251388   0.969   1.779   9.699  0.4344  0.1400  0.7433
 9065TIP3   OH251389   4.487   0.807   1.722 -0.0451  0.0895 -0.0619
 9065TIP3    H151390   4.498   0.902   1.717  0.5086 -0.0108 -0.9992
 9065TIP3    H251391   4.534   0.781   1.801  0.0015  0.5690  0.0717
 9066TIP3   OH251392   1.371   5.470   7.524  0.0381  0.0305 -0.1483
 9066TIP3    H151393   1.385   5.427   7.609  2.3267 -0.3190 -0.6292
 9066TIP3    H251394   1.277   5.463   7.509 -0.1577 -1.6575  1.4556
 9067TIP3   OH251395   2.492   1.653   2.955 -0.2871 -0.4219  0.0549
 9067TIP3    H151396   2.445   1.724   2.913  2.1609  0.8737 -0.6685
 9067TIP3    H251397   2.426   1.611   3.012 -2.2707  1.1779 -0.9302
 9068TIP3   OH251398   5.290   3.995   1.556 -0.2417 -0.1224  0.0773
 9068TIP3    H151399   5.338   3.978   1.474 -0.4989 -0.4547 -0.0073
 9068TIP3    H251400   5.297   4.089   1.568  0.0821 -0.1136 -0.1550
 9069TIP3   OH251401   5.529   7.256   7.839 -0.4624 -0.0414 -0.0532
 9069TIP3    H151402   5.585   7.192   7.795 -1.1012 -0.4046 -0.3390
 9069TIP3    H251403   5.473   7.204   7.897 -2.7106 -0.0533 -2.0844
 9070TIP3   OH251404   6.488   5.816   7.632  0.4869  0.0390 -0.7526
 9070TIP3    H151405   6.509   5.909   7.639 -1.3478  0.4255  0.0617
 9070TIP3    H251406   6.416   5.811   7.571 -0.4513 -0.6592  0.3623
 9071TIP3   OH251407   6.745   5.796   6.876 -0.4223  0.0149 -0.5113
 9071TIP3    H151408   6.662   5.810   6.921 -0.2648 -1.4304  0.2973
 9071TIP3    H251409   6.722   5.745   6.799 -0.4154  0.6000 -0.9065
 9072TIP3   OH251410   6.127   3.272   1.926 -0.2110  0.3508  0.2371
 9072TIP3    H151411   6.070   3.348   1.940 -1.4261 -0.3810 -0.6052
 9072TIP3    H251412   6.215   3.310   1.919 -0.7566  1.6569  0.0826
 9073TIP3   OH251413   2.522   0.471   7.487  0.0924 -0.5022 -0.2845
 9073TIP3    H151414   2.521   0.516   7.402 -1.6446 -0.7643 -0.4283
 9073TIP3    H251415   2.442   0.499   7.530  1.1085 -0.1362  1.4351
 9074TIP3   OH251416   6.210   0.586   2.568 -0.0889 -0.0575 -0.3244
 9074TIP3    H151417   6.147   0.535   2.620  0.8030 -1.0039 -0.1419
 9074TIP3    H251418   6.251   0.645   2.632  0.9679 -1.1825  0.0633
 9075TIP3   OH251419   3.551   5.242   0.159  0.2488  0.3264  0.2059
 9075TIP3    H151420   3.609   5.257   0.084 -0.1297 -0.1575 -0.1918
 9075TIP3    H251421   3.575   5.310   0.222  0.5567  0.7529 -0.3625
 9076TIP3   OH251422   2.204   0.614   9.682  0.1341  0.2845 -0.1263
 9076TIP3    H151423   2.130   0.632   9.624 -1.2875 -2.7691  0.5619
 9076TIP3    H251424   2.266   0.565   9.629 -0.5085 -1.2293  0.4565
 9077TIP3   OH251425   5.084   2.233   8.609 -0.7172  0.5067 -0.2820
 9077TIP3    H151426   5.092   2.151   8.657 -1.2142  0.0121 -1.0211
 9077TIP3    H251427   5.105   2.301   8.673  0.7490 -0.2342  0.0649
 9078TIP3   OH251428   2.538   6.717   0.467  0.2557 -0.0445  0.0543
 9078TIP3    H151429   2.609   6.699   0.527  0.2069  0.5444  0.2989
 9078TIP3    H251430   2.578   6.716   0.380  0.0570 -2.3790 -0.0795
 9079TIP3   OH251431   2.013   0.973   2.283  0.2578 -0.0781  0.4488
 9079TIP3    H151432   2.007   1.053   2.231  0.0443 -0.0877  0.4611
 9079TIP3    H251433   2.022   0.903   2.218  1.5859  0.0511  0.4496
 9080TIP3   OH251434   4.400   4.506   1.027 -0.0966 -0.2205  0.1217
 9080TIP3    H151435   4.307   4.527   1.037  0.0070  0.5343 -0.4205
 9080TIP3    H251436   4.405   4.411   1.038 -1.0646 -0.3834 -0.8030
 9081TIP3   OH251437   4.464   2.484   8.480  0.2950  0.4658 -0.1973
 9081TIP3    H151438   4.395   2.466   8.416 -0.2011  0.0055  0.4486
 9081TIP3    H251439   4.440   2.569   8.518 -0.1432  0.1218  0.3070
 9082TIP3   OH251440   0.219   4.135   7.750  0.0560  0.0063 -0.9040
 9082TIP3    H151441   0.240   4.046   7.778  0.1464  0.3536  0.1612
 9082TIP3    H251442   0.228   4.188   7.829  0.4469  1.0409 -1.6295
 9083TIP3   OH251443   5.144   2.139   0.973  0.5984 -0.0278 -0.4190
 9083TIP3    H151444   5.080   2.096   1.030  0.9372  1.5441  1.2715
 9083TIP3    H251445   5.168   2.073   0.909 -1.3997 -1.2144 -0.0322
 9084TIP3   OH251446   2.825   1.862   2.140 -0.1454 -0.8770  0.1927
 9084TIP3    H151447   2.830   1.788   2.200 -1.4192 -0.0742  1.3501
 9084TIP3    H251448   2.877   1.930   2.182  2.0069 -1.4159 -1.4274
 9085TIP3   OH251449   6.157   3.864   2.190  0.5048  0.3299  0.0749
 9085TIP3    H151450   6.067   3.889   2.211  0.3428  1.8022 -2.0347
 9085TIP3    H251451   6.165   3.879   2.096  3.4881  2.0082  0.4458
 9086TIP3   OH251452   1.440   3.352   0.523  0.0071  0.2471  0.0583
 9086TIP3    H151453   1.441   3.317   0.612 -0.3976 -0.7567 -0.3133
 9086TIP3    H251454   1.463   3.277   0.467  0.4690  0.9118 -0.6715
 9087TIP3   OH251455   3.159   4.843   8.266 -0.2649 -0.6511  0.0573
 9087TIP3    H151456   3.116   4.922   8.297 -0.1590 -0.6639  0.2411
 9087TIP3    H251457   3.201   4.868   8.184 -2.9167 -1.3237 -1.6136
 9088TIP3   OH251458   7.173   0.621   0.603  0.2132  0.5413 -0.1376
 9088TIP3    H151459   7.216   0.588   0.524  0.5717 -0.9155  0.6290
 9088TIP3    H251460   7.080   0.622   0.580  0.2402 -0.5729 -0.3591
 9089TIP3   OH251461   2.201   5.652   7.899  0.3220 -0.0097 -0.2508
 9089TIP3    H151462   2.274   5.681   7.844 -0.4882  0.5728 -1.0257
 9089TIP3    H251463   2.137   5.617   7.838 -0.1099 -0.4164  0.4241
 9090TIP3   OH251464   5.799   2.366   0.883  0.3867  0.0210 -0.4679
 9090TIP3    H151465   5.776   2.345   0.793 -0.6654 -0.7444 -0.0445
 9090TIP3    H251466   5.879   2.418   0.876  0.5744 -0.4096 -1.8049
 9091TIP3   OH251467   4.440   7.158   9.658 -0.0422 -0.0023  0.7962
 9091TIP3    H151468   4.384   7.109   9.597  1.9966 -1.6010  0.0897
 9091TIP3    H251469   4.382   7.180   9.731 -1.2654 -3.0676  0.9220
 9092TIP3   OH251470   4.795   1.861   7.399  0.1448 -0.0227 -0.1163
 9092TIP3    H151471   4.862   1.914   7.355  1.0834 -2.0980 -1.2935
 9092TIP3    H251472   4.712   1.901   7.372  0.8188  1.4860 -0.0854
 9093TIP3   OH251473   2.795   5.377   9.156  0.2170  0.2784  0.3160
 9093TIP3    H151474   2.792   5.472   9.164 -3.6482  0.3048  0.8757
 9093TIP3    H251475   2.779   5.360   9.063  0.5837  0.1829  0.2705
 9094TIP3   OH251476   6.090   4.365   0.505  0.1701 -0.2585  0.0210
 9094TIP3    H151477   6.007   4.318   0.514 -0.5825  1.0276 -0.0157
 9094TIP3    H251478   6.151   4.300   0.470 -1.6021 -0.4440 -3.0236
 9095TIP3   OH251479   3.865   6.130   9.716  0.2056 -0.4657 -0.5842
 9095TIP3    H151480   3.957   6.156   9.712  0.0592  0.5721  1.3964
 9095TIP3    H251481   3.856   6.061   9.650  2.0349  0.4285 -1.8394
 9096TIP3   OH251482   2.142   4.285   8.549 -0.1938  0.1547  0.1759
 9096TIP3    H151483   2.119   4.229   8.623 -0.2643 -0.5324 -0.3561
 9096TIP3    H251484   2.225   4.324   8.574  0.2654 -0.8145  0.2241
 9097TIP3   OH251485   1.043   5.246   1.676 -0.1083 -0.1646 -0.1865
 9097TIP3    H151486   1.020   5.171   1.622 -1.4066 -1.2369  1.7329
 9097TIP3    H251487   1.105   5.211   1.741 -0.5293  0.4750  0.5769
 9098TIP3   OH251488   4.705   2.513   1.307  0.2131 -0.2781  0.3476
 9098TIP3    H151489   4.726   2.421   1.320 -0.3703 -0.5264 -0.4165
 9098TIP3    H251490   4.734   2.556   1.388  1.3337 -0.9816  0.3387
 9099TIP3   OH251491   3.715   3.315   9.111 -0.1699 -0.0519 -0.1451
 9099TIP3    H151492   3.725   3.280   9.022  3.4339 -1.1661  0.5270
 9099TIP3    H251493   3.670   3.245   9.159 -1.2995  0.1702 -0.8455
 9100TIP3   OH251494   4.886   6.123   0.202 -0.1850 -0.2971  0.0494
 9100TIP3    H151495   4.914   6.160   0.286 -1.6868 -0.6870  0.7555
 9100TIP3    H251496   4.895   6.028   0.214  1.8449 -0.3324 -1.0982
 9101TIP3   OH251497   0.112   3.447   8.676  0.4894 -0.3815  0.3334
 9101TIP3    H151498   0.179   3.512   8.694  0.4146 -0.1991 -0.0495
 9101TIP3    H251499   0.033   3.482   8.716 -0.1403  0.9524 -1.9335
 9102TIP3   OH251500   1.070   6.408   9.678 -0.0199  0.5717  0.3027
 9102TIP3    H151501   1.110   6.440   9.598  1.9829  0.6312  1.2771
 9102TIP3    H251502   0.986   6.372   9.650  1.2000 -0.6572 -2.0441
 9103TIP3   OH251503   0.655   7.208   2.064 -0.2209  0.0035  0.3169
 9103TIP3    H151504   0.589   7.232   1.998  0.3595  0.2627 -0.1734
 9103TIP3    H251505   0.692   7.291   2.092 -1.1321 -0.0183  1.6962
 9104TIP3   OH251506   1.368   5.567   8.628  0.0490 -0.1291  0.0217
 9104TIP3    H151507   1.353   5.647   8.679 -0.9027  1.0454 -1.9898
 9104TIP3    H251508   1.300   5.568   8.561 -1.2803 -3.6723  1.0550
 9105TIP3   OH251509   6.327   4.453   0.692  0.0181  0.2352  0.1137
 9105TIP3    H151510   6.258   4.422   0.634  0.7156 -0.0445 -0.5809
 9105TIP3    H251511   6.356   4.374   0.739  1.0083  0.0115 -0.8265
 9106TIP3   OH251512   5.600   1.998   1.244 -0.0850 -0.0613  0.0811
 9106TIP3    H151513   5.672   1.990   1.307 -1.4131  0.6583  1.7874
 9106TIP3    H251514   5.621   2.076   1.193  1.4912 -1.1888 -1.0859
 9107TIP3   OH251515   5.975   1.076   2.858  0.2084  0.1814  0.4505
 9107TIP3    H151516   5.980   0.998   2.803 -2.3826  1.1484 -1.3717
 9107TIP3    H251517   5.936   1.045   2.940  0.2988 -0.6326  0.1971
 9108TIP3   OH251518   5.199   1.733   9.404 -0.1162  0.3159  0.5532
 9108TIP3    H151519   5.115   1.724   9.359  0.7005 -0.5596 -0.8477
 9108TIP3    H251520   5.265   1.725   9.335  1.1304  1.8352  1.4815
 9109TIP3   OH251521   7.267   2.101   1.070  0.0262  0.0173 -0.2875
 9109TIP3    H151522   7.190   2.134   1.117  1.0804  0.7680  0.9618
 9109TIP3    H251523   7.290   2.020   1.117 -1.3299 -1.5231 -2.0889
 9110TIP3   OH251524   2.108   2.099   7.662 -0.2315  0.0070 -0.1844
 9110TIP3    H151525   2.192   2.062   7.634  0.5842  0.9657  0.9159
 9110TIP3    H251526   2.130   2.182   7.703 -1.5317 -0.4436  1.5809
 9111TIP3   OH251527   4.426   0.902   1.206  0.3330 -0.2661  0.0898
 9111TIP3    H151528   4.345   0.900   1.256  0.6516  0.7868  0.6656
 9111TIP3    H251529   4.445   0.995   1.194  0.4244 -0.4848 -1.7379
 9112TIP3   OH251530   6.645   4.854   0.518  0.0239 -0.0953  0.0547
 9112TIP3    H151531   6.611   4.846   0.429 -0.3467  0.5320  0.1436
 9112TIP3    H251532   6.737   4.878   0.506  0.4492 -1.7096 -0.1805
 9113TIP3   OH251533   1.215   2.697   0.218  0.5165 -0.2452  0.1223
 9113TIP3    H151534   1.134   2.746   0.232  1.5218  1.1813  1.2500
 9113TIP3    H251535   1.231   2.704   0.124  0.6443  1.7029  0.2341
 9114TIP3   OH251536   2.422   5.708   0.076 -0.0147 -0.1870 -0.2660
 9114TIP3    H151537   2.436   5.690   0.169  0.1187 -1.9906 -0.6057
 9114TIP3    H251538   2.482   5.649   0.031 -0.6237  0.1237 -1.5141
 9115TIP3   OH251539   3.364   6.439   3.444  0.6271 -0.3385 -0.0923
 9115TIP3    H151540   3.298   6.374   3.421  0.5051  0.0524 -0.8862
 9115TIP3    H251541   3.444   6.388   3.459  0.2882 -0.7608  0.3357
 9116TIP3   OH251542   0.154   6.131   0.624  0.1993 -0.1388  0.0049
 9116TIP3    H151543   0.243   6.146   0.593  0.8422 -1.1187  1.2479
 9116TIP3    H251544   0.098   6.163   0.554  1.3006  5.7880  1.3312
 9117TIP3   OH251545   1.883   6.348   7.875  0.2769 -0.3449  0.2946
 9117TIP3    H151546   1.835   6.419   7.832  0.9252 -0.0592  0.0368
 9117TIP3    H251547   1.954   6.392   7.922  1.1335 -0.8776 -0.4737
 9118TIP3   OH251548   0.364   6.984   8.296 -0.8359  0.2349  0.5048
 9118TIP3    H151549   0.429   7.038   8.340 -0.4911  0.9990 -0.8579
 9118TIP3    H251550   0.301   7.048   8.261 -0.7682 -0.2870 -0.5979
 9119TIP3   OH251551   4.799   6.227   8.580 -0.4575  0.6136 -0.7359
 9119TIP3    H151552   4.851   6.240   8.501  0.4622 -2.6282 -0.8366
 9119TIP3    H251553   4.725   6.173   8.551  0.2205 -1.1412  0.6489
 9120TIP3   OH251554   4.146   3.647   9.842  0.0371  0.7028  0.1772
 9120TIP3    H151555   4.217   3.583   9.848  0.7152  1.4173 -0.0557
 9120TIP3    H251556   4.070   3.595   9.815  0.0900 -0.3240  1.8799
 9121TIP3   OH251557   5.266   2.309   9.807 -0.8249  0.1852 -0.4983
 9121TIP3    H151558   5.335   2.291   9.744 -1.1079 -1.2839 -0.4258
 9121TIP3    H251559   5.219   2.384   9.771 -0.6776 -0.3285 -1.7817
 9122TIP3   OH251560   3.715   7.121   9.192  0.9180 -0.0865 -0.5300
 9122TIP3    H151561   3.649   7.064   9.232  1.1649 -0.3291 -0.4686
 9122TIP3    H251562   3.694   7.120   9.099  0.2298  0.6190 -0.3973
 9123TIP3   OH251563   0.753   3.191   2.820  0.5354  0.0801 -0.2503
 9123TIP3    H151564   0.819   3.126   2.798  1.5251  1.3861 -1.4003
 9123TIP3    H251565   0.671   3.142   2.824  1.2169 -1.2169 -1.2032
 9124TIP3   OH251566   0.048   6.392   9.804  0.1896  0.4843  0.2010
 9124TIP3    H151567   0.067   6.483   9.782  0.6013  0.5083  0.6517
 9124TIP3    H251568   0.099   6.341   9.741 -0.2800  0.5593 -0.2520
 9125TIP3   OH251569   0.702   3.403   9.554 -0.2969  0.4428 -0.3341
 9125TIP3    H151570   0.612   3.437   9.552 -0.7760 -0.5485  1.7096
 9125TIP3    H251571   0.694   3.315   9.591  1.3628 -0.3565 -1.7278
 9126TIP3   OH251572   1.127   0.087   7.837 -0.5441 -0.3789  0.5587
 9126TIP3    H151573   1.089   0.148   7.774  2.4701  1.9269  0.7930
 9126TIP3    H251574   1.203   0.050   7.792  0.2253 -0.5698  1.9652
 9127TIP3   OH251575   2.839   5.876   9.240 -0.0291 -0.4715 -0.3095
 9127TIP3    H151576   2.883   5.912   9.317 -1.5786 -0.5499  0.6610
 9127TIP3    H251577   2.909   5.839   9.187  1.0148 -1.0313  1.3945
 9128TIP3   OH251578   1.129   2.006   1.749  0.1172 -0.3529  0.6541
 9128TIP3    H151579   1.161   2.042   1.666 -0.0388 -0.1153  0.6972
 9128TIP3    H251580   1.035   2.024   1.749  0.1933  0.0685  1.0922
 9129TIP3   OH251581   4.426   1.102   8.354 -1.2064 -0.3688  0.1151
 9129TIP3    H151582   4.470   1.081   8.437  0.0027 -0.8509 -0.6267
 9129TIP3    H251583   4.412   1.196   8.358  1.5667  0.1508 -0.3709
 9130TIP3   OH251584   0.615   6.524   7.382 -0.7452 -0.4702 -0.1658
 9130TIP3    H151585   0.626   6.476   7.300 -1.0096 -0.6820 -0.0772
 9130TIP3    H251586   0.594   6.613   7.355 -3.4522 -1.0706 -0.3795
 9131TIP3   OH251587   1.698   5.724   8.832  1.0286 -0.0026  0.3479
 9131TIP3    H151588   1.703   5.652   8.769  0.1401  1.5379 -1.6143
 9131TIP3    H251589   1.624   5.702   8.888 -1.1488  0.6481 -2.0739
 9132TIP3   OH251590   0.845   0.356   0.220 -0.4030  0.4008 -0.1708
 9132TIP3    H151591   0.879   0.437   0.181 -0.0861  0.7136  0.7392
 9132TIP3    H251592   0.778   0.385   0.282 -2.6927 -0.2202 -2.1966
 9133TIP3   OH251593   2.158   6.448   0.294 -0.1385 -0.1289 -0.2544
 9133TIP3    H151594   2.116   6.368   0.325 -1.5546  1.2851  1.6531
 9133TIP3    H251595   2.249   6.422   0.278  0.6623 -1.3075  4.5166
 9134TIP3   OH251596   2.601   4.620   8.754  0.2205 -0.1237 -0.2366
 9134TIP3    H151597   2.673   4.677   8.727  1.3298 -0.7949  1.1742
 9134TIP3    H251598   2.621   4.536   8.713 -0.1256 -0.1429 -0.3689
 9135TIP3   OH251599   3.642   7.071   8.009  0.0586 -0.3373 -0.5335
 9135TIP3    H151600   3.602   7.000   7.959 -0.3002  0.6572 -1.7087
 9135TIP3    H251601   3.579   7.143   8.004  0.3772  0.0540  0.6980
 9136TIP3   OH251602   4.761   2.302   8.836 -0.0701  0.6344  0.0399
 9136TIP3    H151603   4.837   2.312   8.779  0.2295 -0.6224  0.1694
 9136TIP3    H251604   4.689   2.343   8.789  0.1831 -0.3343 -1.2295
 9137TIP3   OH251605   4.018   3.857   2.087  0.3169 -0.1002  0.0070
 9137TIP3    H151606   3.972   3.835   2.006  0.1244  2.1800 -0.5946
 9137TIP3    H251607   4.109   3.832   2.070  0.4160  0.9570 -1.2357
 9138TIP3   OH251608   1.938   3.731   7.327  0.6514  0.3627 -0.0333
 9138TIP3    H151609   2.008   3.666   7.334  0.1556 -0.2064 -0.2905
 9138TIP3    H251610   1.876   3.693   7.266 -0.1417  0.6290  0.5931
 9139TIP3   OH251611   1.731   5.866   2.181 -0.0361  0.9150 -0.2141
 9139TIP3    H151612   1.636   5.860   2.180 -0.1281  1.9027  0.5467
 9139TIP3    H251613   1.749   5.951   2.222  1.1683  0.8248 -0.5161
 9140TIP3   OH251614   6.946   3.364   7.049  0.0145  0.6469  0.0535
 9140TIP3    H151615   7.038   3.368   7.076 -0.3855  1.6094  1.4069
 9140TIP3    H251616   6.946   3.396   6.959  0.7806  2.7831  0.7452
 9141TIP3   OH251617   0.357   5.044   1.597 -0.0287  0.1607  0.0579
 9141TIP3    H151618   0.440   5.003   1.620  0.8298  1.2781 -0.9049
 9141TIP3    H251619   0.377   5.100   1.522 -1.6673  0.4250 -0.2383
 9142TIP3   OH251620   6.278   0.852   6.910 -0.1820 -0.3877 -0.1735
 9142TIP3    H151621   6.313   0.786   6.969  1.9274  0.4840 -0.3620
 9142TIP3    H251622   6.275   0.809   6.824  1.8464 -0.0902 -0.4348
 9143TIP3   OH251623   1.134   7.259   0.764  0.9183  0.2387 -0.0991
 9143TIP3    H151624   1.073   7.235   0.694  1.5216 -0.2723 -0.4574
 9143TIP3    H251625   1.125   7.189   0.828 -1.2227  1.7520  1.4278
 9144TIP3   OH251626   0.623   4.066   1.812 -0.4305  0.2324 -0.2382
 9144TIP3    H151627   0.627   4.147   1.761 -1.2028  0.2861 -0.2285
 9144TIP3    H251628   0.615   4.095   1.903  0.5167  0.1377 -0.1199
 9145TIP3   OH251629   0.241   4.586   0.779  0.2012  0.3432  0.3241
 9145TIP3    H151630   0.219   4.637   0.701 -1.4860  0.6852  0.9741
 9145TIP3    H251631   0.267   4.500   0.746  0.5552  0.8197 -0.6562
 9146TIP3   OH251632   2.810   7.125   9.550 -0.7028 -0.0112  0.4743
 9146TIP3    H151633   2.815   7.220   9.539  1.1953 -0.2044 -0.9265
 9146TIP3    H251634   2.727   7.110   9.594 -1.6606  2.1980 -0.4460
 9147TIP3   OH251635   1.348   2.840   0.733  0.7035  0.2369  0.1306
 9147TIP3    H151636   1.424   2.838   0.791  1.9823  0.5256 -1.4598
 9147TIP3    H251637   1.372   2.784   0.659 -0.3388  0.9040 -0.7543
 9148TIP3   OH251638   4.105   4.266   1.725 -0.5739 -0.0476 -0.1904
 9148TIP3    H151639   4.128   4.243   1.815  0.1830 -0.1674 -0.4068
 9148TIP3    H251640   4.130   4.190   1.674  0.6022  0.6545 -0.7177
 9149TIP3   OH251641   3.718   4.547   0.287  0.3410  0.3064  0.1330
 9149TIP3    H151642   3.631   4.514   0.266  0.6356 -2.2970  2.3881
 9149TIP3    H251643   3.740   4.506   0.370  3.9322  0.4994 -0.5457
 9150TIP3   OH251644   6.980   2.536   2.386 -0.6823 -0.3438 -0.2438
 9150TIP3    H151645   6.971   2.630   2.402 -0.8785  0.1910 -3.0308
 9150TIP3    H251646   7.003   2.499   2.471 -2.4086  1.9504  1.3420
 9151TIP3   OH251647   4.943   5.720   1.184  0.1857 -0.6401  0.4495
 9151TIP3    H151648   5.018   5.725   1.242  0.5648 -0.1438 -0.0787
 9151TIP3    H251649   4.980   5.701   1.098 -0.1393  1.2364 -0.1370
 9152TIP3   OH251650   2.716   0.529   2.282 -0.2629 -0.2032  0.2763
 9152TIP3    H151651   2.646   0.554   2.342  0.4720  1.0634  0.6388
 9152TIP3    H251652   2.768   0.608   2.271  0.6418 -0.8958 -0.6434
 9153TIP3   OH251653   1.656   4.229   8.906 -0.2075 -0.3913  0.4243
 9153TIP3    H151654   1.631   4.319   8.887  0.1963 -0.0359  1.4635
 9153TIP3    H251655   1.715   4.204   8.835 -0.1582  0.2405  0.2408
 9154TIP3   OH251656   6.863   0.046   9.536  0.0797  0.0835 -0.3870
 9154TIP3    H151657   6.776   0.041   9.577  0.9453 -1.3182  1.4362
 9154TIP3    H251658   6.914   0.102   9.595  1.0852 -1.1499 -0.0511
 9155TIP3   OH251659   7.225   2.793   3.236  0.2113 -0.0809 -0.0855
 9155TIP3    H151660   7.216   2.882   3.201 -0.5777 -0.0504  0.1866
 9155TIP3    H251661   7.307   2.795   3.284  0.7482  0.1979 -0.9827
 9156TIP3   OH251662   7.209   1.070   1.299  0.1775  0.7420 -0.1272
 9156TIP3    H151663   7.167   1.127   1.234 -1.6317  0.0560  0.3520
 9156TIP3    H251664   7.145   1.001   1.314  1.5281 -0.3802  0.6989
 9157TIP3   OH251665   4.424   2.601   9.078  0.1157  0.0416  0.3665
 9157TIP3    H151666   4.434   2.686   9.035 -2.3565 -0.5119 -1.4678
 9157TIP3    H251667   4.511   2.561   9.072 -0.2027 -0.5400 -5.5191
 9158TIP3   OH251668   5.854   5.185   9.080  0.2777  0.2498  0.0349
 9158TIP3    H151669   5.809   5.167   9.162 -1.4393 -0.1579 -0.9451
 9158TIP3    H251670   5.804   5.256   9.040  1.4380  0.8463 -0.4137
 9159TIP3   OH251671   0.144   6.680   8.378  0.0390  0.2347 -0.0826
 9159TIP3    H151672   0.199   6.606   8.404 -1.4899 -1.0037 -0.1785
 9159TIP3    H251673   0.171   6.700   8.288  1.5327  0.8560  0.4805
 9160TIP3   OH251674   6.121   4.188   1.287  0.2615 -0.0207  0.2417
 9160TIP3    H151675   6.142   4.273   1.249 -0.6631  0.2380  0.2884
 9160TIP3    H251676   6.077   4.140   1.217  0.3769 -0.2921  0.3535
 9161TIP3   OH251677   3.971   0.685   1.486 -0.3691 -0.4999 -0.1274
 9161TIP3    H151678   3.970   0.593   1.458 -1.4226 -0.6435  0.3411
 9161TIP3    H251679   3.884   0.717   1.465 -1.3960 -0.7036  3.2321
 9162TIP3   OH251680   2.115   4.173   9.161 -0.2778  0.4306 -0.1794
 9162TIP3    H151681   2.066   4.225   9.098 -1.8454 -0.5748  0.1474
 9162TIP3    H251682   2.143   4.236   9.228  0.1876  1.2647 -1.1366
 9163TIP3   OH251683   2.634   5.722   9.411 -0.4233  0.6760  0.3402
 9163TIP3    H151684   2.588   5.802   9.385 -1.1001  0.6685  1.3978
 9163TIP3    H251685   2.726   5.745   9.409 -0.6170  1.5454  0.7788
 9164TIP3   OH251686   2.541   5.782   2.966 -0.0730 -0.0768 -0.5785
 9164TIP3    H151687   2.576   5.835   3.037 -1.2988 -1.5726  1.2465
 9164TIP3    H251688   2.563   5.692   2.989 -0.4591 -0.6024 -2.1252
 9165TIP3   OH251689   0.669   6.342   2.670  0.1842 -0.0247  0.6150
 9165TIP3    H151690   0.590   6.375   2.714  0.1859  0.1018  0.5210
 9165TIP3    H251691   0.723   6.419   2.656 -0.4390  0.1579 -0.9122
 9166TIP3   OH251692   6.105   0.304   9.008 -0.0047  0.2235 -0.9117
 9166TIP3    H151693   6.199   0.291   8.997  0.2006 -0.6917  1.3062
 9166TIP3    H251694   6.091   0.293   9.102 -2.0656  2.2322 -0.9140
 9167TIP3   OH251695   7.223   3.904   8.203 -0.6199 -0.4014  0.2259
 9167TIP3    H151696   7.181   3.932   8.122 -1.2658  1.7236  1.2193
 9167TIP3    H251697   7.203   3.973   8.266  0.6038 -1.5411  1.9767
 9168TIP3   OH251698   4.851   0.643   2.124  0.3642  0.0040  0.0655
 9168TIP3    H151699   4.798   0.687   2.190 -0.3407 -2.5942  1.3980
 9168TIP3    H251700   4.941   0.648   2.157  0.2798  0.3705  0.2401
 9169TIP3   OH251701   1.669   5.732   0.640  0.2119  0.3274 -0.3745
 9169TIP3    H151702   1.737   5.688   0.691 -0.8729 -1.2403 -0.1725
 9169TIP3    H251703   1.705   5.740   0.552  1.0499  0.4821 -0.0183
 9170TIP3   OH251704   0.053   2.173   0.800  0.1247 -0.4417 -0.0494
 9170TIP3    H151705   0.025   2.136   0.884 -1.4715 -0.6005 -0.6167
 9170TIP3    H251706   0.102   2.252   0.824 -1.8285  0.5222  1.0413
 9171TIP3   OH251707   0.863   4.934   1.772 -0.4376  0.0375 -0.4538
 9171TIP3    H151708   0.784   4.907   1.819 -0.3204  0.7774  0.1783
 9171TIP3    H251709   0.830   4.974   1.692 -0.8132  1.9680  0.6112
 9172TIP3   OH251710   2.751   1.100   0.996 -0.0866  0.7832  0.3143
 9172TIP3    H151711   2.703   1.127   1.074  0.5627 -0.5509  1.1969
 9172TIP3    H251712   2.818   1.167   0.985 -0.1607  0.9621  0.9206
 9173TIP3   OH251713   4.581   5.210   6.679 -0.1853 -0.3642  0.8086
 9173TIP3    H151714   4.542   5.236   6.596  2.7251  1.1437 -0.2430
 9173TIP3    H251715   4.507   5.184   6.734 -2.4008  0.5784 -1.5365
 9174TIP3   OH251716   5.273   6.061   6.396 -0.6041 -0.4721  0.7390
 9174TIP3    H151717   5.332   5.996   6.357 -0.4181  0.4437 -0.5695
 9174TIP3    H251718   5.326   6.103   6.464  0.0574 -0.1116  0.0190
 9175TIP3   OH251719   7.079   2.190   1.457 -0.2108  0.3273  0.7229
 9175TIP3    H151720   7.038   2.202   1.542  0.4686 -0.4584  1.1724
 9175TIP3    H251721   7.095   2.096   1.450  1.2091  0.5588  0.4389
 9176TIP3   OH251722   5.343   1.612   1.134  0.1089 -0.2118 -0.1491
 9176TIP3    H151723   5.428   1.594   1.094  1.0132 -0.8304  1.9563
 9176TIP3    H251724   5.345   1.706   1.153 -0.2150  0.0290 -1.2187
 9177TIP3   OH251725   2.940   4.442   8.769 -0.3223  0.0275 -0.0168
 9177TIP3    H151726   3.030   4.410   8.773 -0.1031  0.7520  1.4696
 9177TIP3    H251727   2.890   4.378   8.818 -0.4511  0.1435  0.0032
 9178TIP3   OH251728   0.925   0.022   2.203 -0.1176 -0.1622  0.5238
 9178TIP3    H151729   0.861   0.093   2.191  1.2508  1.3821  1.8584
 9178TIP3    H251730   0.976   0.022   2.122  0.1426  0.7154  0.6683
 9179TIP3   OH251731   2.578   5.470   9.999  0.4295 -0.1463 -0.1937
 9179TIP3    H151732   2.575   5.377  10.024  1.6346 -0.6855 -1.8662
 9179TIP3    H251733   2.633   5.471   9.921  2.4777  2.2761  1.1467
 9180TIP3   OH251734   6.382   3.576   7.073 -0.2139 -0.3348  0.0284
 9180TIP3    H151735   6.307   3.579   7.014 -0.5079  1.1892  0.4202
 9180TIP3    H251736   6.343   3.570   7.161  0.1975 -1.7148  0.1407
 9181TIP3   OH251737   3.283   1.166   0.479 -0.0610 -0.2096 -0.1733
 9181TIP3    H151738   3.218   1.099   0.455  0.6360 -1.0069  0.0945
 9181TIP3    H251739   3.342   1.120   0.539 -0.7675  1.2297  1.7147
 9182TIP3   OH251740   5.371   2.460   8.443  0.2087  0.2697  0.0026
 9182TIP3    H151741   5.301   2.518   8.474 -1.6070 -1.5177 -0.4918
 9182TIP3    H251742   5.384   2.484   8.352  0.5382  0.8598  0.1982
 9183TIP3   OH251743   1.440   5.695   8.912 -0.1431 -0.4665 -0.1641
 9183TIP3    H151744   1.367   5.723   8.857  1.6598  0.1443 -2.3958
 9183TIP3    H251745   1.402   5.629   8.970 -3.1230  2.0407  0.9671
 9184TIP3   OH251746   0.729   0.229   2.179 -0.1541 -0.2149  0.3194
 9184TIP3    H151747   0.722   0.284   2.101  0.1595 -0.4773  0.1003
 9184TIP3    H251748   0.643   0.234   2.220 -0.6292 -0.8336 -0.5685
 9185TIP3   OH251749   5.041   6.939   9.153 -0.5031  0.5414 -0.2121
 9185TIP3    H151750   5.014   6.847   9.160 -1.0881  0.6911 -0.5080
 9185TIP3    H251751   5.028   6.961   9.061  0.5222  0.6563 -0.3423
 9186TIP3   OH251752   6.657   5.238   9.308 -0.3504 -0.8289  0.1201
 9186TIP3    H151753   6.705   5.208   9.231 -0.7655 -1.0407 -0.0594
 9186TIP3    H251754   6.696   5.189   9.381  1.0807  0.4800  0.2841
 9187TIP3   OH251755   7.067   0.083   7.401 -0.5280  0.0237  0.0112
 9187TIP3    H151756   7.146   0.029   7.391 -1.5957 -1.8516  1.1283
 9187TIP3    H251757   7.057   0.093   7.495 -1.6301  0.2256 -0.1154
 9188TIP3   OH251758   1.545   6.961   1.238 -0.2193 -0.0630 -0.4732
 9188TIP3    H151759   1.570   6.905   1.311  1.7151 -1.1079 -1.8482
 9188TIP3    H251760   1.572   7.049   1.263  1.1754 -0.5394 -0.2134
 9189TIP3   OH251761   4.286   2.499   8.266 -0.0212 -0.2073 -0.1024
 9189TIP3    H151762   4.265   2.586   8.300  0.0615 -1.0913  2.4722
 9189TIP3    H251763   4.215   2.478   8.206 -0.8368  1.0415  0.3854
 9190TIP3   OH251764   2.026   1.382   7.342  0.3073  0.6033  0.4657
 9190TIP3    H151765   2.008   1.373   7.248 -0.5557 -0.1543  0.6911
 9190TIP3    H251766   2.024   1.293   7.375  0.3985  0.8887  1.2522
 9191TIP3   OH251767   5.955   5.098   2.069  0.4497  0.1289  0.5986
 9191TIP3    H151768   5.940   5.075   2.161 -0.9396  0.2483  0.4324
 9191TIP3    H251769   5.867   5.113   2.034  0.8667 -1.0369 -1.0593
 9192TIP3   OH251770   5.070   0.588   9.180  0.5095  0.0120  0.0669
 9192TIP3    H151771   5.104   0.666   9.224  1.7089  0.4938 -1.6294
 9192TIP3    H251772   5.141   0.524   9.188  0.0628 -0.4636  0.2767
 9193TIP3   OH251773   2.541   5.057   8.164  0.1391 -0.2161 -0.8055
 9193TIP3    H151774   2.560   4.977   8.213 -1.0028 -0.5712 -0.9143
 9193TIP3    H251775   2.509   5.026   8.080 -1.8936  0.3092 -0.2625
 9194TIP3   OH251776   0.756   6.802   8.485  0.1592  0.1885  0.4056
 9194TIP3    H151777   0.741   6.890   8.451  1.7041  0.8363  1.3227
 9194TIP3    H251778   0.828   6.768   8.432 -0.2278 -0.4380  0.2604
 9195TIP3   OH251779   0.133   3.938   9.324 -0.0658  0.4555 -0.7251
 9195TIP3    H151780   0.153   4.030   9.305 -0.2176  0.7353  0.4196
 9195TIP3    H251781   0.040   3.938   9.346 -0.1680 -0.0485 -1.1374
 9196TIP3   OH251782   0.900   5.198   1.134 -0.2412  0.4382  0.5719
 9196TIP3    H151783   0.813   5.226   1.106 -0.0585  0.2576 -0.2066
 9196TIP3    H251784   0.944   5.173   1.053  0.9364  1.6311  0.8171
 9197TIP3   OH251785   2.745   1.000   8.058  0.4625 -0.0255  0.4539
 9197TIP3    H151786   2.821   0.999   7.999 -0.0336  0.4942 -0.2114
 9197TIP3    H251787   2.686   0.935   8.022  1.0555 -1.2904  1.6449
 9198TIP3   OH251788   7.069   2.094   0.674  0.2580 -0.1928  0.2666
 9198TIP3    H151789   7.130   2.168   0.668 -0.6642  0.5802  0.2033
 9198TIP3    H251790   7.076   2.064   0.765 -1.4294  1.8119  1.1188
 9199TIP3   OH251791   2.841   5.072   0.318  0.0120  0.5784 -0.4024
 9199TIP3    H151792   2.920   5.081   0.265 -0.1483 -0.4292 -0.8237
 9199TIP3    H251793   2.866   5.013   0.389 -0.0541  1.1386  0.0936
 9200TIP3   OH251794   6.164   4.992   3.007 -0.6438  0.0699  0.0881
 9200TIP3    H151795   6.247   5.014   3.050 -1.3143 -0.7597  1.8535
 9200TIP3    H251796   6.114   4.943   3.072 -1.7682 -1.1346 -1.5934
 9201TIP3   OH251797   1.986   6.197   1.515  0.4384  0.1169 -1.0098
 9201TIP3    H151798   1.996   6.108   1.548  0.0333  0.6637  0.6773
 9201TIP3    H251799   2.041   6.200   1.436  0.8212 -1.4706 -0.8292
 9202TIP3   OH251800   5.886   3.439   0.234  1.1664  0.3255  0.1189
 9202TIP3    H151801   5.953   3.456   0.300  1.5815 -1.0965  0.1015
 9202TIP3    H251802   5.900   3.347   0.209 -0.6515  0.0513 -0.0277
 9203TIP3   OH251803   3.990   7.233   0.164  0.1954 -0.1567 -0.4695
 9203TIP3    H151804   3.953   7.197   0.083 -0.9950  1.2160 -0.5784
 9203TIP3    H251805   3.963   7.171   0.232 -0.4040 -0.3574 -0.8788
 9204TIP3   OH251806   6.868   4.109   8.339 -0.3576 -0.1596  0.0569
 9204TIP3    H151807   6.920   4.178   8.297 -2.3976  1.4709  0.0681
 9204TIP3    H251808   6.930   4.037   8.350  1.1584  0.6048 -2.5430
 9205TIP3   OH251809   4.810   3.697   8.395  0.4516  0.3552  0.3392
 9205TIP3    H151810   4.863   3.760   8.445  1.3007  0.4445 -0.6325
 9205TIP3    H251811   4.817   3.726   8.304  0.8025 -1.0898 -0.1282
 9206TIP3   OH251812   7.166   5.066   3.382  0.1823  0.9871 -0.2388
 9206TIP3    H151813   7.260   5.046   3.391 -0.0451  0.0775  0.2274
 9206TIP3    H251814   7.124   4.981   3.380 -0.5877  1.3677 -1.1993
 9207TIP3   OH251815   4.703   4.325   0.754 -0.2166 -0.5510 -0.2101
 9207TIP3    H151816   4.657   4.272   0.819  0.3747 -0.8087  0.0049
 9207TIP3    H251817   4.790   4.338   0.792 -0.0882 -0.1304 -0.6455
 9208TIP3   OH251818   6.682   6.307   0.351 -0.0771 -0.5199 -0.3975
 9208TIP3    H151819   6.612   6.246   0.374 -0.3601 -0.0077  0.1418
 9208TIP3    H251820   6.637   6.389   0.329  0.2988 -0.4896 -1.0784
 9209TIP3   OH251821   5.660   4.087   7.415  0.1164 -0.1001 -0.6616
 9209TIP3    H151822   5.608   4.149   7.466 -0.7917 -0.7002 -0.8400
 9209TIP3    H251823   5.622   4.090   7.327  0.6962 -0.1980 -0.9242
 9210TIP3   OH251824   1.053   3.172   8.901 -0.2098  0.2068 -0.5029
 9210TIP3    H151825   1.092   3.217   8.826 -2.1327  1.1556 -0.9948
 9210TIP3    H251826   0.992   3.109   8.862 -0.9311  0.4214  0.2363
 9211TIP3   OH251827   6.769   2.361   2.383  0.5571  0.0808 -0.4613
 9211TIP3    H151828   6.705   2.365   2.311  0.3108 -0.7603 -0.2985
 9211TIP3    H251829   6.829   2.434   2.366  1.4044 -0.9868 -2.3735
 9212TIP3   OH251830   0.748   4.023   0.818  0.3448  0.0388  0.1802
 9212TIP3    H151831   0.709   3.940   0.792 -3.5813  1.5142  0.7312
 9212TIP3    H251832   0.736   4.080   0.741 -0.6426  1.1399  1.1157
 9213TIP3   OH251833   7.214   2.269   7.785  0.2287  0.1577  0.0434
 9213TIP3    H151834   7.127   2.249   7.748 -0.4280  3.4812 -0.5431
 9213TIP3    H251835   7.276   2.235   7.720 -0.4504 -3.3880  1.0496
 9214TIP3   OH251836   2.376   5.145   0.178  0.5387  0.0726  0.1336
 9214TIP3    H151837   2.471   5.158   0.177  0.3473  1.6434 -1.1632
 9214TIP3    H251838   2.362   5.069   0.121  0.9520  0.3116 -0.2906
 9215TIP3   OH251839   0.854   5.860   8.084  0.1485  0.0612 -0.5388
 9215TIP3    H151840   0.869   5.794   8.151  3.6435 -1.5579 -2.6659
 9215TIP3    H251841   0.769   5.836   8.046 -0.3098 -1.0104  1.0658
 9216TIP3   OH251842   6.721   4.713   1.798 -0.2323 -0.2152 -0.5238
 9216TIP3    H151843   6.774   4.642   1.762  0.1281 -0.2968  0.1552
 9216TIP3    H251844   6.676   4.750   1.722  0.6992 -0.2250 -1.0924
 9217TIP3   OH251845   5.902   3.226   2.461  0.5571  0.0079 -0.3752
 9217TIP3    H151846   5.862   3.297   2.511 -1.4021 -1.0677 -0.3242
 9217TIP3    H251847   5.876   3.241   2.371  0.2802 -0.5164 -0.3913
 9218TIP3   OH251848   2.391   3.330   1.566 -0.5547 -0.1696  0.1401
 9218TIP3    H151849   2.389   3.425   1.581 -0.3429 -0.1951  0.3287
 9218TIP3    H251850   2.458   3.318   1.499  2.1750 -0.5291  2.7215
 9219TIP3   OH251851   1.275   5.246   9.848 -0.6864 -0.4203 -0.5466
 9219TIP3    H151852   1.368   5.232   9.863 -0.8684 -1.5946 -0.3792
 9219TIP3    H251853   1.248   5.309   9.915  0.0012 -0.0128 -0.6543
 9220TIP3   OH251854   6.402   5.044   3.126  0.4290  0.1156  0.0627
 9220TIP3    H151855   6.418   5.134   3.155  0.9694 -0.2441  0.9157
 9220TIP3    H251856   6.475   5.025   3.067  0.0100  0.4172 -0.5663
 9221TIP3   OH251857   1.257   3.803   3.001 -0.3779  0.1985  0.3179
 9221TIP3    H151858   1.327   3.743   3.027 -1.3579 -1.3251 -0.3630
 9221TIP3    H251859   1.253   3.868   3.071  0.6589 -0.6006  1.1579
 9222TIP3   OH251860   1.832   6.107   6.787 -0.8854 -0.1982  0.0772
 9222TIP3    H151861   1.833   6.086   6.881  2.0469  0.5203  0.3106
 9222TIP3    H251862   1.841   6.022   6.744  1.6499 -0.3076  0.6674
 9223TIP3   OH251863   4.370   2.346   7.737 -0.3995  0.1635 -0.6503
 9223TIP3    H151864   4.282   2.350   7.699 -1.3608  0.3962  1.4589
 9223TIP3    H251865   4.373   2.261   7.781  0.4156  0.1911 -0.6366
 9224TIP3   OH251866   1.037   0.260   9.868 -0.2518  0.0506 -0.3543
 9224TIP3    H151867   1.116   0.219   9.903 -1.1549 -0.2092  1.4779
 9224TIP3    H251868   1.021   0.334   9.926 -1.1171  0.3605 -0.9737
 9225TIP3   OH251869   5.639   5.222   0.467 -0.2716  0.0292  0.1592
 9225TIP3    H151870   5.697   5.151   0.440 -0.8682 -0.5580  0.3916
 9225TIP3    H251871   5.552   5.195   0.436 -0.6881  0.1238  1.2195
 9226TIP3   OH251872   0.659   1.997   0.252  0.4524  0.0039 -0.0615
 9226TIP3    H151873   0.651   1.997   0.157  3.2303 -0.2847 -0.3887
 9226TIP3    H251874   0.648   1.905   0.278  0.1954  0.0079 -0.1569
 9227TIP3   OH251875   6.637   3.891   8.257 -0.1377 -0.2391 -0.2322
 9227TIP3    H151876   6.670   3.977   8.231 -0.5667 -0.1882 -0.6274
 9227TIP3    H251877   6.703   3.829   8.225  1.2741  0.0390  1.9050
 9228TIP3   OH251878   0.051   0.656   0.153 -0.3310  0.1486  0.0829
 9228TIP3    H151879   0.116   0.592   0.124 -1.8641 -0.1063 -3.4022
 9228TIP3    H251880  -0.011   0.605   0.205  0.1237 -0.4972  0.0024
 9229TIP3   OH251881   4.026   6.219   6.659 -0.2655  0.2854 -0.1466
 9229TIP3    H151882   4.067   6.208   6.573  0.5960 -2.6538  0.5142
 9229TIP3    H251883   4.099   6.225   6.720 -0.7276 -1.8448  0.7264
 9230TIP3   OH251884   0.495   0.471   0.210  0.0918 -0.0642 -0.3157
 9230TIP3    H151885   0.433   0.427   0.151 -1.3102  0.4709  0.6946
 9230TIP3    H251886   0.515   0.554   0.166  0.1531 -0.2755 -0.6867
 9231TIP3   OH251887   5.225   4.640   2.221 -0.5729 -0.7043 -0.3444
 9231TIP3    H151888   5.259   4.688   2.297 -0.2277 -0.0082 -0.9340
 9231TIP3    H251889   5.215   4.550   2.253  1.9364 -0.9885 -0.1663
 9232TIP3   OH251890   4.080   4.134   9.907  0.2593  0.3137  0.1886
 9232TIP3    H151891   4.169   4.155   9.880 -0.7201  2.6133 -1.6071
 9232TIP3    H251892   4.085   4.044   9.938  2.9202 -0.1116 -1.1960
 9233TIP3   OH251893   2.576   5.670   8.350 -0.0360  0.3629  0.2721
 9233TIP3    H151894   2.512   5.632   8.410  0.5070  0.5829  1.0136
 9233TIP3    H251895   2.539   5.755   8.325 -0.3049  0.2314  0.2154
 9234TIP3   OH251896   0.702   4.205   2.317 -0.1706 -0.1812 -0.2356
 9234TIP3    H151897   0.744   4.289   2.298  2.2434 -1.2153  0.1939
 9234TIP3    H251898   0.645   4.224   2.392  1.7746  0.7405  1.1038
 9235TIP3   OH251899   3.969   2.579   6.843  1.0925  0.2315  0.2197
 9235TIP3    H151900   3.989   2.608   6.932  0.9438  1.6805 -0.1993
 9235TIP3    H251901   4.048   2.598   6.793 -0.1314  3.3013 -0.8164
 9236TIP3   OH251902   5.215   2.383   1.079  0.4248 -0.2825 -0.5726
 9236TIP3    H151903   5.290   2.389   1.019  0.0467 -3.4533 -1.5121
 9236TIP3    H251904   5.159   2.316   1.041 -3.2096  2.2083 -0.1242
 9237TIP3   OH251905   6.441   5.946   1.425 -0.5399  0.0856 -0.0257
 9237TIP3    H151906   6.485   6.008   1.367  0.4953 -1.6030 -1.1535
 9237TIP3    H251907   6.428   5.868   1.371 -1.4373 -0.8232  1.4347
 9238TIP3   OH251908   6.459   6.544   1.600  0.3901 -0.0851 -0.5253
 9238TIP3    H151909   6.478   6.460   1.558  0.8133 -0.6786  0.7766
 9238TIP3    H251910   6.407   6.521   1.677 -0.3246  0.9532 -0.6756
 9239TIP3   OH251911   2.186   5.457   0.671 -0.0906 -0.2451 -0.4775
 9239TIP3    H151912   2.147   5.457   0.758  1.0722 -2.4477  0.1380
 9239TIP3    H251913   2.277   5.429   0.686  0.5652  0.8022 -2.2505
 9240TIP3   OH251914   0.725   3.287   8.861 -0.4289  0.3953 -0.2931
 9240TIP3    H151915   0.800   3.336   8.895 -0.8996  0.8393  0.1264
 9240TIP3    H251916   0.659   3.293   8.930  0.4724 -3.3366  1.1268
 9241TIP3   OH251917   4.663   3.715   2.643  0.2313  0.3627 -0.0502
 9241TIP3    H151918   4.745   3.751   2.675  0.1405  0.1162  0.4638
 9241TIP3    H251919   4.662   3.624   2.673 -0.3117  0.4152  0.1141
 9242TIP3   OH251920   7.177   6.564   1.999 -0.1753 -0.0789  0.2696
 9242TIP3    H151921   7.184   6.652   2.034  0.2261 -0.6774  1.7485
 9242TIP3    H251922   7.133   6.513   2.068  1.5717 -1.5219  0.3833
 9243TIP3   OH251923   0.343   4.305   8.412 -0.2051  0.0095  0.4834
 9243TIP3    H151924   0.410   4.368   8.384 -1.3134  0.8017 -0.5438
 9243TIP3    H251925   0.379   4.264   8.490  0.2824  2.4508  1.6515
 9244TIP3   OH251926   6.316   5.832   8.267  0.6219  0.0900  0.1496
 9244TIP3    H151927   6.367   5.778   8.207  0.8253 -0.9985  1.2677
 9244TIP3    H251928   6.325   5.921   8.233  0.6119 -0.5081 -1.5075
 9245TIP3   OH251929   6.778   3.764   0.214  0.2433 -0.2701 -0.2033
 9245TIP3    H151930   6.696   3.811   0.200  0.6041 -0.0490 -1.7999
 9245TIP3    H251931   6.840   3.832   0.240  0.0637 -0.3531  0.4620
 9246TIP3   OH251932   2.609   3.450   9.965 -0.2371  0.1072  0.4339
 9246TIP3    H151933   2.617   3.527  10.022  0.9729 -0.1575  0.6569
 9246TIP3    H251934   2.626   3.484   9.877  1.8823 -0.1136  0.6955
 9247TIP3   OH251935   0.357   1.532   0.357  0.2168 -0.1596 -0.2402
 9247TIP3    H151936   0.331   1.589   0.284  0.2001  0.7356  0.4491
 9247TIP3    H251937   0.278   1.527   0.412  0.5942  0.1552  0.3352
 9248TIP3   OH251938   2.074   7.212   9.280  0.2172  0.4903  0.1675
 9248TIP3    H151939   2.077   7.210   9.376  0.0384  0.1668  0.1674
 9248TIP3    H251940   1.981   7.212   9.259  0.2491  1.0682  0.0002
 9249TIP3   OH251941   0.208   0.264   9.688 -0.0049 -0.3003 -0.0114
 9249TIP3    H151942   0.288   0.303   9.722 -0.4355  0.6989 -0.1036
 9249TIP3    H251943   0.144   0.335   9.688 -0.7607 -0.9546 -0.3891
 9250TIP3   OH251944   3.582   7.047   7.246 -0.5926  0.3091 -0.0641
 9250TIP3    H151945   3.591   6.960   7.285  1.8198 -0.4683 -2.1244
 9250TIP3    H251946   3.656   7.055   7.186 -1.1055  3.5554 -0.4590
 9251TIP3   OH251947   0.365   3.468   0.591  0.4163  0.1199 -0.3619
 9251TIP3    H151948   0.400   3.425   0.513 -0.4123  0.0056 -0.6822
 9251TIP3    H251949   0.390   3.560   0.582 -0.7218  0.3459 -1.3827
 9252TIP3   OH251950   6.504   2.324   0.515 -0.3300  0.5333  0.3716
 9252TIP3    H151951   6.552   2.282   0.444 -0.5255  0.7033  0.1362
 9252TIP3    H251952   6.544   2.289   0.595  0.3707  0.8882  0.1840
 9253TIP3   OH251953   1.436   3.768   2.491 -0.3558 -0.1526 -0.2132
 9253TIP3    H151954   1.435   3.673   2.501  1.2457 -0.1530  0.2206
 9253TIP3    H251955   1.390   3.801   2.568  1.4436 -0.5307  1.1051
 9254TIP3   OH251956   6.429   6.741   8.860  0.1679 -0.3756  0.0326
 9254TIP3    H151957   6.419   6.655   8.820 -0.2446  0.5656 -1.9691
 9254TIP3    H251958   6.516   6.771   8.832  0.2084 -0.0283  0.5122
 9255TIP3   OH251959   4.473   6.239   9.509 -0.2476 -0.0999  0.1794
 9255TIP3    H151960   4.446   6.225   9.419  1.1208 -0.9304 -0.1323
 9255TIP3    H251961   4.466   6.333   9.522 -1.7747 -0.1130 -0.3337
 9256TIP3   OH251962   2.963   3.089   7.630 -0.4244  0.4723  0.0178
 9256TIP3    H151963   3.015   3.072   7.551 -0.2582  1.5254 -0.1103
 9256TIP3    H251964   3.027   3.124   7.692 -0.8085  0.8853  0.1772
 9257TIP3   OH251965   6.887   3.744   9.686 -0.1454  1.0394  0.4143
 9257TIP3    H151966   6.896   3.668   9.743  0.8752  0.2653 -0.7200
 9257TIP3    H251967   6.925   3.816   9.735 -0.7169  0.7372  1.3259
 9258TIP3   OH251968   4.607   1.485   7.735  0.2539 -0.2034 -0.0824
 9258TIP3    H151969   4.542   1.416   7.751  0.4173 -0.0233  1.5176
 9258TIP3    H251970   4.555   1.564   7.722  0.0899 -0.4877 -1.3131
 9259TIP3   OH251971   4.890   3.791   0.399  0.0041 -0.4224 -0.3225
 9259TIP3    H151972   4.898   3.836   0.483 -0.9497  1.9962 -1.4437
 9259TIP3    H251973   4.814   3.831   0.357 -0.5510 -2.7252 -1.6954
 9260TIP3   OH251974   4.072   3.465   9.044 -0.6534  0.1502  0.2296
 9260TIP3    H151975   4.140   3.398   9.042  1.1076  1.8222  0.4340
 9260TIP3    H251976   4.116   3.542   9.080 -2.1245  1.8948 -1.4802
 9261TIP3   OH251977   5.517   1.131   1.909 -0.1209 -0.0529 -0.2707
 9261TIP3    H151978   5.431   1.097   1.885 -0.0795  1.1828 -2.3071
 9261TIP3    H251979   5.501   1.219   1.941  0.3771  0.1990 -0.6904
 9262TIP3   OH251980   1.960   1.298   7.844  0.0968  0.1549 -0.1667
 9262TIP3    H151981   2.000   1.218   7.877 -0.7495  0.0374  0.5967
 9262TIP3    H251982   1.888   1.316   7.904 -0.3582  0.9297 -0.9192
 9263TIP3   OH251983   5.877   1.022   8.784  0.0421  0.6762 -0.2309
 9263TIP3    H151984   5.788   1.048   8.760  0.5508  0.9854 -2.0062
 9263TIP3    H251985   5.887   0.935   8.746  0.2726  0.3569  0.5624
 9264TIP3   OH251986   4.277   1.394   1.866 -0.5343 -0.6292 -0.7591
 9264TIP3    H151987   4.202   1.452   1.876  1.0967  1.3692  0.5625
 9264TIP3    H251988   4.330   1.434   1.797 -0.5379 -1.9173 -1.5511
 9265TIP3   OH251989   0.994   1.538   2.683 -0.2742 -0.2344 -0.2760
 9265TIP3    H151990   1.068   1.480   2.702  0.6416  1.0247  0.2023
 9265TIP3    H251991   0.999   1.605   2.752 -3.7288 -1.7535  1.6805
 9266TIP3   OH251992   1.406   3.621   1.369 -0.0181  0.1218 -0.1098
 9266TIP3    H151993   1.425   3.552   1.306 -2.0351 -0.2830 -0.3543
 9266TIP3    H251994   1.359   3.576   1.440 -1.7621  1.2474 -0.4860
 9267TIP3   OH251995   4.361   4.265   9.407 -0.0797 -0.2139 -0.0059
 9267TIP3    H151996   4.290   4.328   9.417  0.9883  0.9176  0.9067
 9267TIP3    H251997   4.348   4.226   9.321 -2.2342 -0.6230  0.4630
 9268TIP3   OH251998   6.697   2.410   7.631 -0.0488 -0.2110 -0.3214
 9268TIP3    H151999   6.610   2.449   7.621 -0.2664 -0.3868  0.7848
 9268TIP3    H252000   6.722   2.385   7.542 -1.4641 -0.8538 -0.5718
 9269TIP3   OH252001   3.103   1.951   7.112 -0.0714 -0.5799 -0.0070
 9269TIP3    H152002   3.103   1.859   7.085 -0.1238 -0.2237 -1.2729
 9269TIP3    H252003   3.161   1.953   7.188 -1.0152 -1.8623  0.8052
 9270TIP3   OH252004   5.113   1.663   2.403 -0.4008 -0.2936 -0.0092
 9270TIP3    H152005   5.179   1.674   2.335 -0.4493  1.2061  0.1689
 9270TIP3    H252006   5.073   1.578   2.383  1.2139 -1.0000 -0.4168
 9271TIP3   OH252007   2.069   4.450   9.474 -0.3427  0.1881 -0.3915
 9271TIP3    H152008   2.076   4.441   9.569  0.2091 -1.3113 -0.5531
 9271TIP3    H252009   1.979   4.425   9.454 -1.4315  3.4119 -0.0033
 9272TIP3   OH252010   5.892   3.998   7.260 -0.4814  0.2489  0.1755
 9272TIP3    H152011   5.855   4.071   7.310 -0.6254 -0.6835  1.4940
 9272TIP3    H252012   5.977   4.030   7.229  0.0498  0.5787  1.8509
 9273TIP3   OH252013   1.901   0.285   1.012 -0.5090  0.0161  0.1411
 9273TIP3    H152014   1.834   0.333   0.963 -0.4726  0.5085  0.5604
 9273TIP3    H252015   1.945   0.353   1.064  0.2801 -0.3076 -0.0903
 9274TIP3   OH252016   6.711   2.904   8.206 -0.1011  0.6243  0.1437
 9274TIP3    H152017   6.658   2.829   8.181  1.3334  0.0330 -1.3203
 9274TIP3    H252018   6.776   2.869   8.267 -0.0473  0.8965  0.2480
 9275TIP3   OH252019   2.475   4.450   2.359  0.2224 -0.3199 -0.4275
 9275TIP3    H152020   2.433   4.499   2.430 -0.3050  1.0766 -1.6515
 9275TIP3    H252021   2.458   4.358   2.381 -0.7707  0.1054  0.7441
 9276TIP3   OH252022   3.602   6.517   2.975 -0.3295 -0.4739 -0.3451
 9276TIP3    H152023   3.519   6.471   2.978  0.7643 -2.5319 -0.1682
 9276TIP3    H252024   3.635   6.515   3.065 -1.0582  2.3741  0.1071
 9277TIP3   OH252025   0.013   4.658   8.606 -0.0380  0.0800  0.6881
 9277TIP3    H152026  -0.020   4.572   8.581  0.1547  0.3652 -0.6157
 9277TIP3    H252027   0.071   4.684   8.534 -1.9362  2.3411 -0.1671
 9278TIP3   OH252028   1.109   3.733   2.547  0.4446  0.5991 -0.2357
 9278TIP3    H152029   1.027   3.688   2.525  0.5667  0.8800 -1.3135
 9278TIP3    H252030   1.094   3.824   2.522  1.0207  0.6930 -0.2451
 9279TIP3   OH252031   2.269   2.416   0.808 -0.3220 -0.0741  0.3357
 9279TIP3    H152032   2.259   2.490   0.748 -0.5066  0.0994  0.5758
 9279TIP3    H252033   2.360   2.389   0.798 -0.1121  0.5123  0.6149
 9280TIP3   OH252034   3.747   0.263   0.149  0.5442 -0.0313 -0.0431
 9280TIP3    H152035   3.742   0.278   0.244 -0.5940  0.7044 -0.2120
 9280TIP3    H252036   3.705   0.178   0.136  2.2105 -0.9710  0.2733
 9281TIP3   OH252037   0.946   1.204   0.010 -0.7031  0.2809  0.1938
 9281TIP3    H152038   0.921   1.181   0.099 -1.3062 -0.5803 -0.1945
 9281TIP3    H252039   0.930   1.298   0.004 -2.4779  0.0190  0.4136
 9282TIP3   OH252040   4.804   3.015   7.938  0.1092 -0.7082  0.3770
 9282TIP3    H152041   4.867   2.973   7.996 -0.5511 -1.6228  0.4441
 9282TIP3    H252042   4.858   3.059   7.872  0.8194 -1.2780  0.5669
 9283TIP3   OH252043   5.347   2.478   0.030 -0.0625  0.0115 -0.7258
 9283TIP3    H152044   5.299   2.457  -0.051  0.4748  0.3102 -1.1250
 9283TIP3    H252045   5.280   2.474   0.099 -0.6408  0.3189 -1.2612
 9284TIP3   OH252046   3.992   6.551   9.863  0.2207 -0.1413  0.2966
 9284TIP3    H152047   3.899   6.527   9.866  0.0163  0.7308  1.6011
 9284TIP3    H252048   4.014   6.547   9.770 -1.5046  1.0111 -0.2235
 9285TIP3   OH252049   5.721   0.936   1.616 -0.4274 -0.2209 -0.8099
 9285TIP3    H152050   5.801   0.940   1.564 -1.4054  1.5188 -2.3027
 9285TIP3    H252051   5.745   0.975   1.700  0.7062 -1.3135 -0.6118
 9286TIP3   OH252052   4.927   4.224   7.933 -0.3889  0.2324 -0.0955
 9286TIP3    H152053   4.995   4.177   7.885 -0.0140  0.4538  0.2106
 9286TIP3    H252054   4.890   4.284   7.868  0.3685  0.7950 -0.0308
 9287TIP3   OH252055   0.177   4.147   1.796  0.4592  0.2060 -0.2044
 9287TIP3    H152056   0.183   4.196   1.714 -1.0835 -0.4252 -0.7249
 9287TIP3    H252057   0.248   4.083   1.791 -0.2558 -0.5335 -1.5543
 9288TIP3   OH252058   4.041   6.871   0.685 -0.0471  0.5471 -0.4840
 9288TIP3    H152059   4.029   6.938   0.753 -1.2290 -0.3688  0.2598
 9288TIP3    H252060   3.953   6.854   0.652 -0.1766 -2.1383  0.8890
 9289TIP3   OH252061   1.087   2.501   8.901 -0.1345 -0.3781  0.2329
 9289TIP3    H152062   1.163   2.554   8.874 -0.5509  1.0735  1.7692
 9289TIP3    H252063   1.077   2.438   8.830  0.6188  1.3564 -1.5386
 9290TIP3   OH252064   2.834   7.248   0.447 -0.3823  0.0469 -0.7918
 9290TIP3    H152065   2.831   7.153   0.447  0.6832  0.0070 -1.3375
 9290TIP3    H252066   2.793   7.273   0.364 -1.0799  0.0854 -0.4402
 9291TIP3   OH252067   2.448   1.591   0.653 -0.2287 -0.3108 -0.4606
 9291TIP3    H152068   2.500   1.672   0.657 -0.3192 -0.2131 -1.0505
 9291TIP3    H252069   2.365   1.614   0.695 -0.4917  0.1016 -1.1829
 9292TIP3   OH252070   1.649   4.962   7.506  0.2263 -0.5320  0.5770
 9292TIP3    H152071   1.633   4.988   7.597  0.9799  0.0104  0.5585
 9292TIP3    H252072   1.724   4.904   7.510  0.6503 -0.0133  0.2325
 9293TIP3   OH252073   6.312   1.811   0.558 -0.1513  0.6051 -0.1667
 9293TIP3    H152074   6.249   1.758   0.609  0.4773 -0.1886 -0.1922
 9293TIP3    H252075   6.270   1.822   0.473 -1.2932  2.0939  0.5553
 9294TIP3   OH252076   0.158   1.552   0.796 -0.2827  0.4460 -0.1600
 9294TIP3    H152077   0.199   1.507   0.871 -1.7003  0.0607  0.4054
 9294TIP3    H252078   0.229   1.559   0.732  0.3053 -1.6047  0.1698
 9295TIP3   OH252079   5.963   5.677   7.484  0.5348 -0.3091  0.0492
 9295TIP3    H152080   5.899   5.612   7.516  0.1511  0.3451  0.6327
 9295TIP3    H252081   5.910   5.753   7.462  0.9347 -0.3393 -1.0746
 9296TIP3   OH252082   3.567   0.247   1.947 -0.0892  0.0614  0.3558
 9296TIP3    H152083   3.608   0.292   1.873  2.0279 -1.3766  0.5528
 9296TIP3    H252084   3.505   0.187   1.907 -1.6086  1.7865  0.0023
 9297TIP3   OH252085   2.745   4.779   1.856 -0.6427 -0.1916  0.2467
 9297TIP3    H152086   2.826   4.821   1.826 -1.6832  1.5203 -0.2959
 9297TIP3    H252087   2.748   4.788   1.951 -0.0620 -0.4259  0.2592
 9298TIP3   OH252088   0.522   0.442   8.842 -0.2019  0.3355 -0.0011
 9298TIP3    H152089   0.434   0.416   8.868  0.4856  0.4868  2.7574
 9298TIP3    H252090   0.579   0.400   8.907  1.6417  1.4126 -0.8649
 9299TIP3   OH252091   0.013   3.260   7.494  0.3306 -0.3255  0.9954
 9299TIP3    H152092   0.081   3.326   7.482  0.6134 -0.7837 -0.0700
 9299TIP3    H252093  -0.058   3.306   7.538  0.5928  0.6448  0.4256
 9300TIP3   OH252094   0.357   6.412   0.997  0.0604 -0.0807 -0.0122
 9300TIP3    H152095   0.439   6.457   1.018  0.5563 -1.4474  1.1720
 9300TIP3    H252096   0.343   6.428   0.904  2.7301 -1.4036 -0.7314
 9301TIP3   OH252097   7.161   7.151   8.607  0.1065  0.6822  0.1013
 9301TIP3    H152098   7.117   7.208   8.670 -0.1923  1.1528 -0.5305
 9301TIP3    H252099   7.255   7.164   8.625  0.1029 -2.0383  3.0073
 9302TIP3   OH252100   0.630   3.944   8.429 -0.1006 -0.2232  0.7002
 9302TIP3    H152101   0.656   4.006   8.498  0.0353 -0.0809  0.5206
 9302TIP3    H252102   0.711   3.897   8.408 -0.5199 -1.6453  2.0179
 9303TIP3   OH252103   3.137   1.805   8.984 -0.5402 -0.2652 -0.0625
 9303TIP3    H152104   3.157   1.898   8.995  0.7741 -0.4616 -0.6454
 9303TIP3    H252105   3.173   1.783   8.898  2.1736 -2.0828  1.4195
 9304TIP3   OH252106   0.934   2.673   9.475  0.3048 -0.2857 -0.3868
 9304TIP3    H152107   0.982   2.734   9.531  0.2849  1.0517 -1.7529
 9304TIP3    H252108   1.001   2.612   9.443  0.6601  0.1055 -0.3985
 9305TIP3   OH252109   2.245   5.500   8.189 -0.3708 -0.4772  0.1625
 9305TIP3    H152110   2.257   5.529   8.099  1.3650 -0.3543  0.3881
 9305TIP3    H252111   2.300   5.421   8.196 -2.7129 -2.1855  0.3613
 9306TIP3   OH252112   5.272   2.157   7.444  0.3470  0.0213 -0.6116
 9306TIP3    H152113   5.212   2.195   7.509  0.7456 -0.0070 -0.2175
 9306TIP3    H252114   5.289   2.069   7.477  1.1359  0.2639 -0.3501
 9307TIP3   OH252115   1.289   0.851   9.795  0.6730  0.1729  0.0408
 9307TIP3    H152116   1.217   0.906   9.827 -1.0519 -1.0983 -1.3964
 9307TIP3    H252117   1.271   0.765   9.832  0.1451 -0.6824 -2.0710
 9308TIP3   OH252118   3.941   6.767   0.068  0.2914  0.0842  0.3555
 9308TIP3    H152119   3.983   6.773   0.154 -1.4641  0.4265  1.2264
 9308TIP3    H252120   3.974   6.685   0.030  4.4388  1.9032 -0.5650
 9309TIP3   OH252121   1.880   5.663   1.569 -0.6314  0.0096  0.1914
 9309TIP3    H152122   1.902   5.653   1.662 -2.6658  1.1012  0.8607
 9309TIP3    H252123   1.835   5.747   1.564 -2.3581 -0.9124 -1.3818
 9310TIP3   OH252124   3.406   5.437   9.459 -0.6581  0.6884  0.2585
 9310TIP3    H152125   3.434   5.348   9.442 -0.2977  0.6427  1.0322
 9310TIP3    H252126   3.482   5.478   9.502 -1.1525  1.0822  0.7657
 9311TIP3   OH252127   0.531   3.227   2.524  0.1615 -0.0068 -0.0858
 9311TIP3    H152128   0.604   3.168   2.541  0.9961  1.0403  0.1213
 9311TIP3    H252129   0.490   3.240   2.610  0.0065 -0.2325 -0.1234
 9312TIP3   OH252130   4.885   0.898   1.733  0.5378 -0.0496 -0.5384
 9312TIP3    H152131   4.892   0.806   1.761 -0.6802 -0.3825 -1.2882
 9312TIP3    H252132   4.816   0.898   1.667  0.5206  1.4222 -0.5419
 9313TIP3   OH252133   5.124   5.054   9.110 -0.3255  0.1620 -0.5359
 9313TIP3    H152134   5.045   5.019   9.070 -0.6331  0.8742 -0.5804
 9313TIP3    H252135   5.160   5.113   9.044 -0.0972  0.3070 -0.2850
 9314TIP3   OH252136   2.740   3.457   0.312 -0.0103  0.1795 -0.2674
 9314TIP3    H152137   2.779   3.537   0.278  0.3712  0.1383  0.0587
 9314TIP3    H252138   2.782   3.444   0.397 -1.4931  0.6945  0.5798
 9315TIP3   OH252139   7.213   0.695   2.497  0.0688 -0.3470  0.2521
 9315TIP3    H152140   7.214   0.760   2.567 -1.9033  0.2615 -0.2277
 9315TIP3    H252141   7.228   0.612   2.542  0.4897  0.1932  1.1520
 9316TIP3   OH252142   2.137   1.104   7.299  0.2692 -0.0100 -0.6344
 9316TIP3    H152143   2.061   1.049   7.318 -0.3846  1.3512  1.0459
 9316TIP3    H252144   2.111   1.154   7.221 -0.8259  0.7856  0.1921
 9317TIP3   OH252145   0.002   0.852   8.307  0.2026  0.2203  0.3577
 9317TIP3    H152146   0.092   0.881   8.318  0.5351 -0.6419  0.0256
 9317TIP3    H252147   0.004   0.799   8.227 -0.9680  1.6553 -0.6629
 9318TIP3   OH252148   1.085   5.725   2.475 -0.1574  0.2776 -0.0276
 9318TIP3    H152149   1.130   5.743   2.558 -1.2125 -0.7285  0.7999
 9318TIP3    H252150   1.096   5.631   2.462  0.1720  0.4661 -1.1518
 9319TIP3   OH252151   4.598   7.049   1.398 -0.0252 -0.2538 -0.2293
 9319TIP3    H152152   4.680   7.002   1.415 -0.6297 -1.2059  0.1964
 9319TIP3    H252153   4.588   7.108   1.472 -1.5770 -2.8630  1.8274
 9320TIP3   OH252154   5.561   6.604   9.518  0.4665  0.7125 -0.2798
 9320TIP3    H152155   5.580   6.557   9.437  0.3604  0.0128  0.0941
 9320TIP3    H252156   5.583   6.542   9.587 -2.2811  0.1473  0.2071
 9321TIP3   OH252157   0.867   3.559   9.168  0.5335 -0.1351 -0.4769
 9321TIP3    H152158   0.962   3.550   9.181  0.4654  0.0994  0.2169
 9321TIP3    H252159   0.839   3.619   9.236  0.0113  0.4867 -1.2288
 9322TIP3   OH252160   2.961   4.502   9.743  0.6783  0.2160 -0.0386
 9322TIP3    H152161   2.869   4.519   9.721  0.7420  1.1747  0.3808
 9322TIP3    H252162   2.957   4.436   9.812  0.3757 -0.8384 -1.0327
 9323TIP3   OH252163   0.993   7.174   1.955  0.4917 -0.0785  0.9496
 9323TIP3    H152164   1.069   7.197   1.901 -0.4599  1.4466  0.1867
 9323TIP3    H252165   0.954   7.099   1.910  0.5776  0.2110  0.3782
 9324TIP3   OH252166   3.945   1.250   7.511  0.2193  0.0686 -0.0418
 9324TIP3    H152167   4.019   1.310   7.517  0.6496 -0.4899  0.3199
 9324TIP3    H252168   3.944   1.222   7.420  0.9303 -0.5087  0.1185
 9325TIP3   OH252169   5.226   1.525   2.750 -0.3155  0.3795 -0.3607
 9325TIP3    H152170   5.317   1.494   2.753 -0.5145 -0.2841 -0.8559
 9325TIP3    H252171   5.178   1.463   2.804 -0.2816  1.5305  1.0686
 9326TIP3   OH252172   3.607   1.064   8.984  0.1191  0.4262 -0.1356
 9326TIP3    H152173   3.665   1.065   8.908  0.8076  0.7820  0.3745
 9326TIP3    H252174   3.628   0.982   9.028 -0.5612  0.0343 -0.5342
 9327TIP3   OH252175   6.246   2.852   9.103  0.1639  0.2946 -0.3162
 9327TIP3    H152176   6.312   2.916   9.079  0.4052 -0.2245 -1.0561
 9327TIP3    H252177   6.263   2.835   9.196  0.9285  0.3352 -0.4390
 9328TIP3   OH252178   5.909   4.991   0.011  0.8241  0.0295  0.7333
 9328TIP3    H152179   5.854   4.966  -0.063  2.5523  1.0260 -0.9833
 9328TIP3    H252180   5.933   4.909   0.053 -0.0296 -0.5736  0.0543
 9329TIP3   OH252181   1.164   4.985   9.404 -0.5181  0.1657  0.6163
 9329TIP3    H152182   1.138   4.961   9.493 -0.1405 -0.0946  0.6577
 9329TIP3    H252183   1.083   5.014   9.362 -0.8286 -0.3935  0.8232
 9330TIP3   OH252184   6.324   0.981   2.610 -0.6098 -0.3008  0.8115
 9330TIP3    H152185   6.380   1.059   2.615  0.1017 -0.8195  1.1335
 9330TIP3    H252186   6.302   0.974   2.517  1.7660 -1.3683  0.2358
 9331TIP3   OH252187   6.751   1.390   2.459  0.5160 -0.8494  0.3914
 9331TIP3    H152188   6.765   1.484   2.444  0.9202 -1.0156 -0.3282
 9331TIP3    H252189   6.839   1.353   2.465  0.3973 -1.4257 -0.9751
 9332TIP3   OH252190   6.913   5.531   9.845 -0.1952 -0.1699 -0.0982
 9332TIP3    H152191   6.821   5.542   9.818 -0.4345  0.2275  0.8322
 9332TIP3    H252192   6.951   5.476   9.777 -1.2689 -0.8230 -0.1975
 9333TIP3   OH252193   5.046   5.414   0.461  0.0149 -0.1704 -0.0526
 9333TIP3    H152194   5.101   5.351   0.509  0.0421  0.5544  0.8999
 9333TIP3    H252195   4.975   5.435   0.521 -1.6000 -1.4248 -1.4394
 9334TIP3   OH252196   5.553   4.044   0.565  0.2551 -0.4539 -0.1387
 9334TIP3    H152197   5.585   4.079   0.482 -0.1822  0.8999  0.2261
 9334TIP3    H252198   5.460   4.068   0.566  0.4652  0.3969  1.1358
 9335TIP3   OH252199   5.435   2.219   0.903  0.0852 -0.2308  0.3506
 9335TIP3    H152200   5.507   2.262   0.949  1.4337 -1.6724 -0.3161
 9335TIP3    H252201   5.372   2.199   0.972  0.0835  1.4269  0.8863
 9336TIP3   OH252202   7.148   0.457   0.866  0.7172 -0.3560 -0.2474
 9336TIP3    H152203   7.242   0.470   0.855  0.4180  0.8659 -1.7311
 9336TIP3    H252204   7.118   0.427   0.780  0.1735 -3.8777  1.0326
 9337TIP3   OH252205   6.533   1.658   0.018 -0.1861 -0.5962 -0.5261
 9337TIP3    H152206   6.626   1.639   0.015 -0.1375 -0.4784  0.0537
 9337TIP3    H252207   6.490   1.573   0.005  0.0054 -0.6713 -0.6575
 9338TIP3   OH252208   2.553   6.628   7.193  0.3328 -0.6787  0.2872
 9338TIP3    H152209   2.589   6.571   7.126  0.1534 -1.5606  0.9286
 9338TIP3    H252210   2.493   6.686   7.146  2.8211  1.1183 -0.8889
 9339TIP3   OH252211   4.648   1.682   7.107 -0.2376  0.2480 -0.0726
 9339TIP3    H152212   4.739   1.710   7.097 -0.3902  0.2323 -1.6872
 9339TIP3    H252213   4.639   1.663   7.201  0.8055  2.3088  0.4922
 9340TIP3   OH252214   1.999   0.526   9.488  0.2288 -0.0639  0.2395
 9340TIP3    H152215   1.929   0.516   9.552 -0.1120 -0.8362 -0.2396
 9340TIP3    H252216   2.029   0.437   9.471  1.0212  0.2264  0.1049
 9341TIP3   OH252217   4.792   4.110   0.617  0.3224 -0.0326  0.0760
 9341TIP3    H152218   4.734   4.106   0.540 -0.4809  1.8177  0.5426
 9341TIP3    H252219   4.788   4.201   0.645  1.9394 -0.3144  1.3263
 9342TIP3   OH252220   0.908   4.337   1.611  0.2244 -0.1829 -0.2451
 9342TIP3    H152221   0.969   4.356   1.540  2.2091  0.5582  1.5307
 9342TIP3    H252222   0.941   4.256   1.650 -1.6948 -1.3884 -0.9826
 9343TIP3   OH252223   0.594   6.069   1.596  0.8017 -0.2664 -0.4069
 9343TIP3    H152224   0.598   5.990   1.650  0.1593 -0.3569 -0.4834
 9343TIP3    H252225   0.569   6.038   1.509  0.1117  0.0590 -0.3320
 9344TIP3   OH252226   4.521   5.578   7.661  0.2648 -0.5289  0.4701
 9344TIP3    H152227   4.426   5.577   7.668  0.3080 -1.0864  1.1001
 9344TIP3    H252228   4.540   5.651   7.603 -0.5621 -0.6173  0.0735
 9345TIP3   OH252229   1.866   0.956   6.874  0.3335  0.2484 -0.3859
 9345TIP3    H152230   1.803   1.010   6.922 -0.5715 -0.5989 -0.5999
 9345TIP3    H252231   1.863   0.989   6.784 -2.1543 -1.7387 -1.1526
 9346TIP3   OH252232   2.754   1.498   9.159  0.7009 -0.1604  0.1007
 9346TIP3    H152233   2.819   1.554   9.116  1.8593 -1.4120  0.1778
 9346TIP3    H252234   2.805   1.429   9.201 -0.5715 -0.2606  1.5662
 9347TIP3   OH252235   1.488   5.031   9.474 -0.1829  0.1401  0.1114
 9347TIP3    H152236   1.426   5.078   9.529  0.3358  1.4505 -0.3877
 9347TIP3    H252237   1.547   4.987   9.536  1.1934  2.6396  0.7011
 9348TIP3   OH252238   4.680   0.441   8.605  0.0479 -0.1051  0.0164
 9348TIP3    H152239   4.695   0.445   8.511 -0.2087  1.5250  0.0266
 9348TIP3    H252240   4.662   0.348   8.622  1.1871 -0.6206 -1.3526
 9349TIP3   OH252241   5.427   7.023   2.448 -0.0104 -0.0116  0.2661
 9349TIP3    H152242   5.337   7.036   2.419  0.0575  0.2773  0.1833
 9349TIP3    H252243   5.448   7.101   2.499  0.5630  0.4552 -0.6505
 9350TIP3   OH252244   0.551   7.150   8.742 -0.0982 -0.2087 -0.4819
 9350TIP3    H152245   0.469   7.195   8.719 -1.1066 -1.5178  0.3875
 9350TIP3    H252246   0.615   7.183   8.679 -0.8470  2.1832 -0.0928
 9351TIP3   OH252247   3.310   4.752   1.043  0.3099  0.4442 -0.2470
 9351TIP3    H152248   3.315   4.674   1.099  2.7798  1.4512  1.1145
 9351TIP3    H252249   3.253   4.812   1.092  1.4777  0.8659  0.6372
 9352TIP3   OH252250   1.075   0.515   7.502 -0.5218  0.2915 -0.3550
 9352TIP3    H152251   1.017   0.441   7.487  0.6164 -0.9551  1.0654
 9352TIP3    H252252   1.131   0.519   7.424  0.8007 -1.7398  0.4059
 9353TIP3   OH252253   1.662   6.117   8.939 -0.6579 -0.2275 -0.2562
 9353TIP3    H152254   1.689   6.038   8.986  0.0432  0.6379  0.8474
 9353TIP3    H252255   1.663   6.186   9.005 -0.3399  0.8996 -1.3974
 9354TIP3   OH252256   4.791   6.378   9.401 -0.0892  0.2783  0.1308
 9354TIP3    H152257   4.879   6.348   9.424 -0.5309 -0.8564  0.4050
 9354TIP3    H252258   4.753   6.305   9.352 -1.0091  0.6120  0.3318
 9355TIP3   OH252259   0.238   0.048   8.251 -0.5885 -0.1793 -0.4665
 9355TIP3    H152260   0.149   0.031   8.280 -0.4059 -1.5043 -0.6292
 9355TIP3    H252261   0.271   0.114   8.312 -0.5455 -2.1475  1.7810
 9356TIP3   OH252262   5.985   6.800   9.231 -0.0315 -0.3293  0.2592
 9356TIP3    H152263   6.056   6.863   9.235 -0.3098  0.1144 -1.3081
 9356TIP3    H252264   6.000   6.742   9.306  1.3112  0.4419  0.6115
 9357TIP3   OH252265   5.384   2.505   8.145  0.1564 -0.0859 -0.6154
 9357TIP3    H152266   5.425   2.431   8.099 -0.1108 -0.6509  0.0464
 9357TIP3    H252267   5.291   2.496   8.125  0.2708  0.8465 -1.6193
 9358TIP3   OH252268   0.462   0.123   1.682  0.6291  0.3222  0.0699
 9358TIP3    H152269   0.471   0.212   1.648  1.4727 -0.7488 -2.8209
 9358TIP3    H252270   0.380   0.090   1.645 -0.6550  0.4023  2.6128
 9359TIP3   OH252271   0.912   4.164   0.646  0.0652  0.1126  0.1257
 9359TIP3    H152272   0.961   4.166   0.563  0.7950 -1.7619  0.4596
 9359TIP3    H252273   0.956   4.096   0.698 -1.7246 -0.2829  1.1992
 9360TIP3   OH252274   3.856   7.149   7.629 -0.5223  0.9300 -0.0207
 9360TIP3    H152275   3.861   7.194   7.713  2.2659 -0.5237  0.7243
 9360TIP3    H252276   3.787   7.194   7.581 -2.2597  1.7826  3.0320
 9361TIP3   OH252277   6.598   6.051   7.382 -0.1451 -0.4093 -0.5122
 9361TIP3    H152278   6.521   6.057   7.438  0.7455  0.7353  0.6663
 9361TIP3    H252279   6.656   6.121   7.414  1.9011 -1.9768 -0.5406
 9362TIP3   OH252280   0.243   4.382   1.264  0.7435 -0.1686  0.5488
 9362TIP3    H152281   0.202   4.394   1.178 -0.3498  2.7890  1.3468
 9362TIP3    H252282   0.326   4.428   1.256  0.7578 -0.1221  0.9885
 9363TIP3   OH252283   6.805   4.628   8.627 -0.2442  0.0654  0.3163
 9363TIP3    H152284   6.873   4.693   8.646  0.3346  0.0094 -1.4221
 9363TIP3    H252285   6.850   4.560   8.577 -1.1924 -0.8970  0.7292
 9364TIP3   OH252286   1.651   4.974   8.725 -0.5630 -0.4350 -0.0824
 9364TIP3    H152287   1.732   4.933   8.756 -0.2770  0.9600  1.0699
 9364TIP3    H252288   1.592   4.973   8.800 -1.6838 -1.4779 -0.9193
 9365TIP3   OH252289   5.602   5.783   7.733  0.2139  0.5120  0.0195
 9365TIP3    H152290   5.588   5.801   7.826  1.1284 -2.8399  0.9522
 9365TIP3    H252291   5.519   5.745   7.703  0.3342  0.4091 -0.1879
 9366TIP3   OH252292   4.516   3.747   2.410  0.4884 -0.0001  0.0034
 9366TIP3    H152293   4.572   3.737   2.487  0.6707 -0.5781 -0.1965
 9366TIP3    H252294   4.436   3.699   2.432  0.1809  0.5827  0.1762
 9367TIP3   OH252295   3.457   2.781   0.492 -0.1915 -0.3328 -0.1489
 9367TIP3    H152296   3.510   2.740   0.424 -2.2963 -2.2896 -0.7337
 9367TIP3    H252297   3.490   2.871   0.497  2.8592 -1.2962 -0.6832
 9368TIP3   OH252298   2.830   4.354   9.996  0.0274 -0.3260  0.2330
 9368TIP3    H152299   2.775   4.431   9.984  0.0586 -0.2141  0.7745
 9368TIP3    H252300   2.777   4.293  10.047  0.7576  0.2116  1.7026
 9369TIP3   OH252301   5.453   0.811   9.912 -0.1571  0.3003 -0.6801
 9369TIP3    H152302   5.478   0.725   9.880 -0.4283 -0.9552  2.2239
 9369TIP3    H252303   5.373   0.832   9.864 -0.4003 -1.2995 -1.0200
 9370TIP3   OH252304   4.368   7.108   8.940 -0.5535  0.2322  0.1375
 9370TIP3    H152305   4.346   7.062   9.021  1.1790  0.9147  1.0387
 9370TIP3    H252306   4.292   7.094   8.884 -1.7680 -0.3487  1.8320
 9371TIP3   OH252307   2.089   2.041   0.058 -0.4862 -0.4013 -0.0231
 9371TIP3    H152308   2.177   2.072   0.041 -0.7074  0.1977 -0.0751
 9371TIP3    H252309   2.069   2.070   0.147 -1.3495  1.1613 -0.6940
 9372TIP3   OH252310   2.398   7.016   0.612  0.2478  0.7339 -0.5398
 9372TIP3    H152311   2.477   7.005   0.666  0.7371 -0.9082 -1.5474
 9372TIP3    H252312   2.376   6.928   0.582 -1.6962  1.2319 -0.7051
 9373TIP3   OH252313   3.680   5.692   9.011  0.0064  0.4824  0.1274
 9373TIP3    H152314   3.617   5.651   8.953  0.0759  2.4871 -1.4735
 9373TIP3    H252315   3.652   5.784   9.016  2.1123  1.1675  0.3054
 9374TIP3   OH252316   2.316   0.106   7.638  0.4303  0.8807  0.1482
 9374TIP3    H152317   2.384   0.139   7.579  2.1642 -0.5599  1.2380
 9374TIP3    H252318   2.338   0.014   7.650 -1.6281  0.4225  0.7262
 9375TIP3   OH252319   5.426   6.587   8.498 -0.0711  0.2131  0.5774
 9375TIP3    H152320   5.489   6.531   8.543 -1.0403 -1.2391  0.2024
 9375TIP3    H252321   5.387   6.531   8.431 -3.3332  0.2909  2.1920
 9376TIP3   OH252322   2.477   6.825   7.515  0.0722  0.0871 -0.0509
 9376TIP3    H152323   2.394   6.810   7.560  0.1737  0.4697  0.2742
 9376TIP3    H252324   2.522   6.741   7.519 -0.9300 -0.5547 -1.5656
 9377TIP3   OH252325   0.234   0.488   9.985  0.2924 -0.0585  0.0837
 9377TIP3    H152326   0.277   0.493   9.899 -1.7504 -0.3524 -1.0158
 9377TIP3    H252327   0.225   0.394  10.001  0.9992 -0.0086  0.8118
 9378TIP3   OH252328   1.161   0.088   9.031 -1.0703 -0.2987 -0.7707
 9378TIP3    H152329   1.222   0.133   8.974  0.3934 -0.1564  0.8165
 9378TIP3    H252330   1.196  -0.001   9.038 -1.4853 -0.4427 -0.4629
 9379TIP3   OH252331   2.706   0.656   0.801 -0.7717 -0.4415  0.0237
 9379TIP3    H152332   2.666   0.606   0.873 -1.0641  0.8442  0.7770
 9379TIP3    H252333   2.763   0.593   0.758 -2.0868 -1.7906  0.1510
 9380TIP3   OH252334   0.514   3.555   2.896  0.2671 -0.2591 -0.7495
 9380TIP3    H152335   0.499   3.568   2.990  1.6327  1.2209 -0.6859
 9380TIP3    H252336   0.546   3.639   2.865  0.7059 -0.9791 -2.3727
 9381TIP3   OH252337   6.019   5.996   7.422 -0.2101 -0.3557 -0.7825
 9381TIP3    H152338   5.934   5.956   7.437 -0.5407  0.7442  0.4765
 9381TIP3    H252339   6.055   6.011   7.509  0.7977  0.1722 -1.2677
 9382TIP3   OH252340   2.623   0.110   1.235  0.3015  0.3226 -0.4749
 9382TIP3    H152341   2.540   0.158   1.235  1.7255  3.0007  0.3164
 9382TIP3    H252342   2.627   0.069   1.149 -2.5660 -1.3438  0.0748
 9383TIP3   OH252343   3.371   2.307   0.074  0.2402  0.9731 -0.5000
 9383TIP3    H152344   3.456   2.304   0.116 -0.5397 -1.5832  1.1205
 9383TIP3    H252345   3.311   2.339   0.142 -0.5194 -0.0700 -0.6480
 9384TIP3   OH252346   0.505   4.378   9.957 -0.4180  0.3020  0.1304
 9384TIP3    H152347   0.492   4.451   9.897  1.4642  2.2340  1.8660
 9384TIP3    H252348   0.600   4.369   9.963 -0.3967  1.1998  3.7556
 9385TIP3   OH252349   3.939   3.360   1.396 -0.5387 -0.3114 -0.0466
 9385TIP3    H152350   3.903   3.416   1.327 -2.0990 -1.2491 -0.0530
 9385TIP3    H252351   3.862   3.326   1.441  0.4061 -1.3466  0.8432
 9386TIP3   OH252352   4.690   4.069   7.658  0.0060 -0.5441 -0.1722
 9386TIP3    H152353   4.755   4.043   7.724 -0.1175 -1.1506 -0.2833
 9386TIP3    H252354   4.737   4.130   7.601  0.1194 -0.0189  0.4639
 9387TIP3   OH252355   5.276   0.465   7.381  0.0889 -0.0336  0.1673
 9387TIP3    H152356   5.219   0.536   7.351 -0.2250 -0.5029 -0.3771
 9387TIP3    H252357   5.300   0.490   7.470 -1.7944 -0.2970  0.8076
 9388TIP3   OH252358   2.598   7.090   8.917  0.3301  0.7822  0.7023
 9388TIP3    H152359   2.580   7.078   8.824  0.2055 -0.7143  0.8909
 9388TIP3    H252360   2.572   7.007   8.957  3.2077  0.2075  1.6313
 9389TIP3   OH252361   5.536   4.297   7.546  0.3231 -0.0544 -0.0261
 9389TIP3    H152362   5.588   4.371   7.515 -0.4180  0.1864 -0.7393
 9389TIP3    H252363   5.511   4.322   7.635  0.6312  0.2583 -0.0239
 9390TIP3   OH252364   1.774   6.926   9.945 -0.0626 -0.5821  0.1138
 9390TIP3    H152365   1.706   6.924  10.011 -0.3417 -0.7315 -0.1761
 9390TIP3    H252366   1.761   7.009   9.898 -2.1244 -2.0194 -2.0887
 9391TIP3   OH252367   3.998   3.307   8.539  0.0537 -0.3303  0.1547
 9391TIP3    H152368   4.076   3.332   8.489  0.4824 -0.2452  0.8461
 9391TIP3    H252369   3.928   3.361   8.503  0.4785  0.1614  0.0523
 9392TIP3   OH252370   6.752   6.680   8.163 -0.0344  0.0799  0.5096
 9392TIP3    H152371   6.694   6.647   8.232 -1.1470  1.3384  0.2208
 9392TIP3    H252372   6.772   6.769   8.188  2.2671 -0.4776  0.8532
 9393TIP3   OH252373   0.131   2.944   9.991  0.0520  0.0877 -0.4635
 9393TIP3    H152374   0.086   2.867   9.955  2.0854 -0.5194 -1.8897
 9393TIP3    H252375   0.096   3.018   9.941 -0.1303 -0.2314 -0.8114
 9394TIP3   OH252376   2.863   4.178   9.197 -0.5062 -0.1238  0.3143
 9394TIP3    H152377   2.852   4.222   9.281 -0.6165  0.0042  0.2325
 9394TIP3    H252378   2.820   4.235   9.134  2.4031  1.4899 -0.3685
 9395TIP3   OH252379   0.022   2.879   6.912 -0.2561 -0.0226  0.1835
 9395TIP3    H152380   0.099   2.846   6.959 -0.4903  0.0176  0.6029
 9395TIP3    H252381  -0.038   2.805   6.909 -1.0612  0.5133  1.7218
 9396TIP3   OH252382   5.716   6.185   1.388  0.3917 -0.2786  0.0811
 9396TIP3    H152383   5.776   6.208   1.317 -0.6859 -0.2693 -0.8655
 9396TIP3    H252384   5.772   6.153   1.458  1.3876 -2.1060 -1.4602
 9397TIP3   OH252385   3.207   3.882   8.434 -0.9788  0.2215 -0.5468
 9397TIP3    H152386   3.115   3.869   8.411 -0.7476 -2.0491 -0.4553
 9397TIP3    H252387   3.254   3.815   8.383  0.3437 -0.1493  1.0750
 9398TIP3   OH252388   4.787   3.745   9.623  0.1628 -0.4374  0.3674
 9398TIP3    H152389   4.707   3.772   9.668 -0.7962 -0.0143 -1.4606
 9398TIP3    H252390   4.801   3.813   9.557  1.7999 -0.7479  0.3442
 9399TIP3   OH252391   4.379   1.062   0.024  0.8241  0.2212 -0.4884
 9399TIP3    H152392   4.402   0.982  -0.022  0.6689 -0.3330  0.3701
 9399TIP3    H252393   4.292   1.045   0.060  1.5522  0.0202  1.3069
 9400TIP3   OH252394   4.243   6.971   9.917  0.5694 -0.1780 -0.0232
 9400TIP3    H152395   4.155   6.997   9.888  0.8499  0.9707  0.1115
 9400TIP3    H252396   4.232   6.945  10.008  0.0381 -1.9176 -0.5427
 9401TIP3   OH252397   4.091   3.847   1.006 -0.2712 -0.2952 -0.4397
 9401TIP3    H152398   3.997   3.835   0.991 -0.4742  0.7024 -0.0143
 9401TIP3    H252399   4.113   3.926   0.957  0.1052  0.1193  0.3846
 9402TIP3   OH252400   1.197   3.299   7.917 -0.3247  0.4132  1.3134
 9402TIP3    H152401   1.235   3.264   7.836 -1.0515  2.2541  0.0837
 9402TIP3    H252402   1.235   3.247   7.987  0.5756 -1.0485 -0.2036
 9403TIP3   OH252403   4.432   5.102   7.622 -0.0969 -0.1585  0.4089
 9403TIP3    H152404   4.498   5.032   7.619  0.1567  0.0621  0.7135
 9403TIP3    H252405   4.463   5.161   7.691  0.5035  1.0612 -0.8456
 9404TIP3   OH252406   6.921   4.464   2.117  0.1023  0.1565  0.2004
 9404TIP3    H152407   6.934   4.370   2.103  1.3857  0.1609  1.1570
 9404TIP3    H252408   6.827   4.477   2.109 -0.2137 -1.4013  1.0446
 9405TIP3   OH252409   1.406   5.818   0.508  1.1050  0.4897  0.6184
 9405TIP3    H152410   1.457   5.771   0.575 -0.2024 -0.2476  1.1338
 9405TIP3    H252411   1.392   5.753   0.439 -0.2743  0.2467  1.0991
 9406TIP3   OH252412   2.292   7.109   7.708  0.3209  0.9714 -0.6429
 9406TIP3    H152413   2.377   7.076   7.681  0.3049  0.6602 -0.3199
 9406TIP3    H252414   2.293   7.105   7.804 -0.4547 -0.0723 -0.6629
 9407TIP3   OH252415   5.101   5.543   8.595 -0.2656  0.0471  0.3153
 9407TIP3    H152416   5.150   5.558   8.514 -0.3988  0.0658  0.2361
 9407TIP3    H252417   5.087   5.448   8.598  1.5107 -0.2151  1.3654
 9408TIP3   OH252418   4.492   3.694   0.868 -0.3652  0.4278  0.0157
 9408TIP3    H152419   4.404   3.658   0.860 -1.3469  1.9861  2.5795
 9408TIP3    H252420   4.485   3.781   0.828  0.3306  0.1564 -0.7185
 9409TIP3   OH252421   0.855   2.387   1.606 -0.5010 -0.7463  0.0740
 9409TIP3    H152422   0.932   2.334   1.587 -0.0539  0.0723 -0.4289
 9409TIP3    H252423   0.814   2.402   1.521 -0.7706 -0.4930  0.2456
 9410TIP3   OH252424   7.047   6.570   0.652 -0.8080 -0.0777  0.3998
 9410TIP3    H152425   7.038   6.479   0.626  0.0887 -0.1471  0.2998
 9410TIP3    H252426   7.087   6.567   0.739  0.8986  0.2345 -0.3434
 9411TIP3   OH252427   5.177   6.008   7.264 -0.0287  0.2055 -0.4300
 9411TIP3    H152428   5.202   5.915   7.256  0.3064  0.2732 -0.2113
 9411TIP3    H252429   5.096   6.006   7.314 -0.9300 -0.0722 -1.8448
 9412TIP3   OH252430   0.972   5.849   1.263  0.2528  0.3698  0.9886
 9412TIP3    H152431   0.967   5.938   1.227  1.1151 -0.4972 -1.4338
 9412TIP3    H252432   0.882   5.817   1.261  0.0491  0.9227  1.1515
 9413TIP3   OH252433   5.948   5.844   8.617  0.3021 -0.1077 -0.2292
 9413TIP3    H152434   6.011   5.881   8.555  1.4343 -2.4120 -0.5713
 9413TIP3    H252435   5.863   5.860   8.577  0.9881 -1.1986 -2.2828
 9414TIP3   OH252436   3.921   1.080   2.609  0.1347 -0.1875 -0.0683
 9414TIP3    H152437   3.931   1.130   2.690  0.3124  0.4343 -0.4626
 9414TIP3    H252438   3.836   1.038   2.617 -0.3672  0.8010 -0.0500
 9415TIP3   OH252439   2.820   3.588   2.210  0.2086 -0.1402  0.0906
 9415TIP3    H152440   2.777   3.673   2.216 -0.8345 -0.7061  1.0018
 9415TIP3    H252441   2.763   3.536   2.152 -0.1028 -0.7378  0.9068
 9416TIP3   OH252442   6.969   6.810   9.258  0.3706 -0.3037 -0.3010
 9416TIP3    H152443   6.994   6.739   9.199 -0.3098 -1.7497  1.0636
 9416TIP3    H252444   7.021   6.885   9.230  2.7949 -1.9301 -0.4301
 9417TIP3   OH252445   5.931   6.990   9.020 -0.1939 -0.0686 -0.5730
 9417TIP3    H152446   5.955   6.932   9.093  1.7455 -0.1639 -1.2337
 9417TIP3    H252447   5.840   7.013   9.037 -0.3258 -1.5163  0.9154
 9418TIP3   OH252448   6.783   5.355   8.158 -0.0871 -0.2441 -0.3353
 9418TIP3    H152449   6.813   5.427   8.102  1.9270 -1.0944 -0.4014
 9418TIP3    H252450   6.697   5.331   8.121  1.2943 -1.0347 -3.3992
 9419TIP3   OH252451   4.518   6.339   7.739  0.0562  0.4489  0.2422
 9419TIP3    H152452   4.497   6.428   7.766  1.9050  1.1187 -0.3723
 9419TIP3    H252453   4.592   6.314   7.794  1.2406  0.3111 -1.3435
 9420TIP3   OH252454   5.716   2.382   0.100  0.4390 -0.1654 -0.4840
 9420TIP3    H152455   5.780   2.412   0.035  0.5585  0.6691 -0.0050
 9420TIP3    H252456   5.691   2.295   0.071  0.0633  0.4063 -1.9691
 9421TIP3   OH252457   5.138   5.905   9.426 -0.0375  0.3148  0.3263
 9421TIP3    H152458   5.084   5.963   9.373  1.5217  0.5917 -1.0284
 9421TIP3    H252459   5.086   5.825   9.436  0.1951 -0.3702 -2.9745
 9422TIP3   OH252460   4.768   2.224   9.240 -0.0466  0.0992  0.4168
 9422TIP3    H152461   4.685   2.242   9.284 -2.2214 -2.7497 -2.0938
 9422TIP3    H252462   4.783   2.131   9.254  1.5288  0.0677 -1.1242
 9423TIP3   OH252463   6.128   2.125   7.519  0.0188  0.0340  0.3841
 9423TIP3    H152464   6.078   2.158   7.594  0.4686  0.1717  0.6297
 9423TIP3    H252465   6.194   2.068   7.558  0.6727  0.6201  0.1541
 9424TIP3   OH252466   5.629   1.845   9.093  0.5444 -0.2242 -0.1782
 9424TIP3    H152467   5.695   1.901   9.053  0.2228  0.5324  0.3137
 9424TIP3    H252468   5.679   1.776   9.137  0.9496 -0.2797 -0.7205
 9425TIP3   OH252469   5.428   2.900   0.330  0.1463  0.7125 -0.1489
 9425TIP3    H152470   5.485   2.965   0.373 -1.3850  1.9014  0.1529
 9425TIP3    H252471   5.340   2.920   0.361 -0.4784 -1.0606 -0.6459
 9426TIP3   OH252472   0.384   6.969   7.844  0.6207  0.2238 -0.2062
 9426TIP3    H152473   0.470   6.955   7.805  0.3994 -0.1344 -0.5659
 9426TIP3    H252474   0.403   7.005   7.931  1.1704 -1.0492  0.2242
 9427TIP3   OH252475   0.700   6.936   7.891  0.1333 -0.4923  0.1142
 9427TIP3    H152476   0.721   6.927   7.984  0.8958 -2.3837 -0.1981
 9427TIP3    H252477   0.759   7.005   7.860  0.2406 -0.2060  0.9160
 9428TIP3   OH252478   6.361   2.926   7.668  0.2643 -0.7483  0.4025
 9428TIP3    H152479   6.364   2.832   7.652 -1.1935 -0.6670 -0.5343
 9428TIP3    H252480   6.411   2.965   7.596 -0.3791 -0.7395 -0.0448
 9429TIP3   OH252481   7.112   4.487   7.894 -0.4837  0.3686 -0.3125
 9429TIP3    H152482   7.041   4.426   7.917 -0.1604  0.1094 -0.0013
 9429TIP3    H252483   7.069   4.572   7.887 -0.7667  0.2753  0.2344
 9430TIP3   OH252484   1.098   3.319   1.944 -0.1340 -0.9854 -0.1187
 9430TIP3    H152485   1.167   3.340   1.881 -0.3045 -0.5556 -0.1664
 9430TIP3    H252486   1.047   3.251   1.901  0.7128 -1.8665  0.2391
 9431TIP3   OH252487   0.104   4.353   0.985 -0.1353  0.3608  0.0550
 9431TIP3    H152488   0.030   4.325   0.932 -1.6252  1.3491  1.4996
 9431TIP3    H252489   0.092   4.448   0.995  0.7087  0.3720  1.2161
 9432TIP3   OH252490   3.002   3.913   9.042  0.2347 -0.3978 -0.3717
 9432TIP3    H152491   2.951   3.991   9.016  2.5734  1.4601  0.2651
 9432TIP3    H252492   2.979   3.899   9.134  0.2884 -0.0631 -0.3059
 9433TIP3   OH252493   5.153   4.294   9.159  0.4728 -0.8721  0.1202
 9433TIP3    H152494   5.212   4.295   9.235 -0.1223 -0.9150  0.5930
 9433TIP3    H252495   5.068   4.266   9.195  0.3327 -1.5017 -0.6749
 9434TIP3   OH252496   3.542   5.582   1.680 -0.0639  0.4249  0.0787
 9434TIP3    H152497   3.449   5.569   1.662  0.1951  0.4002 -1.3163
 9434TIP3    H252498   3.562   5.668   1.643  1.0121 -0.6322 -1.9455
 9435TIP3   OH252499   4.126   0.456   1.907 -0.8890  0.0013  0.0966
 9435TIP3    H152500   4.124   0.543   1.945  0.2152 -0.6460  1.7476
 9435TIP3    H252501   4.213   0.449   1.866 -1.4734  0.1294 -1.2070
 9436TIP3   OH252502   4.452   6.994   0.566 -0.0362  0.0703 -0.3781
 9436TIP3    H152503   4.464   6.990   0.661 -2.3659 -0.6900 -0.0399
 9436TIP3    H252504   4.516   7.058   0.536  0.0882  1.0883  1.8484
 9437TIP3   OH252505   3.381   2.048   0.912 -0.1301 -0.5182 -0.1776
 9437TIP3    H152506   3.383   2.017   1.002 -1.6324 -1.4072 -0.4081
 9437TIP3    H252507   3.363   1.969   0.860  0.9407 -0.0733 -1.2982
 9438TIP3   OH252508   6.040   6.145   0.637 -0.0585 -0.1855  0.2726
 9438TIP3    H152509   5.977   6.216   0.625 -0.2896 -0.3698  0.3817
 9438TIP3    H252510   6.025   6.116   0.727 -1.1265 -1.4796 -0.2862
 9439TIP3   OH252511   3.868   5.510   0.192  0.3873 -0.0346 -0.0580
 9439TIP3    H152512   3.879   5.435   0.250  2.7562  0.1082 -0.2348
 9439TIP3    H252513   3.956   5.545   0.180 -0.4742  1.9541 -1.0939
 9440TIP3   OH252514   1.970   3.372   7.641  0.4073 -0.3794  0.4829
 9440TIP3    H152515   2.015   3.334   7.565  1.6132 -0.9678  1.4678
 9440TIP3    H252516   1.920   3.300   7.679  1.5940 -0.6727  1.5402
 9441TIP3   OH252517   1.938   6.210   2.513 -0.0229 -0.4594 -1.1522
 9441TIP3    H152518   2.000   6.274   2.548 -0.2014 -0.6748 -0.4416
 9441TIP3    H252519   1.991   6.133   2.492  0.0219 -0.4684 -1.0009
 9442TIP3   OH252520   4.095   1.086   7.657 -0.0101  0.1268 -0.3628
 9442TIP3    H152521   4.022   1.055   7.712  0.5275  1.4740  1.1921
 9442TIP3    H252522   4.053   1.139   7.590 -0.7267 -1.9415 -1.6588
 9443TIP3   OH252523   2.271   1.126   0.661 -0.0650 -0.3279 -0.2125
 9443TIP3    H152524   2.365   1.138   0.657  0.2016 -1.1455  1.9403
 9443TIP3    H252525   2.235   1.214   0.664  0.7023 -0.0107 -0.1141
 9444TIP3   OH252526   2.566   2.319   8.163 -0.5780 -0.2019  0.3699
 9444TIP3    H152527   2.491   2.340   8.107 -0.1804 -0.1747 -0.1511
 9444TIP3    H252528   2.526   2.291   8.246 -1.1691 -0.5023 -0.0108
 9445TIP3   OH252529   5.580   5.113   8.360 -0.0425 -0.5327 -0.2906
 9445TIP3    H152530   5.638   5.050   8.403 -1.0342 -1.5766 -0.4249
 9445TIP3    H252531   5.582   5.089   8.268 -0.4340 -0.3767 -0.3421
 9446TIP3   OH252532   5.441   2.357   0.257 -0.2970 -0.2315 -0.3841
 9446TIP3    H152533   5.523   2.308   0.258 -0.5439 -0.6508  0.3076
 9446TIP3    H252534   5.427   2.379   0.165  1.7929  1.9321 -0.2672
 9447TIP3   OH252535   6.184   5.271   0.836 -0.3708  0.2311 -0.5440
 9447TIP3    H152536   6.159   5.352   0.881 -1.4700 -1.1244  1.4144
 9447TIP3    H252537   6.250   5.299   0.772 -1.0554  2.7240 -0.2677
 9448TIP3   OH252538   1.808   1.724   1.179  0.7618 -0.2001  0.4470
 9448TIP3    H152539   1.730   1.677   1.148  1.0497 -1.0666  1.0098
 9448TIP3    H252540   1.805   1.808   1.132 -0.5323 -0.1936  0.5006
 9449TIP3   OH252541   2.592   4.447   1.728 -0.9031  0.1401 -0.0318
 9449TIP3    H152542   2.568   4.423   1.638  0.8291  1.1293 -0.8110
 9449TIP3    H252543   2.589   4.542   1.730  1.5702  0.2974  0.1268
 9450TIP3   OH252544   0.120   0.379   0.774 -0.2101  0.8210 -0.1373
 9450TIP3    H152545   0.079   0.329   0.703  1.1739  0.2177 -0.5539
 9450TIP3    H252546   0.196   0.421   0.733  3.4124 -3.1292  1.7163
 9451TIP3   OH252547   6.824   0.217   1.616  0.5448  0.3985  0.6609
 9451TIP3    H152548   6.787   0.299   1.649 -1.5517 -0.2565  0.0718
 9451TIP3    H252549   6.835   0.232   1.522 -3.4351 -1.0865 -0.2395
 9452TIP3   OH252550   0.945   5.166   9.663 -0.2583 -0.2629  0.0396
 9452TIP3    H152551   0.989   5.084   9.641  0.3987  0.4559 -1.4614
 9452TIP3    H252552   0.989   5.232   9.609  0.9124  1.5373  2.9817
 9453TIP3   OH252553   6.259   4.559   9.135  0.2807  0.2130 -0.3483
 9453TIP3    H152554   6.294   4.508   9.061  0.8088 -0.8455  0.6050
 9453TIP3    H252555   6.191   4.503   9.173 -1.3289  1.5429 -1.1392
 9454TIP3   OH252556   4.875   0.676   0.661 -0.9251 -0.0322 -0.1263
 9454TIP3    H152557   4.906   0.662   0.571 -0.6961 -0.4397  0.0161
 9454TIP3    H252558   4.810   0.606   0.675  1.0755 -1.7705  0.9998
 9455TIP3   OH252559   1.940   7.166   7.360 -0.4433  0.5553 -0.3164
 9455TIP3    H152560   1.979   7.136   7.278 -0.0875  1.7129 -0.5889
 9455TIP3    H252561   1.958   7.260   7.362 -1.3266  0.7199  0.6095
 9456TIP3   OH252562   0.217   4.699   1.039  0.2283 -0.2503  0.0071
 9456TIP3    H152563   0.256   4.634   0.981  0.7066 -0.4322  0.5219
 9456TIP3    H252564   0.130   4.665   1.059  0.7041 -1.0522  0.7704
 9457TIP3   OH252565   5.132   4.559   1.716  0.1390  0.1076  0.5617
 9457TIP3    H152566   5.162   4.619   1.647 -1.3832  1.1419  0.7281
 9457TIP3    H252567   5.170   4.594   1.796  0.5967 -0.1260  0.4442
 9458TIP3   OH252568   0.290   3.558   2.179  0.9673  0.4425  0.1985
 9458TIP3    H152569   0.360   3.534   2.239  0.9959 -0.7052 -0.2702
 9458TIP3    H252570   0.256   3.474   2.147  0.1814  1.0095 -0.4962
 9459TIP3   OH252571   5.473   1.663   7.527  0.3368  0.5779 -0.3199
 9459TIP3    H152572   5.528   1.624   7.460  0.0132 -0.0848 -0.2075
 9459TIP3    H252573   5.435   1.589   7.574  1.5550  1.0013  1.4313
 9460TIP3   OH252574   6.390   3.352   1.866 -0.5020 -0.7899  1.1531
 9460TIP3    H152575   6.475   3.393   1.881 -0.6957 -0.6080  1.8272
 9460TIP3    H252576   6.410   3.260   1.849 -0.1017 -0.5398  0.2078
 9461TIP3   OH252577   2.484   5.164   0.464 -0.3557 -0.2464 -0.0330
 9461TIP3    H152578   2.517   5.080   0.496  4.1863  0.2835 -2.5484
 9461TIP3    H252579   2.428   5.141   0.390 -0.3224 -1.0783  0.1914
 9462TIP3   OH252580   0.559   5.766   0.382 -0.6393 -0.5782  0.0158
 9462TIP3    H152581   0.600   5.685   0.412  1.6353  0.3222 -0.4064
 9462TIP3    H252582   0.615   5.796   0.310 -0.3319  2.2155  1.2639
 9463TIP3   OH252583   4.233   2.879   0.207  0.5820 -0.5005 -0.0465
 9463TIP3    H152584   4.230   2.873   0.303 -1.2616 -0.5633 -0.0757
 9463TIP3    H252585   4.306   2.823   0.182 -0.2064 -2.1596  1.2134
 9464TIP3   OH252586   4.175   5.597   1.887 -0.2964 -0.1803  0.2642
 9464TIP3    H152587   4.158   5.505   1.864  0.6164 -0.4387  0.5466
 9464TIP3    H252588   4.266   5.612   1.860 -0.6486  0.8455 -0.3750
 9465TIP3   OH252589   3.301   0.317   1.222 -0.1993  0.0833 -0.0547
 9465TIP3    H152590   3.254   0.372   1.285 -0.4384 -1.3783  1.0948
 9465TIP3    H252591   3.295   0.365   1.139 -1.0993  1.3770  0.7230
 9466TIP3   OH252592   1.753   6.995   7.176 -0.4468  0.0557 -0.0263
 9466TIP3    H152593   1.775   6.932   7.107  0.9789 -0.6589  1.0338
 9466TIP3    H252594   1.755   6.943   7.257 -2.2875  0.8306  0.5761
 9467TIP3   OH252595   5.624   7.221   2.919 -0.0369 -0.3029  0.0722
 9467TIP3    H152596   5.656   7.183   3.001  1.0388 -1.0354 -0.6597
 9467TIP3    H252597   5.680   7.297   2.903 -1.3959  0.9212  0.9013
 9468TIP3   OH252598   6.909   3.282   8.539  0.2667  1.0121  0.0731
 9468TIP3    H152599   6.876   3.243   8.458  0.1732  0.6534  0.2867
 9468TIP3    H252600   6.906   3.212   8.603  1.3836  0.9749  0.1140
 9469TIP3   OH252601   0.554   4.469   8.306 -0.0836 -0.1078 -0.5132
 9469TIP3    H152602   0.597   4.553   8.321  0.1661 -0.3177 -0.0180
 9469TIP3    H252603   0.492   4.485   8.235 -0.4277  0.6387 -0.0538
 9470TIP3   OH252604   4.027   7.005   9.127 -0.6864  0.7191  0.1266
 9470TIP3    H152605   4.011   7.059   9.204  0.2810 -0.7859  1.4642
 9470TIP3    H252606   4.067   6.925   9.162 -0.9411 -0.3551 -1.8697
 9471TIP3   OH252607   0.821   3.881   7.315  0.6257  0.2164 -0.4443
 9471TIP3    H152608   0.735   3.920   7.333 -0.2605 -0.8388 -2.1255
 9471TIP3    H252609   0.865   3.944   7.258 -0.0471 -0.3207 -1.5954
 9472TIP3   OH252610   3.741   1.939   1.307  0.3933 -0.1904  0.1955
 9472TIP3    H152611   3.825   1.900   1.286 -0.0158 -0.0518 -1.9395
 9472TIP3    H252612   3.694   1.943   1.224  0.1738  4.3359  0.2595
 9473TIP3   OH252613   6.481   5.060   0.969 -0.3771 -0.1605  0.4649
 9473TIP3    H152614   6.440   5.140   1.003 -1.0515 -0.6192  0.7508
 9473TIP3    H252615   6.434   5.042   0.888  2.9136  2.3821 -2.2691
 9474TIP3   OH252616   1.184   3.772   0.437  0.0612  0.8374  0.1944
 9474TIP3    H152617   1.130   3.694   0.431 -0.9064  1.4832  0.2799
 9474TIP3    H252618   1.245   3.765   0.364 -0.9515  0.6994 -0.6545
 9475TIP3   OH252619   6.815   5.191   9.772 -0.3715  0.3091  0.5348
 9475TIP3    H152620   6.806   5.211   9.865 -0.4561  0.4527  0.4952
 9475TIP3    H252621   6.775   5.265   9.727  0.7841  0.8526  0.3604
 9476TIP3   OH252622   3.032   6.074   1.931 -0.1377 -0.3165  0.4088
 9476TIP3    H152623   3.052   6.000   1.874  2.2484 -1.4277  2.5264
 9476TIP3    H252624   2.942   6.059   1.959 -0.8794 -0.4921 -1.8315
 9477TIP3   OH252625   4.933   1.598   9.760 -0.0644  0.6359  0.4612
 9477TIP3    H152626   4.968   1.540   9.692  1.0439  0.8485  0.8248
 9477TIP3    H252627   4.974   1.683   9.741 -1.4887  1.2658  0.0699
 9478TIP3   OH252628   6.248   6.900   8.539 -0.2718  0.4573 -0.0397
 9478TIP3    H152629   6.198   6.826   8.573  1.0875 -0.0725  0.8892
 9478TIP3    H252630   6.284   6.942   8.617 -0.2301  1.5222 -0.6192
 9479TIP3   OH252631   1.425   0.170   9.996 -0.2677  0.4696  0.0316
 9479TIP3    H152632   1.383   0.187  10.081 -0.1540  0.6999  0.0422
 9479TIP3    H252633   1.449   0.257   9.964  0.6288  0.3111  0.2445
 9480TIP3   OH252634   2.657   5.410   8.362 -0.4122 -0.5302  0.1643
 9480TIP3    H152635   2.643   5.489   8.310 -0.0386 -1.3221 -1.2094
 9480TIP3    H252636   2.701   5.440   8.441  2.3697  0.3732 -1.5669
 9481TIP3   OH252637   5.139   0.275   8.871  0.8393 -0.5206 -0.3702
 9481TIP3    H152638   5.160   0.213   8.941 -0.1710 -0.4422  0.0175
 9481TIP3    H252639   5.083   0.226   8.811 -0.1672  0.0552  0.0626
 9482TIP3   OH252640   2.393   0.781   8.926  0.2700  0.2852 -0.0923
 9482TIP3    H152641   2.341   0.816   8.998 -1.6520 -0.1433 -1.2114
 9482TIP3    H252642   2.428   0.698   8.959 -0.1105  0.3808  0.5514
 9483TIP3   OH252643   1.682   1.374   9.502  0.4721  0.2137  0.2255
 9483TIP3    H152644   1.740   1.425   9.558  0.6158 -0.6516  0.8882
 9483TIP3    H252645   1.619   1.334   9.562 -0.8148  1.1125 -0.4805
 9484TIP3   OH252646   4.368   1.482   7.464 -0.2064  0.2998  0.3366
 9484TIP3    H152647   4.348   1.410   7.524 -0.1102 -0.6508 -0.7410
 9484TIP3    H252648   4.299   1.478   7.398 -1.0155  2.1127  1.0235
 9485TIP3   OH252649   4.275   5.374   2.059 -0.3152  0.2032  0.4031
 9485TIP3    H152650   4.188   5.337   2.073 -0.4988  0.9430  1.2436
 9485TIP3    H252651   4.271   5.462   2.097  0.6397  0.4412 -0.0193
 9486TIP3   OH252652   4.513   0.204   0.149 -0.3406  0.0870  0.1412
 9486TIP3    H152653   4.490   0.233   0.061 -1.6720 -0.0200  0.4365
 9486TIP3    H252654   4.533   0.111   0.139 -0.2720  0.1266 -0.0903
 9487TIP3   OH252655   6.693   6.802   9.316  0.2650  0.6021  0.5482
 9487TIP3    H152656   6.783   6.815   9.289  0.0312  0.0606 -0.5455
 9487TIP3    H252657   6.655   6.747   9.247 -0.6255  0.0000  1.4912
 9488TIP3   OH252658   0.704   6.251   2.041 -0.4486 -0.1380 -0.5030
 9488TIP3    H152659   0.737   6.175   2.089 -0.2130  0.1729 -0.1726
 9488TIP3    H252660   0.730   6.235   1.950  0.3181 -0.0543 -0.2975
 9489TIP3   OH252661   2.090   1.269   0.166 -0.3831 -0.2538  0.5614
 9489TIP3    H152662   2.085   1.257   0.261 -1.8143  2.1992  0.8908
 9489TIP3    H252663   2.004   1.241   0.134  0.1069 -1.1127 -0.0633
 9490TIP3   OH252664   0.797   3.567   0.325  0.0702  0.1267 -0.6236
 9490TIP3    H152665   0.725   3.620   0.360 -0.4697 -1.3582  0.6387
 9490TIP3    H252666   0.754   3.503   0.269  0.5433 -0.0282 -0.8135
 9491TIP3   OH252667   5.732   3.823   0.166  0.4400 -0.0344 -0.2723
 9491TIP3    H152668   5.664   3.852   0.105 -1.1083  0.1911  1.4738
 9491TIP3    H252669   5.726   3.728   0.165  1.4255 -0.1093 -1.5173
 9492TIP3   OH252670   4.879   6.729   8.315  0.3298  0.0276  0.4196
 9492TIP3    H152671   4.828   6.801   8.278 -1.3900 -0.7078  1.2487
 9492TIP3    H252672   4.850   6.652   8.266  0.5219 -0.4362  1.0297
 9493TIP3   OH252673   3.346   5.222   9.252  0.2847  0.4428 -0.7491
 9493TIP3    H152674   3.265   5.274   9.251  0.0136  0.0784  0.4144
 9493TIP3    H252675   3.315   5.131   9.250  0.7137  0.3083 -1.5330
 9494TIP3   OH252676   0.685   7.068   0.403 -0.2031  0.5327  0.3928
 9494TIP3    H152677   0.718   7.024   0.481  0.2419 -1.3681 -0.7942
 9494TIP3    H252678   0.598   7.030   0.390  0.2012 -0.0585 -0.6780
 9495TIP3   OH252679   5.013   4.194   8.353  0.1271  0.4436 -0.0279
 9495TIP3    H152680   5.067   4.157   8.424 -0.6182  0.3654  0.5067
 9495TIP3    H252681   4.924   4.167   8.374 -0.3597  2.0365  0.0527
 9496TIP3   OH252682   2.315   3.747   3.006 -0.6676  0.0782 -0.5043
 9496TIP3    H152683   2.299   3.725   2.914 -2.5296 -1.0302  0.0388
 9496TIP3    H252684   2.229   3.745   3.047  0.2702 -0.8869  1.5774
 9497TIP3   OH252685   1.026   1.946   0.032  0.5736 -0.5927  0.0313
 9497TIP3    H152686   1.037   1.952   0.127 -0.1011 -0.3144  0.0937
 9497TIP3    H252687   1.053   1.857   0.011 -0.4043 -1.0476  0.6457
 9498TIP3   OH252688   1.239   3.195   2.866  0.2530  0.2508  0.1854
 9498TIP3    H152689   1.199   3.265   2.918 -1.9589  0.5729 -1.7749
 9498TIP3    H252690   1.311   3.237   2.819  0.0107  0.7928  0.2984
 9499TIP3   OH252691   4.859   6.002   1.938 -0.2853  0.2249  0.5281
 9499TIP3    H152692   4.898   5.948   1.869 -0.6125 -0.1513  0.6369
 9499TIP3    H252693   4.902   6.087   1.928 -0.0262  0.0526  0.1274
 9500TIP3   OH252694   6.809   0.473   9.467 -0.2996 -0.2609 -0.4054
 9500TIP3    H152695   6.782   0.509   9.552  0.2312  1.6882 -1.0116
 9500TIP3    H252696   6.892   0.428   9.486  1.4669  2.7930 -0.3489
 9501TIP3   OH252697   5.318   4.757   1.150 -0.3295  0.0000 -0.1996
 9501TIP3    H152698   5.235   4.799   1.129 -0.5821  0.3193  1.2779
 9501TIP3    H252699   5.360   4.817   1.212  0.5208 -0.6658 -0.1140
 9502TIP3   OH252700   2.541   4.812   1.546 -0.0274 -0.0589 -0.3337
 9502TIP3    H152701   2.578   4.791   1.631 -0.3814  0.0135 -0.1599
 9502TIP3    H252702   2.450   4.782   1.551  0.0701 -0.4780 -0.8459
 9503TIP3   OH252703   3.580   5.033   2.372 -0.1334  0.1700 -0.2029
 9503TIP3    H152704   3.510   5.080   2.327 -0.6030  0.2856  0.6233
 9503TIP3    H252705   3.629   5.102   2.419  1.5538  0.3185 -2.0315
 9504TIP3   OH252706   4.863   1.684   8.874 -0.3381 -0.1689 -0.4552
 9504TIP3    H152707   4.774   1.681   8.909  0.0698 -0.1683  0.6188
 9504TIP3    H252708   4.852   1.710   8.783 -1.5090 -1.2343 -0.6367
 9505TIP3   OH252709   2.782   2.532   0.770  0.6105 -0.2088 -0.1589
 9505TIP3    H152710   2.700   2.578   0.784  0.6857  0.1910 -0.9799
 9505TIP3    H252711   2.776   2.454   0.826 -0.5407 -0.4504 -0.5993
 9506TIP3   OH252712   4.932   6.483   7.571 -0.3454 -0.4803  0.0975
 9506TIP3    H152713   4.963   6.393   7.572 -1.7186 -0.9916 -0.5658
 9506TIP3    H252714   5.008   6.535   7.595  0.6966 -1.7502 -0.3397
 9507TIP3   OH252715   1.450   3.360   2.785 -0.1344 -0.5536  0.1455
 9507TIP3    H152716   1.489   3.380   2.870 -0.7302 -1.3795  0.6246
 9507TIP3    H252717   1.525   3.345   2.727  0.2697 -0.5003  0.6553
 9508TIP3   OH252718   4.049   5.409   2.866  0.5531 -0.0257  0.0990
 9508TIP3    H152719   3.999   5.490   2.858  0.8611  0.0758 -1.0503
 9508TIP3    H252720   4.125   5.433   2.918  0.7057  0.4649 -0.3359
 9509TIP3   OH252721   2.660   4.847   9.812  0.6269 -0.2469  0.0226
 9509TIP3    H152722   2.633   4.920   9.867  3.2656 -0.6689  2.0795
 9509TIP3    H252723   2.588   4.784   9.819  0.1999  0.3757  1.7406
 9510TIP3   OH252724   5.899   6.258   7.054 -0.1728 -0.0887 -0.7832
 9510TIP3    H152725   5.834   6.327   7.040 -0.7326  0.2126  2.4871
 9510TIP3    H252726   5.971   6.302   7.099  0.9206 -1.0530 -1.5325
 9511TIP3   OH252727   1.039   0.879   9.079 -0.3007 -0.2859 -0.2827
 9511TIP3    H152728   1.050   0.922   8.995 -0.3267  0.2970  0.0100
 9511TIP3    H252729   0.968   0.816   9.065 -2.4097  1.8552  0.0415
 9512TIP3   OH252730   0.165   1.074   1.133 -0.4621 -0.6467  0.1857
 9512TIP3    H152731   0.176   0.988   1.091  0.4787 -1.7764  2.5773
 9512TIP3    H252732   0.089   1.063   1.190 -0.7891  0.3640 -0.0360
 9513TIP3   OH252733   2.970   2.473   1.420  0.0879 -0.4688  0.3695
 9513TIP3    H152734   2.880   2.445   1.438 -0.5766  1.2427 -0.1087
 9513TIP3    H252735   2.976   2.562   1.457  1.2475 -0.1408 -0.5367
 9514TIP3   OH252736   2.332   5.124   8.642 -0.3470 -0.1129  0.0589
 9514TIP3    H152737   2.413   5.168   8.615  0.6805 -1.1304  1.3488
 9514TIP3    H252738   2.301   5.082   8.562  0.8550 -0.3817 -0.2986
 9515TIP3   OH252739   3.004   0.183   6.459 -0.0062 -0.4735 -0.0930
 9515TIP3    H152740   2.997   0.118   6.389  1.7730 -0.6986 -0.1101
 9515TIP3    H252741   3.012   0.131   6.539 -0.4649 -0.2342  0.1111
 9516TIP3   OH252742   3.912   2.502   9.391  0.0314 -0.2789  0.2774
 9516TIP3    H152743   3.832   2.465   9.428 -0.1586 -0.8053 -0.6280
 9516TIP3    H252744   3.978   2.488   9.459 -0.4343 -0.6723  0.6648
 9517TIP3   OH252745   4.995   1.329   0.912  0.1465  0.2614 -0.6175
 9517TIP3    H152746   4.920   1.271   0.902  0.9122 -0.6931 -0.8880
 9517TIP3    H252747   4.998   1.379   0.831 -0.0716  0.1686 -0.6827
 9518TIP3   OH252748   3.590   2.165   7.894 -0.3257 -0.0818  0.4507
 9518TIP3    H152749   3.620   2.104   7.961  2.6600 -0.2146 -0.8903
 9518TIP3    H252750   3.617   2.125   7.812 -1.0597  1.6219 -0.6559
 9519TIP3   OH252751   3.831   6.907   7.323 -0.5605  0.4441  0.0244
 9519TIP3    H152752   3.887   6.981   7.345 -0.3937  0.4045 -0.2629
 9519TIP3    H252753   3.847   6.891   7.230  0.5732 -0.9386  0.4301
 9520TIP3   OH252754   4.081   3.898   7.351 -0.2668  0.3152 -0.0467
 9520TIP3    H152755   4.118   3.810   7.357 -0.4877  0.0943 -1.5951
 9520TIP3    H252756   4.121   3.946   7.424  0.1745 -0.9402  0.5658
 9521TIP3   OH252757   4.603   5.199   7.988  0.1697  0.0538  0.1706
 9521TIP3    H152758   4.540   5.130   8.006 -0.4597  0.3910 -0.6565
 9521TIP3    H252759   4.688   5.155   7.989 -0.0221 -0.3258  1.6957
 9522TIP3   OH252760   1.548   7.083   1.790 -0.3461 -0.2750 -0.2681
 9522TIP3    H152761   1.515   7.010   1.843  1.3311 -1.4035 -0.6935
 9522TIP3    H252762   1.597   7.137   1.851 -0.3342 -0.3222 -0.2359
 9523TIP3   OH252763   5.586   6.079   7.070 -0.4398  0.2042  0.4400
 9523TIP3    H152764   5.584   6.033   6.987 -1.4095 -1.2796  1.2412
 9523TIP3    H252765   5.541   6.162   7.053  0.3462  0.4000 -0.7607
 9524TIP3   OH252766   4.224   6.088   9.861  0.1769  0.1684 -0.0179
 9524TIP3    H152767   4.299   6.147   9.846 -0.2977  0.8298  0.1648
 9524TIP3    H252768   4.207   6.048   9.776 -0.7467  1.8023 -0.6509
 9525TIP3   OH252769   0.866   6.750   0.370 -0.0455 -0.2658 -0.1393
 9525TIP3    H152770   0.873   6.841   0.340 -1.8624  0.5191  1.6240
 9525TIP3    H252771   0.952   6.730   0.405  0.1420  1.1000  0.2441
 9526TIP3   OH252772   4.081   4.670   1.388 -0.7832 -0.5350  0.3769
 9526TIP3    H152773   4.142   4.741   1.368 -1.2930  0.2704  1.5773
 9526TIP3    H252774   4.131   4.610   1.444 -0.1847 -1.4562 -1.0497
 9527TIP3   OH252775   6.267   3.553   8.866 -0.2546 -0.8723  0.0399
 9527TIP3    H152776   6.305   3.466   8.878  1.9754  0.1038  0.5760
 9527TIP3    H252777   6.285   3.574   8.775  1.1714 -0.1725  0.4413
 9528TIP3   OH252778   1.120   6.751   0.865 -0.2665 -0.1480  0.7640
 9528TIP3    H152779   1.139   6.658   0.879  0.1824  0.0047  1.2097
 9528TIP3    H252780   1.131   6.791   0.952 -3.1844 -0.1190  1.2256
 9529TIP3   OH252781   3.250   0.496   7.872 -0.2299  0.1474  0.8482
 9529TIP3    H152782   3.256   0.570   7.932 -0.6876  0.3402  0.6558
 9529TIP3    H252783   3.157   0.478   7.865 -0.1084 -0.6062  1.0870
 9530TIP3   OH252784   6.182   3.620   1.316  0.4223  0.3337  0.2171
 9530TIP3    H152785   6.121   3.646   1.247 -1.1372 -0.3818  1.2596
 9530TIP3    H252786   6.190   3.525   1.306  1.0738  0.3793  0.3158
 9531TIP3   OH252787   3.801   5.122   1.178 -0.1167  0.1826  0.4030
 9531TIP3    H152788   3.814   5.107   1.084 -0.4047  2.6500 -0.1063
 9531TIP3    H252789   3.707   5.111   1.191  0.2660 -3.6068  1.2188
 9532TIP3   OH252790   6.830   1.736   8.256  0.2799  0.3811 -0.1443
 9532TIP3    H152791   6.798   1.708   8.170  0.2518  1.0920 -0.3789
 9532TIP3    H252792   6.832   1.656   8.309  2.1628 -0.4240 -1.3606
 9533TIP3   OH252793   0.963   5.304   9.898  0.5276 -0.3414 -0.6466
 9533TIP3    H152794   1.002   5.235   9.951  0.8134  0.1319 -0.2303
 9533TIP3    H252795   0.955   5.266   9.811 -1.6230 -1.7716  0.0868
 9534TIP3   OH252796   4.715   1.019   8.403 -0.0097 -0.5863  0.5359
 9534TIP3    H152797   4.789   0.960   8.411 -0.8819 -1.5995  1.6075
 9534TIP3    H252798   4.664   0.985   8.330  1.2122  0.9103 -1.1103
 9535TIP3   OH252799   1.022   3.554   0.487 -0.2771  0.8133  0.4131
 9535TIP3    H152800   1.025   3.488   0.557 -0.0018 -1.3789 -1.5336
 9535TIP3    H252801   0.937   3.540   0.445  0.2633  0.8966 -0.7406
 9536TIP3   OH252802   4.108   4.086   7.138  0.3639  0.2053 -0.4955
 9536TIP3    H152803   4.098   4.038   7.056 -0.1947  0.0673 -0.3471
 9536TIP3    H252804   4.053   4.039   7.201  0.3531  0.6348 -0.1787
 9537TIP3   OH252805   5.140   0.721   0.776 -0.5935  0.6338 -0.0350
 9537TIP3    H152806   5.061   0.727   0.723 -0.9396 -3.5495 -0.2658
 9537TIP3    H252807   5.211   0.706   0.713  0.0172  1.7263  0.3556
 9538TIP3   OH252808   5.309   5.719   7.073  0.0335  0.5428  0.3090
 9538TIP3    H152809   5.364   5.737   7.150 -0.2524  1.1502  0.3708
 9538TIP3    H252810   5.363   5.744   6.998  0.3604 -0.1661  0.2960
 9539TIP3   OH252811   5.155   1.731   8.244  0.0278  0.3316  0.1150
 9539TIP3    H152812   5.131   1.794   8.177 -0.4546  2.9512  2.5299
 9539TIP3    H252813   5.105   1.759   8.321  1.9315 -1.3330  2.0867
 9540TIP3   OH252814   5.516   5.935   0.234  0.1145 -0.0434 -0.0288
 9540TIP3    H152815   5.512   5.929   0.139 -1.4051  0.4677 -0.0335
 9540TIP3    H252816   5.445   5.878   0.264 -1.2661  1.9168  0.6504
 9541TIP3   OH252817   3.857   7.003   8.903  0.4193  0.2236 -0.0225
 9541TIP3    H152818   3.897   7.019   8.988 -1.0229  0.5568  0.6373
 9541TIP3    H252819   3.844   6.909   8.899 -1.1557  0.3566  0.9625
 9542TIP3   OH252820   1.072   0.564   2.848  0.4821  0.2726 -0.2856
 9542TIP3    H152821   1.103   0.610   2.926  0.8945 -0.3913 -0.0464
 9542TIP3    H252822   1.003   0.620   2.813  0.7293  0.8924  0.1944
 9543TIP3   OH252823   4.732   4.489   7.201 -0.1101  0.0007  0.4734
 9543TIP3    H152824   4.690   4.431   7.138 -0.5459  1.4308 -0.6076
 9543TIP3    H252825   4.781   4.551   7.148 -0.4609  1.2299  1.5326
 9544TIP3   OH252826   3.931   5.434   8.178  0.0008 -0.1327  0.4244
 9544TIP3    H152827   3.848   5.451   8.222 -0.3471 -1.4466  0.2941
 9544TIP3    H252828   3.962   5.521   8.152 -1.9863  0.2877 -0.6961
 9545TIP3   OH252829   2.599   1.256   9.617  0.4968 -0.0227 -0.0888
 9545TIP3    H152830   2.562   1.234   9.532  0.0180 -0.2441  0.1719
 9545TIP3    H252831   2.548   1.332   9.646  1.9098  1.2711 -0.8321
 9546TIP3   OH252832   4.104   0.680   7.279  0.3808  0.2927 -0.2568
 9546TIP3    H152833   4.036   0.736   7.317 -0.7720 -0.9675 -0.3821
 9546TIP3    H252834   4.069   0.592   7.287  1.0045 -0.2020 -2.3912
 9547TIP3   OH252835   2.784   1.433   6.884  0.1213  0.7299  0.0079
 9547TIP3    H152836   2.746   1.352   6.848 -0.0300  0.6157  0.4204
 9547TIP3    H252837   2.710   1.478   6.925  0.3596  0.6904  0.4843
 9548TIP3   OH252838   5.408   5.588   9.499  0.3985 -0.3749 -0.0489
 9548TIP3    H152839   5.400   5.621   9.410  1.4705  0.1190  0.0204
 9548TIP3    H252840   5.482   5.636   9.536  1.4395 -2.1831  0.3648
 9549TIP3   OH252841   4.870   0.743   1.224 -0.3977  0.6399 -0.5096
 9549TIP3    H152842   4.955   0.788   1.224 -0.5227  0.9447  1.1293
 9549TIP3    H252843   4.877   0.677   1.156  1.1287  0.7209 -0.4556
 9550TIP3   OH252844   6.558   6.619   7.931  0.1231  0.1984 -0.0545
 9550TIP3    H152845   6.523   6.702   7.961  0.3774 -0.1645  1.2882
 9550TIP3    H252846   6.625   6.595   7.995 -0.8502 -1.6699  0.3487
 9551TIP3   OH252847   1.567   2.611   9.403 -0.1082 -0.1514 -0.1473
 9551TIP3    H152848   1.652   2.596   9.361  0.3300  2.2782 -0.2381
 9551TIP3    H252849   1.547   2.703   9.385 -2.3966 -0.4511  0.5727
 9552TIP3   OH252850   5.822   4.990   0.354 -0.0684  0.2666 -0.3217
 9552TIP3    H152851   5.744   4.945   0.320 -0.7874  1.7632 -0.7464
 9552TIP3    H252852   5.892   4.926   0.346 -1.3577 -1.3690  0.6668
 9553TIP3   OH252853   5.091   1.799   8.998 -0.5565 -0.1546  0.4477
 9553TIP3    H152854   5.144   1.724   8.968  0.8962  1.0091 -0.0336
 9553TIP3    H252855   5.002   1.777   8.972 -0.4947 -2.5362  1.9392
 9554TIP3   OH252856   4.605   2.033   7.250 -0.1992  0.3594  0.1175
 9554TIP3    H152857   4.656   2.032   7.169 -1.2761  0.3087 -0.5883
 9554TIP3    H252858   4.629   2.114   7.294  1.7628 -0.4531  0.6786
 9555TIP3   OH252859   1.828   6.649   1.014 -0.4987  0.3111  0.0769
 9555TIP3    H152860   1.895   6.688   1.070 -1.8888  0.8123  1.4553
 9555TIP3    H252861   1.759   6.715   1.009 -1.5182 -0.7361 -0.1307
 9556TIP3   OH252862   3.221   0.638   8.114  0.6099  0.2335 -0.1755
 9556TIP3    H152863   3.245   0.585   8.191  0.2970  0.2066 -0.0941
 9556TIP3    H252864   3.288   0.706   8.110  0.8114  0.0415 -0.0679
 9557TIP3   OH252865   2.459   6.444   6.260  0.2295  0.5726  0.3715
 9557TIP3    H152866   2.554   6.450   6.253  0.2828 -0.8175 -0.6708
 9557TIP3    H252867   2.442   6.350   6.270 -1.0268  0.8297  0.8476
 9558TIP3   OH252868   1.226   2.736   1.318  0.4617  0.3383 -0.2409
 9558TIP3    H152869   1.213   2.822   1.279 -1.9428 -0.7226 -2.0179
 9558TIP3    H252870   1.296   2.696   1.265 -0.3274  0.2192 -1.2180
 9559TIP3   OH252871   4.253   4.544   2.360  0.0968  0.1758 -0.2061
 9559TIP3    H152872   4.195   4.523   2.433  1.6345  0.4787  1.1542
 9559TIP3    H252873   4.341   4.545   2.398  0.8174  1.7653 -1.7567
 9560TIP3   OH252874   3.067   5.933   0.426 -0.5154 -0.1497 -0.2692
 9560TIP3    H152875   3.112   5.877   0.489  0.2717  1.2114  0.4321
 9560TIP3    H252876   3.027   5.873   0.364 -0.2708 -1.4951  0.8307
 9561TIP3   OH252877   7.266   5.432   7.327  0.0544  0.6969 -0.1950
 9561TIP3    H152878   7.262   5.354   7.272 -1.0068 -0.1839  1.0637
 9561TIP3    H252879   7.304   5.499   7.271 -0.5246 -0.2905 -1.8358
 9562TIP3   OH252880   3.973   4.977   2.255 -0.3681 -0.0693 -0.0586
 9562TIP3    H152881   4.054   4.929   2.270 -0.9892 -0.5442  2.1547
 9562TIP3    H252882   3.962   5.031   2.333 -1.9125  0.3702 -0.5436
 9563TIP3   OH252883   5.392   3.901   6.947  0.0961 -0.2078 -0.4152
 9563TIP3    H152884   5.409   3.822   6.998 -0.9818  0.6712  1.3870
 9563TIP3    H252885   5.477   3.923   6.909  1.2697 -0.2755  1.9612
 9564TIP3   OH252886   0.597   4.158   1.070  0.3987  0.0497  0.4635
 9564TIP3    H152887   0.543   4.112   1.005  2.5163 -1.4137 -0.3558
 9564TIP3    H252888   0.678   4.107   1.075  2.8765  3.5233 -0.3817
 9565TIP3   OH252889   4.188   1.651   1.919  0.1741 -0.2437 -0.1095
 9565TIP3    H152890   4.221   1.715   1.982 -0.2093  0.3636 -0.5178
 9565TIP3    H252891   4.185   1.698   1.835  0.2549 -0.9083 -0.4939
 9566TIP3   OH252892   6.733   7.170   8.278 -0.7449 -1.0326 -0.5435
 9566TIP3    H152893   6.747   7.152   8.371 -1.0841 -1.7290 -0.6167
 9566TIP3    H252894   6.822   7.175   8.241 -0.5755  0.3924  0.0060
 9567TIP3   OH252895   4.574   4.280   2.427  0.6896  0.2355 -0.1226
 9567TIP3    H152896   4.532   4.246   2.506 -0.6005  0.5400 -0.6566
 9567TIP3    H252897   4.548   4.372   2.425 -2.4423 -0.5047 -2.7867
 9568TIP3   OH252898   1.079   0.324   8.567 -0.2305  0.3849  0.1478
 9568TIP3    H152899   1.052   0.356   8.652 -0.3967 -0.3586  0.3843
 9568TIP3    H252900   1.084   0.229   8.577 -0.0509  0.3015 -0.6095
 9569TIP3   OH252901   7.163   0.977   9.081  0.5802  0.2252  0.2653
 9569TIP3    H152902   7.091   1.028   9.117  1.8102  1.7279  0.7128
 9569TIP3    H252903   7.211   1.038   9.026  0.6509 -1.1572 -1.2818
 9570TIP3   OH252904   2.567   4.185   7.999  0.0649  0.0235 -0.5469
 9570TIP3    H152905   2.581   4.226   7.914 -1.2704 -1.9910 -1.8304
 9570TIP3    H252906   2.483   4.220   8.029  0.3146  0.3852 -0.2601
 9571TIP3   OH252907   0.252   6.536   0.195 -0.1830  0.4444 -0.1872
 9571TIP3    H152908   0.181   6.559   0.135 -1.4292  0.5444  1.2727
 9571TIP3    H252909   0.219   6.560   0.281  1.7823  0.8200  0.5029
 9572TIP3   OH252910   5.957   4.711   0.346 -0.0136 -0.3557  0.1761
 9572TIP3    H152911   5.916   4.668   0.421  1.0842 -0.7392  0.5764
 9572TIP3    H252912   6.047   4.678   0.346  0.1835  0.1547 -0.9165
 9573TIP3   OH252913   7.276   0.374   7.302  0.0766 -0.1306  0.0380
 9573TIP3    H152914   7.245   0.306   7.242  0.0235  0.4770 -0.6428
 9573TIP3    H252915   7.204   0.438   7.305 -0.6371 -0.9570  2.0862
 9574TIP3   OH252916   4.442   5.578   2.652  0.3948 -0.3911  0.2594
 9574TIP3    H152917   4.492   5.526   2.589  0.7259  0.2364 -0.0103
 9574TIP3    H252918   4.447   5.668   2.618 -2.6276 -0.5438 -0.9058
 9575TIP3   OH252919   2.077   6.461   1.926 -0.6193  0.5987  0.0619
 9575TIP3    H152920   2.006   6.433   1.984 -0.7664  0.6246 -0.1020
 9575TIP3    H252921   2.114   6.379   1.893 -2.0423  0.5455 -1.6179
 9576TIP3   OH252922   5.531   3.030   7.807  0.3842 -0.4951 -0.2400
 9576TIP3    H152923   5.611   2.981   7.827  0.9465  0.7020  0.5438
 9576TIP3    H252924   5.561   3.112   7.768 -0.5082 -0.4130 -0.7988
 9577TIP3   OH252925   6.098   7.139   8.452 -0.2273 -0.0833 -0.0700
 9577TIP3    H152926   6.136   7.068   8.504 -0.0237 -0.9355 -1.3339
 9577TIP3    H252927   6.167   7.163   8.390 -1.5074 -1.3230 -2.0888
 9578TIP3   OH252928   3.378   6.868   2.378  0.0716 -0.2641  0.4897
 9578TIP3    H152929   3.322   6.944   2.397  1.2757  0.6710  0.4424
 9578TIP3    H252930   3.331   6.794   2.415 -0.3170  0.7413  2.1270
 9579TIP3   OH252931   5.403   1.677   7.089  0.0104 -0.0419 -0.1238
 9579TIP3    H152932   5.478   1.620   7.076  0.1335  0.2005 -0.4960
 9579TIP3    H252933   5.334   1.620   7.123  0.0445 -0.4682 -0.7646
 9580TIP3   OH252934   1.676   6.116   9.619  0.4198 -0.4723 -0.5678
 9580TIP3    H152935   1.635   6.202   9.626  1.8462  0.2196 -0.3923
 9580TIP3    H252936   1.666   6.092   9.527  0.5775  0.1704 -0.7569
 9581TIP3   OH252937   7.265   1.285   2.867  0.4166  0.0722 -0.2582
 9581TIP3    H152938   7.229   1.227   2.800 -1.0101  0.3251  0.2748
 9581TIP3    H252939   7.243   1.373   2.836  1.3324  0.2862 -0.3412
 9582TIP3   OH252940   4.142   7.081   8.499  0.0386 -0.3256 -0.6142
 9582TIP3    H152941   4.183   7.149   8.446  0.6022 -0.2790 -0.1341
 9582TIP3    H252942   4.179   7.093   8.587 -1.3212 -0.0179 -0.0490
 9583TIP3   OH252943   1.440   2.380   0.391  0.2245  0.3770  0.2662
 9583TIP3    H152944   1.406   2.468   0.408 -0.5475 -0.0059  0.7898
 9583TIP3    H252945   1.456   2.379   0.297  1.0789  1.3525  0.3772
 9584TIP3   OH252946   2.976   3.281   9.061  0.4653 -0.0079 -0.4646
 9584TIP3    H152947   2.906   3.260   9.000 -0.4972  0.6751  0.3737
 9584TIP3    H252948   3.025   3.200   9.071 -1.6240 -1.1923  0.7350
 9585TIP3   OH252949   1.502   6.074   8.486  0.3435 -0.0638  0.3909
 9585TIP3    H152950   1.552   6.038   8.559 -0.4292  1.7267  1.8895
 9585TIP3    H252951   1.561   6.136   8.443 -0.0676  0.9484  1.2472
 9586TIP3   OH252952   2.177   0.198   8.347 -0.2821  0.3249  0.1479
 9586TIP3    H152953   2.237   0.157   8.410 -0.4203 -1.0459 -0.5837
 9586TIP3    H252954   2.102   0.226   8.400 -0.9326 -1.8705  0.4664
 9587TIP3   OH252955   2.811   2.777   9.407  0.3248  0.4637  0.5955
 9587TIP3    H152956   2.748   2.742   9.343  1.6686  1.3874 -1.3085
 9587TIP3    H252957   2.863   2.701   9.432  0.1916  0.1946  0.0880
 9588TIP3   OH252958   5.302   6.746   7.591  0.0040  0.2584 -0.5782
 9588TIP3    H152959   5.326   6.804   7.664 -1.8607 -0.1571  0.4269
 9588TIP3    H252960   5.378   6.688   7.581  0.4551  0.5610  0.8261
 9589TIP3   OH252961   3.879   5.242   1.436  0.6161 -0.0782 -0.1071
 9589TIP3    H152962   3.835   5.233   1.351 -2.0535  1.3970  0.9813
 9589TIP3    H252963   3.873   5.336   1.456  2.6887 -0.1215  1.0001
 9590TIP3   OH252964   3.990   2.100   1.139 -0.0343  0.2294  0.2284
 9590TIP3    H152965   3.990   2.008   1.167  0.2262 -0.5168 -2.0096
 9590TIP3    H252966   4.043   2.101   1.059  0.0631  2.3730  0.2542
 9591TIP3   OH252967   4.682   4.028   2.564  0.3104  0.2824 -0.0719
 9591TIP3    H152968   4.685   4.102   2.625  1.4116 -0.7558  1.2027
 9591TIP3    H252969   4.591   4.025   2.534 -0.1153  1.1873  1.0653
 9592TIP3   OH252970   1.082   3.586   0.170 -0.3018 -0.8510  0.3343
 9592TIP3    H152971   1.140   3.550   0.237 -0.7383  2.3886  2.6576
 9592TIP3    H252972   0.996   3.591   0.213 -0.8423  0.3590 -0.8054
 9593TIP3   OH252973   3.414   3.674   2.221 -0.2462 -0.0514  0.5019
 9593TIP3    H152974   3.355   3.675   2.296 -1.2498 -0.3946 -0.2616
 9593TIP3    H252975   3.496   3.641   2.256 -0.7449 -0.3496  1.4209
 9594TIP3   OH252976   3.981   5.768   9.393 -0.1052 -0.3692 -0.1108
 9594TIP3    H152977   3.929   5.704   9.345 -0.7289 -1.1035  1.4828
 9594TIP3    H252978   3.918   5.817   9.445  0.5106  0.7099 -0.3421
 9595TIP3   OH252979   2.636   6.159   2.755  0.2347  0.0817 -0.2917
 9595TIP3    H152980   2.707   6.124   2.809 -0.6057 -0.2033  0.6748
 9595TIP3    H252981   2.572   6.087   2.749 -0.2565  0.5347 -0.5953
 9596TIP3   OH252982   5.812   4.930   1.833 -0.1082 -0.4444  0.3409
 9596TIP3    H152983   5.805   4.875   1.911 -0.7178 -2.7820 -1.2488
 9596TIP3    H252984   5.906   4.936   1.815  0.5231  3.6042  3.3933
 9597TIP3   OH252985   2.379   2.000   9.359 -0.0661  0.0233  0.3207
 9597TIP3    H152986   2.435   2.011   9.282  2.0605  0.5316  1.8553
 9597TIP3    H252987   2.386   1.907   9.380 -0.4689 -0.0717  0.0460
 9598TIP3   OH252988   5.841   3.565   9.341 -0.4050 -0.5260 -0.4850
 9598TIP3    H152989   5.821   3.655   9.318  0.9445 -0.3687 -1.1149
 9598TIP3    H252990   5.769   3.514   9.302 -0.2516  0.1177 -1.6438
 9599TIP3   OH252991   2.963   1.848   0.184 -0.0446 -0.1993  0.0986
 9599TIP3    H152992   2.973   1.939   0.154  0.6697 -0.1786  0.3815
 9599TIP3    H252993   3.035   1.801   0.142 -1.9583 -1.2462 -2.2937
 9600TIP3   OH252994   0.141   3.209   0.245 -0.1140 -0.6664 -0.4657
 9600TIP3    H152995   0.110   3.227   0.334 -0.2094  1.7723 -0.9249
 9600TIP3    H252996   0.068   3.166   0.202 -0.7706 -0.1280  0.0893
 9601TIP3   OH252997   4.353   1.424   8.986 -0.1174  0.1374 -0.4273
 9601TIP3    H152998   4.305   1.353   9.027 -0.1141  0.1413 -0.4165
 9601TIP3    H252999   4.342   1.499   9.045  1.3422 -0.3086  0.4686
 9602TIP3   OH253000   6.011   2.800   8.493  0.0430 -0.0444 -0.0379
 9602TIP3    H153001   5.962   2.721   8.469 -1.6005  0.9489 -0.1132
 9602TIP3    H253002   6.078   2.807   8.426 -2.5342  0.9668 -2.7339
 9603TIP3   OH253003   1.059   7.141   1.021 -0.1357  0.0511  0.0357
 9603TIP3    H153004   1.030   7.050   1.029  0.4349 -0.1082  0.2932
 9603TIP3    H253005   0.987   7.192   1.058 -0.1924 -0.3299  0.4622
 9604TIP3   OH253006   0.079   6.541   9.544 -0.2667 -0.1248  0.4526
 9604TIP3    H153007   0.019   6.563   9.473  2.0813 -0.4600 -1.7859
 9604TIP3    H253008   0.070   6.446   9.555 -0.5182 -0.0965  0.4940
 9605TIP3   OH253009   0.433   5.730   1.239 -0.7802  0.2576  0.5108
 9605TIP3    H153010   0.398   5.816   1.219 -2.0157 -0.0207  1.3330
 9605TIP3    H253011   0.401   5.674   1.169  0.2330  0.4900 -0.1627
 9606TIP3   OH253012   0.924   2.014   0.886 -0.0091  0.3564 -0.1225
 9606TIP3    H153013   0.869   1.952   0.934  0.3459  0.0181 -0.1405
 9606TIP3    H253014   1.013   1.990   0.910  0.1201  1.2901  0.3745
 9607TIP3   OH253015   0.214   5.326   1.640 -0.3740 -0.0217  0.0243
 9607TIP3    H153016   0.305   5.316   1.611 -0.8278 -2.3274 -0.7660
 9607TIP3    H253017   0.179   5.394   1.582  0.1256 -1.0368 -1.5513
 9608TIP3   OH253018   4.900   2.626   9.146 -0.1643  0.1287  0.3861
 9608TIP3    H153019   4.816   2.579   9.143 -0.2735  0.1451  2.0159
 9608TIP3    H253020   4.876   2.717   9.166  0.2265  0.0565  1.2667
 9609TIP3   OH253021   3.323   6.591   7.074  0.2086  0.5632  0.9941
 9609TIP3    H153022   3.387   6.586   7.002  1.4738 -0.9329  2.1501
 9609TIP3    H253023   3.245   6.628   7.034  0.8928 -0.1602 -1.1486
 9610TIP3   OH253024   6.979   6.612   8.521 -0.0117  0.3549 -0.0465
 9610TIP3    H153025   6.969   6.593   8.427  0.3193 -1.4963  0.2455
 9610TIP3    H253026   7.054   6.559   8.548  1.5371  2.8048  0.7876
 9611TIP3   OH253027   5.369   2.661   1.376 -0.5926 -0.2148  0.0314
 9611TIP3    H153028   5.369   2.725   1.306 -1.4165  0.2474  0.4378
 9611TIP3    H253029   5.290   2.609   1.362 -2.6704  1.9901  2.4354
 9612TIP3   OH253030   0.135   2.148   7.629  0.2015  0.1008 -0.1668
 9612TIP3    H153031   0.111   2.070   7.579 -1.0257  1.3819 -1.6847
 9612TIP3    H253032   0.224   2.168   7.600  0.2105 -0.2585 -0.3998
 9613TIP3   OH253033   0.175   6.221   9.328 -0.7812 -0.3667 -0.0309
 9613TIP3    H153034   0.156   6.174   9.247 -1.3553  0.2261 -0.2514
 9613TIP3    H253035   0.254   6.271   9.309  0.1322 -1.6170  0.3710
 9614TIP3   OH253036   3.365   0.261   7.923  0.0755 -0.4443 -0.2673
 9614TIP3    H153037   3.310   0.339   7.925  0.6843 -0.0207  1.0915
 9614TIP3    H253038   3.415   0.269   7.841 -0.2843  0.2932 -0.4222
 9615TIP3   OH253039   5.054   2.877   0.814 -0.0130  0.1096  0.3916
 9615TIP3    H153040   5.012   2.957   0.847 -1.5008 -0.9653  1.2706
 9615TIP3    H253041   5.089   2.834   0.893 -1.0583 -1.0691  0.2666
 9616TIP3   OH253042   7.000   4.412   1.096 -0.3773  0.0564  0.2977
 9616TIP3    H153043   6.911   4.434   1.068  0.1914  0.5486 -1.1842
 9616TIP3    H253044   7.057   4.447   1.027  0.9339 -0.7658  0.9229
 9617TIP3   OH253045   2.262   3.449   7.634  0.3822  0.1674 -0.0060
 9617TIP3    H153046   2.336   3.490   7.589  0.0477  1.8347  0.8489
 9617TIP3    H253047   2.217   3.399   7.566  5.0464 -5.4110  0.3373
 9618TIP3   OH253048   1.119   2.219   7.811  0.4505 -0.2382  0.0345
 9618TIP3    H153049   1.033   2.252   7.783  0.8297  1.3658  0.6524
 9618TIP3    H253050   1.148   2.164   7.738 -1.2492 -1.1366 -0.0286
 9619TIP3   OH253051   4.263   4.969   0.157  0.3932  0.4255  0.3105
 9619TIP3    H153052   4.173   4.998   0.140  0.0473 -0.5650  0.3283
 9619TIP3    H253053   4.276   4.896   0.097  0.9558  0.1524  0.7532
 9620TIP3   OH253054   4.990   2.276   9.040 -0.4037 -0.3289  0.0420
 9620TIP3    H153055   5.062   2.217   9.061 -0.5302 -0.4631  0.1067
 9620TIP3    H253056   4.919   2.247   9.098 -0.5035 -0.1909 -0.0132
 9621TIP3   OH253057   5.772   6.727   8.548  0.2167  0.4099  0.4409
 9621TIP3    H153058   5.681   6.755   8.556  0.4895  1.1632  1.0244
 9621TIP3    H253059   5.808   6.739   8.636  0.9447  0.3781  0.1485
 9622TIP3   OH253060   3.531   2.139   7.461  0.1444  0.4576 -0.0502
 9622TIP3    H153061   3.579   2.098   7.532  1.3908  1.4772 -0.2668
 9622TIP3    H253062   3.597   2.158   7.395 -0.5389  1.8808 -0.3736
 9623TIP3   OH253063   6.934   5.065   9.391 -0.2047 -0.1364 -0.5873
 9623TIP3    H153064   6.921   5.025   9.305 -0.9436 -1.5228  0.1356
 9623TIP3    H253065   6.939   4.991   9.451 -1.8762  0.8334  0.8447
 9624TIP3   OH253066   3.559   6.085   8.137 -0.1918 -0.0225  0.6047
 9624TIP3    H153067   3.523   6.108   8.052 -0.9967 -2.6239  0.1596
 9624TIP3    H253068   3.487   6.041   8.183  0.2503  1.2090  2.6089
 9625TIP3   OH253069   7.128   6.788   7.823 -0.0842  0.3211 -0.0879
 9625TIP3    H153070   7.203   6.776   7.882 -0.8015 -0.4266  0.7078
 9625TIP3    H253071   7.112   6.701   7.787 -0.6146  0.4588 -0.1888
 9626TIP3   OH253072   5.007   6.718   0.420  0.1386 -0.4128  0.8735
 9626TIP3    H153073   5.102   6.730   0.422 -0.0048  0.8995  1.2558
 9626TIP3    H253074   4.993   6.637   0.371  1.3501  0.7359 -1.5136
 9627TIP3   OH253075   7.269   4.174   0.123 -0.0561  0.2834  0.3318
 9627TIP3    H153076   7.291   4.082   0.136 -0.0826 -0.1252 -2.0810
 9627TIP3    H253077   7.173   4.176   0.126 -0.0841  0.0965 -0.2929
 9628TIP3   OH253078   4.480   7.226   0.270  0.6469 -0.3799  0.0058
 9628TIP3    H153079   4.394   7.216   0.227  0.7496 -0.9072 -0.0800
 9628TIP3    H253080   4.521   7.140   0.261  0.3501 -0.7736  1.8660
 9629TIP3   OH253081   3.142   2.319   9.363  0.4342  0.8584 -0.9452
 9629TIP3    H153082   3.199   2.391   9.388  0.2596  0.7121 -0.1050
 9629TIP3    H253083   3.054   2.357   9.364  0.5778  1.4053 -3.4055
 9630TIP3   OH253084   2.185   2.306   0.298 -0.7308 -0.0775 -0.2084
 9630TIP3    H153085   2.130   2.229   0.315 -1.8912 -0.1058 -3.3719
 9630TIP3    H253086   2.267   2.271   0.266  0.0731  0.0227  1.6237
 9631TIP3   OH253087   6.095   1.473   8.632  1.1360  0.0373 -0.4666
 9631TIP3    H153088   6.055   1.480   8.546 -0.3940 -0.1030  0.2115
 9631TIP3    H253089   6.145   1.554   8.641  2.3642 -0.5073 -1.9722
 9632TIP3   OH253090   1.308   1.564   0.234 -0.4199 -0.0907 -0.0544
 9632TIP3    H153091   1.389   1.545   0.281 -0.7550  1.3013  1.1711
 9632TIP3    H253092   1.281   1.480   0.197  1.1732 -0.7308  0.1375
 9633TIP3   OH253093   2.231   2.144   1.148 -0.6330 -0.1028 -0.2161
 9633TIP3    H153094   2.264   2.101   1.227 -1.3226  0.3225  0.3103
 9633TIP3    H253095   2.270   2.094   1.076 -0.2740 -0.7122  0.3868
 9634TIP3   OH253096   5.347   7.257   8.479 -0.7466  0.5587 -0.3631
 9634TIP3    H153097   5.329   7.346   8.511 -1.1026  0.1871  0.4936
 9634TIP3    H253098   5.299   7.200   8.539 -1.2673 -0.1763 -1.4624
 9635TIP3   OH253099   0.621   0.900   9.372  0.0078  0.1896  0.1369
 9635TIP3    H153100   0.706   0.899   9.327  1.2197  0.5515  2.3223
 9635TIP3    H253101   0.610   0.810   9.404  0.1804  0.4513  0.9443
 9636TIP3   OH253102   5.765   5.897   2.003 -0.6004 -0.8529 -0.3715
 9636TIP3    H153103   5.828   5.968   2.009 -1.1528 -0.3734 -0.1615
 9636TIP3    H253104   5.769   5.869   1.912  0.1311 -1.0312 -0.2873
 9637TIP3   OH253105   5.157   4.728   8.453 -0.7559  0.4976 -0.1336
 9637TIP3    H153106   5.062   4.727   8.449 -0.8179  0.4364  1.0869
 9637TIP3    H253107   5.182   4.808   8.407 -1.3126 -0.1089 -1.5590
 9638TIP3   OH253108   4.335   5.004   1.021 -0.1702 -0.4382  0.3775
 9638TIP3    H153109   4.294   4.943   1.082 -0.4527 -0.3204  0.3059
 9638TIP3    H253110   4.415   5.033   1.066 -0.7233  0.1785  0.9869
 9639TIP3   OH253111   3.459   2.795   1.057 -0.0713 -0.0838 -0.2550
 9639TIP3    H153112   3.435   2.707   1.087  0.6710 -0.0605  0.4409
 9639TIP3    H253113   3.486   2.841   1.137  1.8807  0.0024 -0.9020
 9640TIP3   OH253114   0.564   1.956   2.154 -0.1285  0.3997 -0.0833
 9640TIP3    H153115   0.506   2.032   2.153 -1.0609 -0.3037 -0.7906
 9640TIP3    H253116   0.526   1.897   2.219 -0.9905 -0.6220 -1.4585
 9641TIP3   OH253117   5.660   3.359   1.252  0.5721  0.4667  0.4844
 9641TIP3    H153118   5.659   3.454   1.255 -0.9747  0.4855  0.2206
 9641TIP3    H253119   5.752   3.335   1.267  1.1991  2.0203 -0.6122
 9642TIP3   OH253120   0.781   0.214   8.508 -0.3404  0.7162  0.0372
 9642TIP3    H153121   0.703   0.190   8.457  0.0687 -0.8596  0.1293
 9642TIP3    H253122   0.816   0.290   8.461 -0.1059 -0.5200 -1.9403
 9643TIP3   OH253123   2.321   4.894   9.142  0.2010  0.4133  0.4699
 9643TIP3    H153124   2.310   4.909   9.048  0.4430  1.8881  0.6511
 9643TIP3    H253125   2.397   4.948   9.166  0.1413  0.0529  1.5133
 9644TIP3   OH253126   6.959   3.775   0.819  0.2497 -0.4164 -0.4260
 9644TIP3    H153127   6.998   3.704   0.768 -0.2429 -1.7616  1.0059
 9644TIP3    H253128   7.021   3.792   0.890  0.0743  0.1779 -0.4034
 9645TIP3   OH253129   4.215   5.830   7.763  0.4910 -0.1912  0.2164
 9645TIP3    H153130   4.306   5.822   7.790  0.4617 -1.9827 -0.0363
 9645TIP3    H253131   4.176   5.891   7.826  1.9156  0.8677  0.1187
 9646TIP3   OH253132   6.987   6.489   9.134 -0.0098  0.3246  0.5956
 9646TIP3    H153133   7.053   6.513   9.069 -0.6164  1.1008  0.2346
 9646TIP3    H253134   6.941   6.414   9.095  0.3067  0.1282  0.6027
 9647TIP3   OH253135   4.976   4.339   1.689  0.2407 -0.0206  0.0802
 9647TIP3    H153136   4.974   4.329   1.784 -0.7327  2.4548  0.3969
 9647TIP3    H253137   5.011   4.427   1.675 -3.1347  1.2208 -1.6286
 9648TIP3   OH253138   2.164   3.069   9.883  0.5087 -0.0103  0.5416
 9648TIP3    H153139   2.110   3.109   9.952 -0.4327  0.5554 -0.4935
 9648TIP3    H253140   2.250   3.110   9.893  0.3632  0.1374  1.3039
 9649TIP3   OH253141   5.197   6.681   1.868 -0.3432 -0.0637 -0.2050
 9649TIP3    H153142   5.142   6.734   1.925  0.6855  1.1565 -0.2906
 9649TIP3    H253143   5.151   6.597   1.860 -1.2173  0.2429  1.2458
 9650TIP3   OH253144   5.016   3.101   8.546  0.0328 -0.3848 -0.0044
 9650TIP3    H153145   4.990   3.103   8.454  0.8095 -3.0194 -0.3698
 9650TIP3    H253146   5.112   3.094   8.543  0.1822  0.8419  1.0814
 9651TIP3   OH253147   5.758   0.847   0.252 -0.1342 -0.1413 -0.3164
 9651TIP3    H153148   5.820   0.815   0.186  0.5558  0.2867  0.1124
 9651TIP3    H253149   5.788   0.809   0.334  0.2826  0.9977  0.0905
 9652TIP3   OH253150   4.793   5.848   7.394  0.2641  0.2891  0.3817
 9652TIP3    H153151   4.837   5.922   7.353  1.0686  0.0023  0.7038
 9652TIP3    H253152   4.831   5.842   7.482  0.6083 -0.8280  0.1741
 9653TIP3   OH253153   5.573   3.610   0.797 -0.5672  0.3984 -0.1284
 9653TIP3    H153154   5.569   3.674   0.726  0.8022  1.9500  1.1280
 9653TIP3    H253155   5.491   3.560   0.789 -1.4619  2.0016 -1.4244
 9654TIP3   OH253156   0.781   1.778   1.002 -0.0597  0.3725 -0.2232
 9654TIP3    H153157   0.766   1.774   1.097  0.5720  0.6729 -0.1012
 9654TIP3    H253158   0.694   1.781   0.964 -0.3223  0.3477  0.3574
 9655TIP3   OH253159   4.658   2.570   6.823  0.3913  0.2250  0.1928
 9655TIP3    H153160   4.682   2.659   6.849 -0.0512  0.3636  0.1211
 9655TIP3    H253161   4.683   2.516   6.898  0.3230  0.4565  0.3842
 9656TIP3   OH253162   5.086   5.279   9.681  0.1681  0.6428  0.2705
 9656TIP3    H153163   5.000   5.300   9.717 -0.6494  1.3027 -1.9337
 9656TIP3    H253164   5.138   5.358   9.695  0.6731  0.0247  2.1781
 9657TIP3   OH253165   2.411   2.773   9.667  0.4922 -0.2993 -0.6917
 9657TIP3    H153166   2.441   2.843   9.724 -3.1878  1.2215 -0.3383
 9657TIP3    H253167   2.420   2.809   9.579  0.6805 -0.2989 -0.6736
 9658TIP3   OH253168   4.974   2.693   9.433 -0.1313 -0.0228 -0.2605
 9658TIP3    H153169   4.962   2.662   9.343 -0.3364  1.3026 -0.7180
 9658TIP3    H253170   4.891   2.736   9.455  0.3141  0.6413  0.1537
 9659TIP3   OH253171   4.962   4.698   8.872 -0.3192  0.2980 -0.5258
 9659TIP3    H153172   5.020   4.664   8.804  0.4445  0.8457 -0.1690
 9659TIP3    H253173   4.982   4.645   8.949 -0.3578  0.4208 -0.4298
 9660TIP3   OH253174   1.751   5.273   7.702 -0.4097  0.1977  0.4814
 9660TIP3    H153175   1.812   5.283   7.629 -0.4136 -2.1110  0.0634
 9660TIP3    H253176   1.807   5.262   7.779 -0.3524  0.5230  0.4855
 9661TIP3   OH253177   5.671   6.291   1.111  0.3209  0.2529  0.2652
 9661TIP3    H153178   5.575   6.290   1.114  0.2973  1.8792  2.4896
 9661TIP3    H253179   5.694   6.382   1.093  1.4311  0.0617  0.6481
 9662TIP3   OH253180   2.480   6.662   0.058 -0.1393 -0.3715 -0.1049
 9662TIP3    H153181   2.405   6.669   0.117  0.3125  0.5167  0.3780
 9662TIP3    H253182   2.442   6.637  -0.026 -0.9791  0.0922  0.1309
 9663TIP3   OH253183   1.438   7.280   9.776  0.7360  0.5183 -0.6844
 9663TIP3    H153184   1.444   7.346   9.844  0.1144 -0.2395  0.1239
 9663TIP3    H253185   1.479   7.321   9.699 -1.7268  2.7764 -0.9577
 9664TIP3   OH253186   1.078   2.506   1.739  0.3158 -0.0556  0.5068
 9664TIP3    H153187   1.001   2.489   1.686  0.5601  0.2106  0.0575
 9664TIP3    H253188   1.095   2.600   1.728  1.0489 -0.2282  0.1197
 9665TIP3   OH253189   3.656   0.758   9.648  0.3924 -0.2625 -0.6305
 9665TIP3    H153190   3.732   0.757   9.590 -0.2970  0.1239 -1.5532
 9665TIP3    H253191   3.591   0.810   9.602 -0.0445  0.3735  0.6560
 9666TIP3   OH253192   4.822   4.809   9.614 -0.0176  0.2746 -0.2292
 9666TIP3    H153193   4.750   4.869   9.596  0.4894  1.1422  0.5825
 9666TIP3    H253194   4.841   4.821   9.707 -0.6608 -1.9990  0.2487
 9667TIP3   OH253195   0.020   3.516   2.699 -0.3264 -0.7679 -0.1840
 9667TIP3    H153196   0.054   3.438   2.743  0.5315 -0.7814 -0.8563
 9667TIP3    H253197  -0.073   3.516   2.719 -0.0033 -0.8871  1.4782
 9668TIP3   OH253198   1.961   0.618   6.660  0.3957 -0.3252 -0.2079
 9668TIP3    H153199   1.987   0.704   6.629 -1.2492 -0.0310 -0.8528
 9668TIP3    H253200   1.995   0.613   6.750  1.2679  0.6187 -0.4702
 9669TIP3   OH253201   2.328   4.373   8.770 -0.5661 -0.0123  0.3723
 9669TIP3    H153202   2.376   4.309   8.717 -0.4131  0.6051 -0.2407
 9669TIP3    H253203   2.335   4.339   8.859  1.9696  0.6426  0.4895
 9670TIP3   OH253204   3.621   2.025   9.304  0.1318 -0.7234 -0.1371
 9670TIP3    H153205   3.600   1.949   9.358  1.4964  0.2084  1.8629
 9670TIP3    H253206   3.699   2.062   9.345 -0.2191  1.4932 -1.3166
 9671TIP3   OH253207   4.273   7.265   2.359 -0.1459 -0.1539 -0.7832
 9671TIP3    H153208   4.253   7.171   2.362  0.4135 -0.3177  3.0807
 9671TIP3    H253209   4.198   7.304   2.314 -1.1096 -2.2786 -1.1563
 9672TIP3   OH253210   3.141   6.799   8.358 -0.0536  0.5193 -0.3217
 9672TIP3    H153211   3.104   6.730   8.304  0.4839 -1.7631  1.9820
 9672TIP3    H253212   3.228   6.814   8.322  0.0866 -0.5555 -0.4629
 9673TIP3   OH253213   0.511   4.716   7.275 -0.6006 -0.0266  0.5019
 9673TIP3    H153214   0.434   4.672   7.238 -0.9581  0.1848  0.9934
 9673TIP3    H253215   0.552   4.760   7.201 -1.6268  0.8639  0.4466
 9674TIP3   OH253216   4.557   5.410   8.303 -0.0850 -0.2459  0.1347
 9674TIP3    H153217   4.567   5.498   8.338 -1.7385 -0.0684  0.2181
 9674TIP3    H253218   4.647   5.381   8.285  0.4831  1.4137  0.1610
 9675TIP3   OH253219   6.676   4.708   8.874 -0.3016  0.2162 -0.2189
 9675TIP3    H153220   6.627   4.774   8.825 -1.4206 -0.4557 -0.0615
 9675TIP3    H253221   6.713   4.650   8.807 -2.8113 -1.3996 -0.3732
 9676TIP3   OH253222   1.381   5.506   9.444  0.3228  0.0222  0.0515
 9676TIP3    H153223   1.317   5.481   9.377  0.4353 -0.7910  0.2480
 9676TIP3    H253224   1.395   5.427   9.495 -0.3998  0.8406  1.5838
 9677TIP3   OH253225   1.962   2.844   2.727 -0.5307  0.0846 -0.6278
 9677TIP3    H153226   1.960   2.822   2.820  0.8900 -0.7200 -0.7573
 9677TIP3    H253227   1.910   2.776   2.685 -1.3554  0.5724 -0.4170
 9678TIP3   OH253228   1.381   4.728   2.725  0.1993 -0.1151 -0.3874
 9678TIP3    H153229   1.391   4.798   2.790 -0.2973 -1.2806  0.9792
 9678TIP3    H253230   1.327   4.767   2.656  0.7191  1.1366 -0.1151
 9679TIP3   OH253231   3.882   6.949   8.455  0.0329  0.2482 -0.1910
 9679TIP3    H153232   3.944   6.888   8.415 -1.1590  0.4302 -2.4929
 9679TIP3    H253233   3.937   7.022   8.486  1.2008 -0.7721  0.2058
 9680TIP3   OH253234   1.195   3.984   3.179  0.5183 -0.5622  0.3812
 9680TIP3    H153235   1.244   4.061   3.150  0.6481 -0.5081  0.7407
 9680TIP3    H253236   1.103   4.010   3.169  0.4849 -1.4232 -2.3716
 9681TIP3   OH253237   5.780   0.119   0.732  0.1091 -0.2966 -0.2762
 9681TIP3    H153238   5.700   0.103   0.782  0.3926  1.2020  0.7062
 9681TIP3    H253239   5.792   0.039   0.681 -2.9812  0.1187 -1.8663
 9682TIP3   OH253240   1.543   0.782   0.163 -0.3186 -0.6019 -0.4135
 9682TIP3    H153241   1.560   0.795   0.257  0.6912  1.1622 -0.7977
 9682TIP3    H253242   1.533   0.870   0.128 -1.0003 -1.2445 -1.9454
 9683TIP3   OH253243   2.393   1.824   1.646  0.2965  0.2411  0.0870
 9683TIP3    H153244   2.434   1.903   1.681 -0.4145  0.5037  0.3552
 9683TIP3    H253245   2.307   1.822   1.688 -0.5796  0.5477 -1.6080
 9684TIP3   OH253246   2.166   5.473   1.647 -0.1324 -0.1040  0.0966
 9684TIP3    H153247   2.165   5.568   1.658  0.9836  0.0535 -0.9365
 9684TIP3    H253248   2.105   5.440   1.713  0.9516  1.1927  1.7971
 9685TIP3   OH253249   3.903   3.853   2.341  0.1020  0.3647  0.2637
 9685TIP3    H153250   3.931   3.867   2.251  0.2531  0.5217  0.3346
 9685TIP3    H253251   3.968   3.794   2.378 -0.0286  0.2022  0.2328
 9686TIP3   OH253252   4.334   1.861   9.946 -0.3925 -0.3730 -0.1194
 9686TIP3    H153253   4.291   1.851  10.031  0.1316 -0.5610  0.1249
 9686TIP3    H253254   4.341   1.956   9.935 -1.3919 -0.3172 -0.4356
 9687TIP3   OH253255   4.241   6.493   8.708  0.0451 -0.0092  0.3988
 9687TIP3    H153256   4.190   6.574   8.706 -0.0830 -0.0985 -0.4721
 9687TIP3    H253257   4.183   6.428   8.669  0.1175 -0.5473  1.1749
 9688TIP3   OH253258   3.595   4.642   6.854  0.6498 -0.2063  0.2349
 9688TIP3    H153259   3.525   4.580   6.830  2.4271 -2.7896  1.3315
 9688TIP3    H253260   3.654   4.641   6.779  0.8514 -0.1328  0.3917
 9689TIP3   OH253261   4.196   1.778   0.198  0.7536  0.2597 -0.6275
 9689TIP3    H153262   4.129   1.779   0.130  2.1241 -0.3566 -2.0439
 9689TIP3    H253263   4.169   1.707   0.257 -0.3071  0.6242 -0.6556
 9690TIP3   OH253264   2.095   1.168   6.575  0.1637 -0.8491  0.3976
 9690TIP3    H153265   2.188   1.147   6.566  0.2040  0.1644 -2.2612
 9690TIP3    H253266   2.092   1.239   6.639  1.1328 -1.3142  0.9739
 9691TIP3   OH253267   7.145   7.111   9.826 -0.4884 -0.2515  0.0999
 9691TIP3    H153268   7.210   7.044   9.807  0.7746  0.5542  1.3861
 9691TIP3    H253269   7.194   7.193   9.829 -1.4742  0.3409  1.4566
 9692TIP3   OH253270   1.946   5.456   1.398  0.1438  0.7023  0.0015
 9692TIP3    H153271   2.028   5.498   1.426  0.5186 -0.0785  0.1157
 9692TIP3    H253272   1.880   5.488   1.459  0.8140 -0.4442  1.3802
 9693TIP3   OH253273   5.824   5.904   9.265  0.2392 -0.1554  0.0174
 9693TIP3    H153274   5.822   5.929   9.357 -1.4023  2.9323 -0.7063
 9693TIP3    H253275   5.898   5.845   9.258 -0.1920 -1.3449  3.4634
 9694TIP3   OH253276   0.200   2.928   0.909  0.2451  0.2799  0.0989
 9694TIP3    H153277   0.236   3.017   0.907  0.8604  0.0860  1.6897
 9694TIP3    H253278   0.117   2.935   0.861 -0.6201  2.1518  1.7214
 9695TIP3   OH253279   5.495   6.351   0.096 -0.0190 -0.5330  0.1713
 9695TIP3    H153280   5.468   6.332   0.005  1.4711  1.3594 -0.7283
 9695TIP3    H253281   5.583   6.315   0.102  1.2797  2.3609 -0.3155
 9696TIP3   OH253282   5.300   5.584   8.803 -0.3580  0.3348  0.0278
 9696TIP3    H153283   5.298   5.526   8.880  0.5811  0.6188  0.2793
 9696TIP3    H253284   5.219   5.564   8.757  0.8271 -2.7299 -1.0053
 9697TIP3   OH253285   5.311   0.921   8.571 -0.4985  0.1518  0.5099
 9697TIP3    H153286   5.404   0.905   8.555 -0.2469 -0.9701  2.7130
 9697TIP3    H253287   5.266   0.874   8.500  0.5973  0.0595 -0.1422
 9698TIP3   OH253288   1.511   3.699   8.267  0.0889  0.4253 -0.4701
 9698TIP3    H153289   1.596   3.655   8.276 -0.4009 -0.4584 -0.0322
 9698TIP3    H253290   1.458   3.639   8.215  0.3917  1.9776 -2.7108
 9699TIP3   OH253291   3.286   3.615   7.778  0.1038  0.0318  0.4163
 9699TIP3    H153292   3.365   3.564   7.794  0.7556  1.0146  0.4065
 9699TIP3    H253293   3.298   3.653   7.691  0.1235  1.0461  0.8408
 9700TIP3   OH253294   5.278   4.112   8.056  0.3943 -0.5147  0.1044
 9700TIP3    H153295   5.269   4.024   8.094  0.6720 -0.4650  0.2957
 9700TIP3    H253296   5.230   4.108   7.973 -0.1384 -0.6560  0.4152
 9701TIP3   OH253297   2.348   4.898   0.018 -0.0105 -0.3596 -0.1656
 9701TIP3    H153298   2.274   4.911  -0.042  0.7097  0.2083 -0.9632
 9701TIP3    H253299   2.337   4.808   0.050 -0.3792 -0.7139 -1.2250
 9702TIP3   OH253300   1.387   5.732   2.453 -0.2766 -0.0010  0.1288
 9702TIP3    H153301   1.384   5.711   2.546 -1.4528  2.8671  0.8352
 9702TIP3    H253302   1.317   5.795   2.440 -0.4987 -0.7048 -2.8550
 9703TIP3   OH253303   3.230   3.862   8.886  0.0010  0.0216 -0.2953
 9703TIP3    H153304   3.261   3.789   8.939  1.4142 -1.0564 -2.4754
 9703TIP3    H253305   3.147   3.887   8.927  0.6722 -1.1750  1.9615
 9704TIP3   OH253306   2.466   4.232   8.601  0.0844 -0.5612 -0.1560
 9704TIP3    H153307   2.546   4.284   8.607  0.3495 -1.0220  0.3540
 9704TIP3    H253308   2.496   4.142   8.601 -0.4261 -0.7320 -0.2089
 9705TIP3   OH253309   6.040   3.493   0.463  0.5054  0.2536  0.0678
 9705TIP3    H153310   6.096   3.454   0.530  0.4805 -0.7094 -0.4457
 9705TIP3    H253311   6.096   3.559   0.421  0.7954  0.2721  0.4749
 9706TIP3   OH253312   6.095   0.455   0.103  0.0900 -0.3624  0.0322
 9706TIP3    H153313   6.073   0.488   0.190  1.3332 -0.7961  0.5262
 9706TIP3    H253314   6.157   0.519   0.067 -1.6919  0.7458 -1.2732
 9707TIP3   OH253315   6.530   0.452   1.051 -0.2604  0.2507  0.3628
 9707TIP3    H153316   6.491   0.539   1.049 -1.6121 -0.2779 -2.9729
 9707TIP3    H253317   6.622   0.466   1.031 -0.6192  0.9060 -0.9217
 9708TIP3   OH253318   2.454   3.501   0.354  0.4150 -0.4604  0.0473
 9708TIP3    H153319   2.455   3.595   0.376  0.7781 -0.7091  1.1170
 9708TIP3    H253320   2.540   3.484   0.317  0.6868 -0.5684  0.7210
 9709TIP3   OH253321   6.217   4.969   2.074  0.1365  0.3916 -0.4255
 9709TIP3    H153322   6.126   4.995   2.058  0.4984  2.5758  0.6684
 9709TIP3    H253323   6.212   4.905   2.146 -0.4878  1.2175  0.2841
 9710TIP3   OH253324   3.456   1.397   8.693 -0.0156  0.1190  0.0466
 9710TIP3    H153325   3.447   1.310   8.655  0.6157 -0.2114  0.6277
 9710TIP3    H253326   3.521   1.386   8.763  1.9181  1.5191 -1.4214
 9711TIP3   OH253327   4.243   3.990   2.383 -0.0008  0.0171  0.2024
 9711TIP3    H153328   4.238   4.064   2.443  0.8302 -0.0559  0.3638
 9711TIP3    H253329   4.234   3.912   2.438 -0.0646 -0.0291  0.1290
 9712TIP3   OH253330   5.597   5.616   2.327  0.2445  0.2923  0.2839
 9712TIP3    H153331   5.514   5.589   2.367  0.6710 -1.3993  0.1058
 9712TIP3    H253332   5.663   5.561   2.370  0.9462 -0.2421 -1.3966
 9713TIP3   OH253333   7.231   4.593   9.190  0.5230 -0.0535  0.0609
 9713TIP3    H153334   7.243   4.665   9.128 -0.3781 -1.2914 -1.6481
 9713TIP3    H253335   7.229   4.515   9.135 -0.9024 -1.1623  1.6033
 9714TIP3   OH253336   1.301   1.824   1.640  0.5476  0.3157  0.4731
 9714TIP3    H153337   1.299   1.754   1.705 -1.5026  0.1476  0.2774
 9714TIP3    H253338   1.232   1.884   1.667  0.8166  1.1426 -0.6027
 9715TIP3   OH253339   3.594   4.650   1.392 -0.4951 -0.6790  0.3022
 9715TIP3    H153340   3.665   4.699   1.432 -0.1806  0.0465 -1.0806
 9715TIP3    H253341   3.604   4.665   1.298 -1.3706 -2.0827 -0.0508
 9716TIP3   OH253342   3.707   7.035   8.664 -0.1941  0.4991 -0.7398
 9716TIP3    H153343   3.762   7.022   8.741  0.3553  0.9040 -1.0657
 9716TIP3    H253344   3.749   6.983   8.595  0.9539  2.4065 -1.5403
 9717TIP3   OH253345   6.985   0.315   1.148  0.2436  0.4208 -0.0276
 9717TIP3    H153346   6.989   0.272   1.062 -2.3229  0.5631 -0.3124
 9717TIP3    H253347   7.066   0.365   1.154  0.5546  0.3022 -2.3171
 9718TIP3   OH253348   2.189   5.096   1.870 -0.3203 -0.9624  0.4539
 9718TIP3    H153349   2.165   5.047   1.791  2.1938 -2.2160  0.3878
 9718TIP3    H253350   2.284   5.105   1.865 -0.3471  1.1204  2.1341
 9719TIP3   OH253351   6.584   4.804   9.297 -0.6888 -0.1820  0.2671
 9719TIP3    H153352   6.555   4.895   9.291  0.1406  0.0649 -0.3092
 9719TIP3    H253353   6.506   4.754   9.320 -1.1003  0.7087  0.8184
 9720TIP3   OH253354   7.109   5.951   7.732  0.3273  0.2537 -0.6746
 9720TIP3    H153355   7.143   5.997   7.809  0.9280  0.9679 -1.3493
 9720TIP3    H253356   7.154   5.866   7.734 -1.7695 -0.9127  1.3076
 9721TIP3   OH253357   6.372   4.620   9.652  0.4318  0.6124 -0.1129
 9721TIP3    H153358   6.296   4.661   9.611  1.0148  1.6534 -0.1830
 9721TIP3    H253359   6.389   4.541   9.599 -0.5948  0.3622 -0.0793
 9722TIP3   OH253360   4.136   0.683   7.643 -0.0921  0.1486 -0.0523
 9722TIP3    H153361   4.092   0.687   7.728  0.2505 -0.7536  0.1789
 9722TIP3    H253362   4.080   0.734   7.585 -0.5667  0.4036  0.6146
 9723TIP3   OH253363   0.390   6.297   7.330 -0.5948  0.2643  0.2644
 9723TIP3    H153364   0.407   6.365   7.394 -0.5831 -0.0387  0.5847
 9723TIP3    H253365   0.404   6.339   7.245  0.5050  0.3675  0.4836
 9724TIP3   OH253366   1.394   1.162   8.386 -0.4002 -0.4700  0.0032
 9724TIP3    H153367   1.332   1.211   8.441 -0.9741 -1.2837  0.0908
 9724TIP3    H253368   1.401   1.076   8.427 -2.1384 -1.7077 -2.0745
 9725TIP3   OH253369   4.522   0.127   0.510  0.2571 -0.6128  0.2766
 9725TIP3    H153370   4.567   0.043   0.498  0.5444 -0.2308 -1.5522
 9725TIP3    H253371   4.487   0.148   0.423  0.5307  1.3599  0.6056
 9726TIP3   OH253372   3.209   4.545   9.939 -0.4709  0.4562  0.2989
 9726TIP3    H153373   3.242   4.470   9.989 -0.6721 -0.2431 -0.5999
 9726TIP3    H253374   3.274   4.614   9.955  1.7008 -0.9672 -1.6727
 9727TIP3   OH253375   6.545   6.174   1.322  0.3507 -0.4052  0.2417
 9727TIP3    H153376   6.534   6.221   1.239  2.2146  0.5811  0.4921
 9727TIP3    H253377   6.616   6.220   1.366 -1.5257  0.0371  3.0824
 9728TIP3   OH253378   3.732   5.274   9.653  0.0212 -0.0290  0.1765
 9728TIP3    H153379   3.678   5.253   9.576 -0.7008  1.6876  0.1670
 9728TIP3    H253380   3.770   5.360   9.633  1.2223 -0.3411  1.0210
 9729TIP3   OH253381   3.036   3.607   7.517 -0.6419  0.2059 -0.3228
 9729TIP3    H153382   2.986   3.621   7.598 -0.8968 -0.8727 -0.2688
 9729TIP3    H253383   3.042   3.693   7.477 -3.3051  0.2813 -0.7689
 9730TIP3   OH253384   0.255   4.837   1.747 -0.3140 -0.2542 -0.1496
 9730TIP3    H153385   0.291   4.761   1.700  0.5584 -0.3924  0.6955
 9730TIP3    H253386   0.270   4.911   1.688 -1.9313 -0.8213 -1.3521
 9731TIP3   OH253387   3.626   6.370   1.638 -0.3924 -0.3833  0.2785
 9731TIP3    H153388   3.712   6.342   1.671  0.4278  3.3732  1.8086
 9731TIP3    H253389   3.623   6.336   1.548  2.6875 -0.6542  0.1627
 9732TIP3   OH253390   2.010   5.641   8.368 -0.0198  0.3880  0.2278
 9732TIP3    H153391   2.048   5.694   8.438  0.4105  0.3684  0.0093
 9732TIP3    H253392   2.042   5.681   8.288  1.0365 -0.7363  0.0675
 9733TIP3   OH253393   0.492   4.050   2.568  0.7962 -0.1283 -0.1369
 9733TIP3    H153394   0.458   4.047   2.657  1.3852 -2.7807  0.0634
 9733TIP3    H253395   0.426   4.006   2.515  1.9493 -1.6043 -0.4105
 9734TIP3   OH253396   3.748   3.030   0.934  0.1477  0.1501  0.0679
 9734TIP3    H153397   3.696   3.038   1.014  1.9202  0.1161  1.2815
 9734TIP3    H253398   3.707   2.959   0.886 -0.1914 -0.7183  1.5810
 9735TIP3   OH253399   5.887   6.647   9.481 -0.9809  0.9484 -0.0484
 9735TIP3    H153400   5.966   6.605   9.514 -1.9816 -0.1020  1.1354
 9735TIP3    H253401   5.891   6.737   9.515 -0.8921  0.5327  1.0877
 9736TIP3   OH253402   4.849   0.798   8.596  0.3704  0.1799  0.0494
 9736TIP3    H153403   4.802   0.759   8.669  2.1868 -1.1385  0.5863
 9736TIP3    H253404   4.821   0.747   8.520 -1.0202  1.1278 -0.1074
 9737TIP3   OH253405   3.339   7.113   7.835  0.2891  0.2627 -0.0230
 9737TIP3    H153406   3.300   7.038   7.791  1.4829 -0.7240  0.5466
 9737TIP3    H253407   3.352   7.085   7.926  1.9409  0.6607 -0.0965
 9738TIP3   OH253408   3.951   2.551   9.781 -0.2403 -0.2123 -0.3276
 9738TIP3    H153409   3.992   2.464   9.781 -0.1279 -0.3669  4.2115
 9738TIP3    H253410   4.023   2.611   9.759  0.4512 -1.0490 -0.3967
 9739TIP3   OH253411   6.951   4.433   8.508  0.0468  0.1320  0.0856
 9739TIP3    H153412   7.037   4.411   8.544  1.3324  1.6303 -1.8597
 9739TIP3    H253413   6.947   4.386   8.425 -1.3704 -0.5351  0.5150
 9740TIP3   OH253414   3.437   0.090   7.667  0.2753  0.5536  0.0293
 9740TIP3    H153415   3.360   0.125   7.621  0.7600  0.8050 -0.6067
 9740TIP3    H253416   3.404   0.012   7.712 -0.3709  0.7049 -0.1626
 9741TIP3   OH253417   2.943   1.323   0.606 -0.5572 -0.5070  0.4240
 9741TIP3    H153418   2.997   1.256   0.648  0.5900  1.1698  1.7908
 9741TIP3    H253419   2.934   1.391   0.673 -0.5836  1.2631 -1.2900
 9742TIP3   OH253420   3.784   2.172   9.465 -0.1390  0.1900 -0.7545
 9742TIP3    H153421   3.872   2.147   9.494  0.0069  1.0788 -0.3746
 9742TIP3    H253422   3.757   2.238   9.529 -1.2082 -0.2926 -0.6974
 9743TIP3   OH253423   1.696   6.231   8.366  0.3438  0.3760 -0.4019
 9743TIP3    H153424   1.747   6.151   8.361  0.2501  0.2929 -0.0542
 9743TIP3    H253425   1.749   6.291   8.417  2.6988  2.2887 -4.6068
 9744TIP3   OH253426   2.469   7.075   0.213  0.5519  0.0099 -0.1863
 9744TIP3    H153427   2.419   7.145   0.171  0.7634  0.0384 -0.3982
 9744TIP3    H253428   2.439   7.074   0.304 -0.3319 -0.4432 -0.4769
 9745TIP3   OH253429   3.183   3.666   0.703 -0.0800 -0.0533  0.0532
 9745TIP3    H153430   3.171   3.655   0.609  0.8468 -0.6909  0.0031
 9745TIP3    H253431   3.203   3.759   0.714 -2.2264  0.4982 -0.1304
 9746TIP3   OH253432   5.865   2.536   9.906 -0.0547  0.2052  0.4068
 9746TIP3    H153433   5.903   2.449   9.895 -0.3100  0.0771  0.5268
 9746TIP3    H253434   5.852   2.568   9.817 -1.1078 -0.3879  0.3292
 9747TIP3   OH253435   1.275   3.016   2.067  0.2251  0.0493 -0.1881
 9747TIP3    H153436   1.211   3.061   2.123 -1.8676  0.3796 -2.6316
 9747TIP3    H253437   1.314   3.086   2.014  0.3397 -0.4927 -0.8375
 9748TIP3   OH253438   6.263   7.268   7.666  0.3521 -0.2479 -0.0517
 9748TIP3    H153439   6.339   7.229   7.709  0.3793 -0.2390 -0.0911
 9748TIP3    H253440   6.294   7.291   7.578  0.0543 -1.0783 -0.3845
 9749TIP3   OH253441   4.890   2.008   0.895 -0.1135  0.2838 -0.3683
 9749TIP3    H153442   4.941   2.053   0.828  1.4549 -1.3210 -0.3504
 9749TIP3    H253443   4.918   1.916   0.889 -1.4818 -0.2841  1.0780
 9750TIP3   OH253444   2.409   3.480   7.928 -0.2921 -0.2678  0.6933
 9750TIP3    H153445   2.461   3.433   7.863 -0.3318  0.9306 -0.2586
 9750TIP3    H253446   2.457   3.563   7.941 -2.0844  1.0340 -0.4912
 9751TIP3   OH253447   5.283   0.665   0.539  0.4005 -0.0645 -0.1471
 9751TIP3    H153448   5.373   0.649   0.511  0.4591 -0.7275  0.3904
 9751TIP3    H253449   5.264   0.755   0.510  0.8753 -0.2793 -1.1710
 9752TIP3   OH253450   5.617   2.524   1.220 -0.4719 -0.2233 -0.1720
 9752TIP3    H153451   5.572   2.570   1.290  2.1973  0.2681  1.3576
 9752TIP3    H253452   5.608   2.582   1.144 -0.4833  0.9483  0.6943
 9753TIP3   OH253453   2.987   3.730   7.752 -0.0986 -0.0436 -0.3032
 9753TIP3    H153454   3.074   3.732   7.792 -0.4128  0.2985  0.3835
 9753TIP3    H253455   2.928   3.755   7.823 -0.8732 -1.3667 -0.4447
 9754TIP3   OH253456   6.294   0.703   2.351  0.0819  0.2196  0.2628
 9754TIP3    H153457   6.270   0.662   2.434  1.1610  1.1479  1.0716
 9754TIP3    H253458   6.250   0.788   2.353  1.9504  1.2185  0.9788
 9755TIP3   OH253459   0.677   1.447   1.287 -0.0828 -0.1450  0.1201
 9755TIP3    H153460   0.638   1.492   1.362 -1.8792  0.3834 -1.0675
 9755TIP3    H253461   0.757   1.407   1.322  0.6864  2.4653  1.6517
 9756TIP3   OH253462   3.724   6.718   0.344  0.1462  0.1154 -0.2811
 9756TIP3    H153463   3.689   6.630   0.356  1.6635 -0.3570  1.1269
 9756TIP3    H253464   3.758   6.718   0.255 -0.0025 -0.6887 -0.3468
 9757TIP3   OH253465   3.188   0.846   8.385  0.1521  0.0126  0.2857
 9757TIP3    H153466   3.266   0.847   8.331  0.1758 -0.1203  0.3166
 9757TIP3    H253467   3.133   0.778   8.347  1.1214 -1.6996  1.7402
 9758TIP3   OH253468   3.167   5.798   2.836 -0.1174 -0.3462 -0.1933
 9758TIP3    H153469   3.072   5.793   2.824 -0.1499 -0.7194  0.1970
 9758TIP3    H253470   3.201   5.813   2.748 -0.5115 -0.6698 -0.4079
 9759TIP3   OH253471   3.446   5.024   1.527 -0.8695 -0.1202 -0.2413
 9759TIP3    H153472   3.524   5.006   1.580 -0.8960  0.7741  0.1298
 9759TIP3    H253473   3.390   4.948   1.540 -0.6147 -0.1855  0.5560
 9760TIP3   OH253474   1.811   6.694   9.803  0.9633  0.0687  0.0158
 9760TIP3    H153475   1.789   6.766   9.862  2.2517  0.5799 -0.0980
 9760TIP3    H253476   1.769   6.617   9.842 -0.1246  0.8026  0.3336
 9761TIP3   OH253477   3.276   4.108   0.860  0.1957  0.2412 -0.4381
 9761TIP3    H153478   3.248   4.071   0.776 -2.7899  1.2963 -0.0454
 9761TIP3    H253479   3.202   4.163   0.887  1.6277  1.0076  2.2476
 9762TIP3   OH253480   2.637   2.311   1.609  0.1492 -0.6099  0.2432
 9762TIP3    H153481   2.697   2.237   1.618  0.1252 -0.6130  0.3697
 9762TIP3    H253482   2.688   2.387   1.638  0.0956 -0.6107  0.3373
 9763TIP3   OH253483   1.148   3.995   0.821  0.1254 -0.4610  1.1172
 9763TIP3    H153484   1.078   3.938   0.789 -0.6658  0.6853  0.7098
 9763TIP3    H253485   1.209   4.002   0.748  0.1410 -0.6568  1.1120
 9764TIP3   OH253486   3.341   2.295   7.200 -0.3972  0.7919 -0.3774
 9764TIP3    H153487   3.353   2.368   7.139  1.0410  0.2233 -0.7918
 9764TIP3    H253488   3.394   2.224   7.164 -1.0863 -0.1937  0.4950
 9765TIP3   OH253489   0.458   2.464   8.187 -0.4404  0.1414 -0.0290
 9765TIP3    H153490   0.412   2.423   8.114 -1.1208 -0.2036  0.5723
 9765TIP3    H253491   0.502   2.540   8.149  1.5908 -1.6151 -1.3489
 9766TIP3   OH253492   4.237   2.899   2.169  0.7408  0.4287  0.4765
 9766TIP3    H153493   4.286   2.955   2.229 -0.7912  0.3847  1.8398
 9766TIP3    H253494   4.207   2.826   2.223  1.8641 -1.2452 -1.0401
 9767TIP3   OH253495   4.402   4.586   1.353  0.2451  1.1994 -0.1345
 9767TIP3    H153496   4.307   4.571   1.351  0.1340  1.3524  1.9922
 9767TIP3    H253497   4.437   4.520   1.293 -1.0397 -0.5283  0.9105
 9768TIP3   OH253498   6.722   4.430   0.322 -0.5051  0.7956  0.0264
 9768TIP3    H153499   6.660   4.447   0.393 -1.3298  0.4670 -0.5937
 9768TIP3    H253500   6.779   4.507   0.321 -0.2205  0.6259  1.2906
 9769TIP3   OH253501   6.590   0.417   8.330 -0.6279 -0.0771 -0.0608
 9769TIP3    H153502   6.530   0.480   8.371 -0.4233  0.1712 -0.1402
 9769TIP3    H253503   6.580   0.337   8.381  0.2260  0.4631  0.9857
 9770TIP3   OH253504   4.100   3.608   1.964  0.2360 -0.5319 -0.4155
 9770TIP3    H153505   4.051   3.664   1.904  1.2168  0.1181 -0.6216
 9770TIP3    H253506   4.096   3.521   1.925 -0.4204 -0.4123 -0.6289
 9771TIP3   OH253507   5.355   7.107   7.563  0.4070 -0.0560  0.2314
 9771TIP3    H153508   5.358   7.043   7.634 -0.6896 -2.1033 -1.4365
 9771TIP3    H253509   5.445   7.140   7.556  1.1738 -1.9163  0.7537
 9772TIP3   OH253510   0.094   6.052   7.921  0.0270 -0.1977  0.5505
 9772TIP3    H153511   0.141   6.131   7.948 -0.3741  1.0754 -2.1231
 9772TIP3    H253512   0.100   5.993   7.996  1.2329  1.9713  2.2666
 9773TIP3   OH253513   2.583   1.598   9.517 -0.3631 -0.4474  0.4004
 9773TIP3    H153514   2.512   1.546   9.554 -1.3756  0.8793  0.4113
 9773TIP3    H253515   2.544   1.640   9.440  1.3090 -2.1203 -1.4799
 9774TIP3   OH253516   3.743   2.610   7.386 -0.0138 -0.1914 -0.5502
 9774TIP3    H153517   3.836   2.631   7.375  0.4541 -1.3079  0.8678
 9774TIP3    H253518   3.703   2.633   7.303  1.6366 -0.1909 -1.3927
 9775TIP3   OH253519   1.717   6.446   7.020  0.1131 -0.3915  0.5391
 9775TIP3    H153520   1.718   6.498   6.940  1.8025 -3.4424 -1.6560
 9775TIP3    H253521   1.791   6.480   7.072  2.6117 -1.7635 -1.8380
 9776TIP3   OH253522   0.698   4.653   1.574 -0.2026  0.4733  0.8635
 9776TIP3    H153523   0.633   4.655   1.504  0.7618  0.2517 -0.0711
 9776TIP3    H253524   0.700   4.743   1.608 -1.2907  0.3849  1.2163
 9777TIP3   OH253525   4.030   3.939   9.625 -0.2522 -0.0382  0.6197
 9777TIP3    H153526   4.027   3.849   9.590  2.5197 -0.7278  1.8531
 9777TIP3    H253527   4.115   3.972   9.596 -0.3208  1.4022  1.9789
 9778TIP3   OH253528   5.408   5.105   8.580 -0.0493 -0.3044 -0.0605
 9778TIP3    H153529   5.460   5.119   8.500  1.3388  1.7730  1.1311
 9778TIP3    H253530   5.443   5.023   8.616 -0.4687 -1.0969 -1.3589
 9779TIP3   OH253531   6.877   3.881   2.300 -0.2450 -0.0037 -0.4983
 9779TIP3    H153532   6.806   3.817   2.302 -0.0903 -0.1853 -0.7284
 9779TIP3    H253533   6.880   3.911   2.209 -0.6576  0.7191 -0.2772
 9780TIP3   OH253534   1.469   6.205   1.836  0.7057  0.1853  0.1494
 9780TIP3    H153535   1.515   6.122   1.853  0.3197 -0.1956 -0.6269
 9780TIP3    H253536   1.379   6.179   1.816  0.5634  0.7985 -0.0205
 9781TIP3   OH253537   6.945   5.400   9.057 -0.1143  0.2520 -0.0539
 9781TIP3    H153538   6.889   5.331   9.021  2.8172 -3.1707  1.2583
 9781TIP3    H253539   7.013   5.414   8.991  0.2172  0.6667  0.3637
 9782TIP3   OH253540   6.988   6.017   8.974  0.1425 -0.4556 -0.1251
 9782TIP3    H153541   6.959   6.107   8.984  0.2996 -0.2787 -1.1766
 9782TIP3    H253542   6.920   5.975   8.922 -0.9629 -1.5098  2.0465
 9783TIP3   OH253543   7.258   5.292   1.257 -0.4500 -0.2485  0.0800
 9783TIP3    H153544   7.187   5.234   1.229  0.0944 -0.3849 -1.0675
 9783TIP3    H253545   7.291   5.253   1.338  0.1637 -1.7611 -0.8754
 9784TIP3   OH253546   7.022   6.129   1.376  0.5545 -0.3266  0.4165
 9784TIP3    H153547   7.105   6.144   1.330  0.6318 -2.0858 -0.1006
 9784TIP3    H253548   6.958   6.119   1.306 -0.0162  0.4791  0.8077
 9785TIP3   OH253549   2.246   3.531   8.226  0.6201 -0.1569 -0.2656
 9785TIP3    H153550   2.197   3.586   8.165 -2.6572 -1.1322  1.2267
 9785TIP3    H253551   2.245   3.444   8.186  1.5169 -0.1196 -0.3842
 9786TIP3   OH253552   6.091   4.656   1.669 -0.0910 -0.1237  0.2009
 9786TIP3    H153553   6.150   4.587   1.699 -0.4646  0.4722  2.4678
 9786TIP3    H253554   6.007   4.612   1.655  0.5105 -0.7495 -1.9255
 9787TIP3   OH253555   0.850   4.770   7.646 -0.0356  0.1333  0.0919
 9787TIP3    H153556   0.923   4.788   7.588 -1.0407  1.9571 -0.6968
 9787TIP3    H253557   0.884   4.784   7.734  0.4774  1.3354 -0.2852
 9788TIP3   OH253558   5.367   5.926   0.853 -0.1516  0.1026 -0.0743
 9788TIP3    H153559   5.292   5.931   0.912  0.6979  0.5207  1.0179
 9788TIP3    H253560   5.402   5.838   0.867  0.1200  0.2431  0.1372
 9789TIP3   OH253561   7.196   5.229   0.351  0.3471 -0.2092 -0.4373
 9789TIP3    H153562   7.226   5.320   0.354  1.8879 -0.6822  1.8546
 9789TIP3    H253563   7.223   5.192   0.436 -0.5609 -2.7124 -1.1279
 9790TIP3   OH253564   0.953   1.187   8.668 -0.1120  0.1181 -0.3746
 9790TIP3    H153565   0.933   1.177   8.762 -0.8520  1.3422 -0.3737
 9790TIP3    H253566   0.930   1.103   8.630  1.9359 -1.0591  0.7925
 9791TIP3   OH253567   5.973   2.303   7.655 -0.0271 -0.1679 -0.4072
 9791TIP3    H153568   5.971   2.382   7.708 -0.3760  0.0388 -0.7213
 9791TIP3    H253569   5.927   2.327   7.575 -0.1102 -0.6811 -0.5159
 9792TIP3   OH253570   4.559   6.632   1.026  0.1964 -0.6379  0.5432
 9792TIP3    H153571   4.581   6.564   0.963  0.2187 -1.0065  0.9418
 9792TIP3    H253572   4.476   6.669   0.994  1.1031  0.4155 -0.6847
 9793TIP3   OH253573   2.246   0.923   8.065 -0.2803 -0.3506 -0.3514
 9793TIP3    H153574   2.178   0.965   8.011  0.5634  1.0514 -0.3757
 9793TIP3    H253575   2.306   0.884   8.003 -1.0809 -1.6711 -0.3286
 9794TIP3   OH253576   0.697   5.850   9.141 -0.2512 -0.7974 -0.4849
 9794TIP3    H153577   0.742   5.928   9.174 -2.3057  0.2023  0.1085
 9794TIP3    H253578   0.726   5.779   9.199 -1.5157  0.3530  1.6660
 9795TIP3   OH253579   5.174   2.467   7.446  0.0465 -0.7788 -0.1145
 9795TIP3    H153580   5.107   2.414   7.489 -4.0132  0.7453 -3.7540
 9795TIP3    H253581   5.184   2.427   7.359  1.5826  0.8682 -0.7623
 9796TIP3   OH253582   4.211   5.836   0.329  0.9458  0.5954  0.1763
 9796TIP3    H153583   4.196   5.900   0.259 -0.6021 -0.3482 -0.4170
 9796TIP3    H253584   4.179   5.754   0.292 -0.5333  0.1824  2.2033
 9797TIP3   OH253585   5.894   4.312   0.967 -0.3552 -0.1089  0.1328
 9797TIP3    H153586   5.903   4.400   0.929 -0.1350  0.5940  1.7278
 9797TIP3    H253587   5.942   4.255   0.907 -0.8332  0.7895 -1.1434
 9798TIP3   OH253588   5.082   3.367   8.833 -0.1764 -0.0714  0.0715
 9798TIP3    H153589   5.130   3.285   8.843  0.0712  0.2869  2.4368
 9798TIP3    H253590   5.062   3.372   8.739  2.0489 -1.5399 -0.5702
 9799TIP3   OH253591   3.255   4.361   9.724  0.7051 -0.4960  0.1252
 9799TIP3    H153592   3.212   4.423   9.783 -1.2901 -0.7397 -0.9653
 9799TIP3    H253593   3.319   4.316   9.779  0.2334  0.5628  1.6190
 9800TIP3   OH253594   5.967   2.379   1.963 -0.4070 -0.1658 -0.1789
 9800TIP3    H153595   5.873   2.371   1.976 -0.2736 -1.3404  0.1998
 9800TIP3    H253596   5.988   2.311   1.900  0.3522 -0.7048  0.6310
 9801TIP3   OH253597   2.756   6.545   9.238 -0.9816 -0.0533  0.1940
 9801TIP3    H153598   2.740   6.504   9.153  0.6715 -0.0156 -0.1748
 9801TIP3    H253599   2.832   6.499   9.273 -2.0248 -0.5044  1.9718
 9802TIP3   OH253600   5.573   4.972   2.721  0.0644  0.1239  0.5397
 9802TIP3    H153601   5.535   4.971   2.633 -2.3861  0.9939  1.4837
 9802TIP3    H253602   5.556   4.884   2.756 -0.8956  0.4136  0.8445
 9803TIP3   OH253603   6.464   7.033   2.436 -0.6283  0.2910  0.2865
 9803TIP3    H153604   6.481   7.115   2.389 -2.3512 -0.5465 -1.9457
 9803TIP3    H253605   6.489   7.052   2.527  0.6349  2.7185 -0.4845
 9804TIP3   OH253606   6.035   5.629   2.441 -0.4561  0.3019  0.3015
 9804TIP3    H153607   6.089   5.606   2.517 -0.0310  0.4342  0.0429
 9804TIP3    H253608   6.097   5.666   2.378 -1.1324  2.3463  0.7574
 9805TIP3   OH253609   2.424   0.830   9.333 -0.1997  0.3860 -0.4667
 9805TIP3    H153610   2.487   0.834   9.405  0.2013 -2.6039 -0.5329
 9805TIP3    H253611   2.345   0.793   9.373 -0.8365  1.0606 -1.0747
 9806TIP3   OH253612   6.902   6.579   9.980  0.1973  0.3501  0.1503
 9806TIP3    H153613   6.887   6.489  10.011  0.3084  0.8056  1.5742
 9806TIP3    H253614   6.959   6.569   9.904 -1.8210 -0.9630 -1.3131
 9807TIP3   OH253615   0.977   0.284   1.137  0.4292 -0.2321  0.4590
 9807TIP3    H153616   0.989   0.241   1.222  1.1503  1.2395  1.1347
 9807TIP3    H253617   1.035   0.236   1.078  0.2796 -0.9779  0.9068
 9808TIP3   OH253618   5.283   1.885   1.221 -0.2063 -0.0413 -0.0274
 9808TIP3    H153619   5.196   1.912   1.191  0.0692  0.7511 -0.1230
 9808TIP3    H253620   5.326   1.966   1.246  0.0791 -0.5442  1.1779
 9809TIP3   OH253621   3.664   6.904   8.255  0.5296  0.0766 -1.0917
 9809TIP3    H153622   3.727   6.964   8.296 -0.9576  0.8200  0.1915
 9809TIP3    H253623   3.628   6.955   8.182  1.0013 -0.1568 -1.4958
 9810TIP3   OH253624   5.052   4.938   0.771  0.0645  0.3493  0.0399
 9810TIP3    H153625   5.010   4.978   0.847 -0.7469  0.8666 -0.6627
 9810TIP3    H253626   4.992   4.867   0.746 -0.3031  0.9541 -0.8396
 9811TIP3   OH253627   1.019   5.896   2.277 -0.3807  0.1750  0.4385
 9811TIP3    H153628   1.077   5.841   2.330  0.0829 -0.8851 -1.0939
 9811TIP3    H253629   1.065   5.980   2.271  0.7205 -0.4399 -0.1959
 9812TIP3   OH253630   3.908   5.611   7.620 -0.3985 -0.0860 -0.3797
 9812TIP3    H153631   3.860   5.536   7.586 -1.4154  0.7989 -0.9578
 9812TIP3    H253632   3.859   5.639   7.698  1.8445 -2.0340  1.9481
 9813TIP3   OH253633   4.763   1.547   6.787 -0.2371  0.0054 -0.0215
 9813TIP3    H153634   4.806   1.628   6.759 -0.7090  0.3971  0.3657
 9813TIP3    H253635   4.834   1.490   6.816 -0.0019  0.7631  0.9081
 9814TIP3   OH253636   3.101   3.920   2.160 -0.0268 -0.4815  0.1679
 9814TIP3    H153637   3.156   3.935   2.237  0.9647  0.4182 -0.6758
 9814TIP3    H253638   3.023   3.973   2.176 -0.7675 -1.8662  1.4349
 9815TIP3   OH253639   3.574   6.079   6.842  0.2909  0.5119  0.0189
 9815TIP3    H153640   3.584   6.174   6.851  0.7615  0.6937 -2.0038
 9815TIP3    H253641   3.656   6.050   6.804 -0.7662 -0.3159 -1.7713
 9816TIP3   OH253642   3.055   0.906   9.407 -0.5628 -0.4770 -0.0517
 9816TIP3    H153643   3.065   0.811   9.399 -0.8150 -0.4858 -0.2811
 9816TIP3    H253644   2.975   0.926   9.358 -0.3275 -0.1037 -0.2937
 9817TIP3   OH253645   6.109   2.614   1.919  0.3688 -0.1585  0.1558
 9817TIP3    H153646   6.083   2.535   1.965 -0.1586  0.4861  0.9968
 9817TIP3    H253647   6.034   2.637   1.865  1.1927 -1.2346 -1.5339
 9818TIP3   OH253648   6.380   5.702   7.929 -0.3266  0.6065  0.0859
 9818TIP3    H153649   6.470   5.676   7.951 -0.4012 -0.3484 -0.6371
 9818TIP3    H253650   6.332   5.619   7.923 -1.5499  1.1504  1.5830
 9819TIP3   OH253651   4.304   4.064   7.851  0.4018  0.4628 -0.1657
 9819TIP3    H153652   4.384   4.078   7.902 -0.5663 -0.4771  1.7403
 9819TIP3    H253653   4.314   3.976   7.815 -0.9183 -0.9867  2.6030
 9820TIP3   OH253654   5.916   0.552   6.949  0.3353 -0.1329 -0.2532
 9820TIP3    H153655   5.863   0.475   6.968  1.2090 -0.4239  1.0993
 9820TIP3    H253656   5.982   0.554   7.018  0.6690  1.5275 -0.5788
 9821TIP3   OH253657   0.318   6.639   7.364  0.4761  0.5903 -0.1816
 9821TIP3    H153658   0.296   6.732   7.363 -0.7529  0.3305  0.0820
 9821TIP3    H253659   0.333   6.616   7.273 -0.8143  0.7173 -0.4481
 9822TIP3   OH253660   2.464   1.100   8.642 -0.0105 -0.0814  0.4841
 9822TIP3    H153661   2.383   1.050   8.647 -0.1422  0.1871  1.0996
 9822TIP3    H253662   2.520   1.063   8.710 -0.1049  0.5825  0.9407
 9823TIP3   OH253663   0.357   2.411   2.687 -0.2610 -0.8000  0.0789
 9823TIP3    H153664   0.386   2.490   2.642  0.1213 -0.0713  1.5449
 9823TIP3    H253665   0.262   2.411   2.676 -0.0103 -2.1844 -3.1170
 9824TIP3   OH253666   6.178   6.467   0.788 -0.1533  0.0376 -0.4195
 9824TIP3    H153667   6.260   6.512   0.806  1.6151 -3.3310  0.9244
 9824TIP3    H253668   6.144   6.444   0.874 -0.8003 -1.3394 -1.0072
 9825TIP3   OH253669   3.977   0.859   0.182 -0.0917 -0.5476  0.8475
 9825TIP3    H153670   3.897   0.887   0.139 -0.7310 -3.7286 -0.2828
 9825TIP3    H253671   3.949   0.827   0.268 -0.2424 -2.3402  0.1790
 9826TIP3   OH253672   4.121   4.221   2.538 -0.0980  0.0962 -0.4284
 9826TIP3    H153673   4.128   4.315   2.553  0.0165  0.2542 -1.4416
 9826TIP3    H253674   4.168   4.182   2.612 -0.0439  0.8298 -0.0646
 9827TIP3   OH253675   4.846   0.624   1.835  0.0356  0.6097 -0.4769
 9827TIP3    H153676   4.856   0.667   1.920  0.8715 -0.7112  0.1296
 9827TIP3    H253677   4.797   0.544   1.854  2.8239 -1.2710 -0.6356
 9828TIP3   OH253678   5.849   2.995   2.718  0.0507 -0.0905 -0.4234
 9828TIP3    H153679   5.785   2.952   2.775 -1.0413  1.7004 -0.2315
 9828TIP3    H253680   5.861   3.082   2.755  4.0790 -0.8870  0.6342
 9829TIP3   OH253681   4.841   5.329   0.051 -0.3602 -0.1612  0.7468
 9829TIP3    H153682   4.772   5.381   0.093 -0.6053 -0.4473  0.6947
 9829TIP3    H253683   4.890   5.393  -0.002 -1.9089 -0.3255 -0.9575
 9830TIP3   OH253684   6.897   0.885   1.213  0.8521  0.5778  0.3357
 9830TIP3    H153685   6.813   0.915   1.246  0.6164  0.6296 -0.2989
 9830TIP3    H253686   6.884   0.874   1.119  0.3716 -3.2026  0.6770
 9831TIP3   OH253687   5.953   5.169   7.867 -0.2707  0.1649 -0.3038
 9831TIP3    H153688   5.903   5.213   7.936 -0.9895 -0.5214 -0.3682
 9831TIP3    H253689   5.904   5.187   7.786 -0.1623 -0.1259 -0.4364
 9832TIP3   OH253690   1.174   3.513   2.110 -0.4813  0.2987  0.4694
 9832TIP3    H153691   1.155   3.432   2.062 -0.2803  0.0631  0.7877
 9832TIP3    H253692   1.096   3.567   2.096  0.4809  1.2060 -2.1022
 9833TIP3   OH253693   0.303   3.696   9.335  0.4592 -0.1791 -0.3571
 9833TIP3    H153694   0.242   3.768   9.347  0.7664  0.4266 -2.0606
 9833TIP3    H253695   0.247   3.621   9.311  0.2454 -0.1655  0.0869
 9834TIP3   OH253696   5.913   6.965   0.996  0.2756  0.3992  0.5215
 9834TIP3    H153697   5.987   6.921   1.037 -0.7779 -1.9925  0.0233
 9834TIP3    H253698   5.905   7.048   1.042  2.7155  0.3471  1.1455
 9835TIP3   OH253699   2.674   2.707   7.946  0.2538  0.2187 -0.2481
 9835TIP3    H153700   2.740   2.773   7.927  2.1063 -1.7914 -1.2057
 9835TIP3    H253701   2.700   2.631   7.894 -0.5987 -1.9841  2.2954
 9836TIP3   OH253702   3.153   0.196   2.252 -0.2005  0.0167 -0.0354
 9836TIP3    H153703   3.238   0.223   2.217 -0.4816  0.3209 -0.4953
 9836TIP3    H253704   3.100   0.179   2.175 -0.6570  0.1507  0.2472
 9837TIP3   OH253705   2.051   2.418   9.242 -0.0080 -0.2568  0.1491
 9837TIP3    H153706   2.132   2.449   9.281 -1.0902  0.6868  1.7507
 9837TIP3    H253707   2.048   2.325   9.265  0.3117 -0.1484  0.6418
 9838TIP3   OH253708   6.888   4.895   9.604 -0.2376 -0.2712 -0.3353
 9838TIP3    H153709   6.952   4.939   9.659  1.6167 -0.1453 -2.4474
 9838TIP3    H253710   6.916   4.803   9.602 -0.7350 -0.4251 -0.4589
 9839TIP3   OH253711   2.324   4.196   9.661 -0.4161 -0.2154  0.3804
 9839TIP3    H153712   2.375   4.183   9.581  1.0688  0.4002  1.1917
 9839TIP3    H253713   2.283   4.110   9.677  1.0130 -0.9831  0.1279
 9840TIP3   OH253714   6.868   4.268   1.874 -0.3376  0.1571 -0.3861
 9840TIP3    H153715   6.836   4.342   1.822 -1.0713  0.6829  0.7756
 9840TIP3    H253716   6.791   4.237   1.921  0.6923  1.1095  2.0789
 9841TIP3   OH253717   6.378   1.557   2.441 -0.2849 -0.7143  0.2731
 9841TIP3    H153718   6.409   1.616   2.510  1.9806 -0.2029 -1.0950
 9841TIP3    H253719   6.324   1.612   2.385 -0.1280 -0.5240  0.3076
 9842TIP3   OH253720   6.790   7.248   9.288  0.2983 -0.7893 -0.6711
 9842TIP3    H153721   6.804   7.297   9.369 -1.8596 -1.7601  0.4008
 9842TIP3    H253722   6.867   7.192   9.279  0.7043 -0.4467  0.5587
 9843TIP3   OH253723   4.213   6.392   1.974 -0.1116  0.0168 -0.7444
 9843TIP3    H153724   4.233   6.410   1.882 -1.3891  1.4330 -0.7745
 9843TIP3    H253725   4.121   6.416   1.984 -0.1803 -0.7719  0.7516
 9844TIP3   OH253726   2.491   5.084   9.256 -0.4417 -0.1808 -0.2230
 9844TIP3    H153727   2.488   5.050   9.346  2.8408  2.3890  1.0387
 9844TIP3    H253728   2.457   5.173   9.262 -0.9512 -0.2350 -1.7551
 9845TIP3   OH253729   5.807   0.120   9.502  0.1801 -1.0701  0.0641
 9845TIP3    H153730   5.784   0.043   9.553 -1.8432 -0.6097 -0.0434
 9845TIP3    H253731   5.903   0.120   9.499  0.3436 -1.7184  2.8605
 9846TIP3   OH253732   3.668   1.370   1.674 -0.7889 -0.2046  0.0727
 9846TIP3    H153733   3.726   1.309   1.627 -0.3487  0.6884 -0.5856
 9846TIP3    H253734   3.726   1.441   1.700 -1.6515  0.9184 -0.9754
 9847TIP3   OH253735   1.483   5.398   1.685 -0.3916 -0.0846 -0.2359
 9847TIP3    H153736   1.469   5.438   1.600  0.5174 -2.8789 -1.8520
 9847TIP3    H253737   1.577   5.380   1.688 -0.7732 -2.4160  0.1006
 9848TIP3   OH253738   5.360   6.085   0.629 -0.1470 -0.3153  0.4231
 9848TIP3    H153739   5.441   6.067   0.581  1.2671  1.8670  1.8146
 9848TIP3    H253740   5.343   6.005   0.678  2.8966  0.0199  2.3371
 9849TIP3   OH253741   3.997   4.824   0.592  0.0164 -0.3620 -1.0270
 9849TIP3    H153742   4.066   4.848   0.529  0.6712 -1.7815 -0.8967
 9849TIP3    H253743   4.045   4.800   0.672 -0.6501 -0.9555 -0.7932
 9850TIP3   OH253744   3.296   6.660   2.974 -0.3622 -0.6150  0.2107
 9850TIP3    H153745   3.243   6.690   3.047 -1.1219 -0.5151 -0.3636
 9850TIP3    H253746   3.385   6.660   3.007 -0.6083  0.1223  0.9108
 9851TIP3   OH253747   5.302   4.993   9.775 -0.9114 -0.2991  0.4527
 9851TIP3    H153748   5.330   5.065   9.720  2.4239 -0.3293  1.8664
 9851TIP3    H253749   5.244   4.941   9.720  0.1549  1.0663 -2.1096
 9852TIP3   OH253750   1.536   5.517   8.200  0.8064 -0.1673  0.1841
 9852TIP3    H153751   1.529   5.430   8.160  1.1271 -0.1223  0.0248
 9852TIP3    H253752   1.579   5.502   8.284  0.0418 -0.2754  0.5645
 9853TIP3   OH253753   4.836   5.949   3.118 -0.1672 -0.2322 -0.0735
 9853TIP3    H153754   4.803   6.036   3.140 -1.9266 -0.5161 -1.4418
 9853TIP3    H253755   4.898   5.929   3.189 -1.0015  1.3999  1.1932
 9854TIP3   OH253756   2.076   3.970   7.901 -0.7032 -0.3159 -0.1496
 9854TIP3    H153757   2.041   4.056   7.876 -0.7942 -0.0723  0.7851
 9854TIP3    H253758   2.001   3.911   7.897 -0.6452 -0.3568 -0.7720
 9855TIP3   OH253759   4.353   2.601   2.599  0.0906  0.4518 -0.7633
 9855TIP3    H153760   4.305   2.675   2.637 -1.4699 -0.5025 -0.7823
 9855TIP3    H253761   4.365   2.540   2.672  1.2214  0.6200 -0.7867
 9856TIP3   OH253762   3.496   2.496   1.654  0.2759 -0.1544  0.0756
 9856TIP3    H153763   3.550   2.418   1.647  0.3397 -0.1582  0.5415
 9856TIP3    H253764   3.412   2.464   1.685 -0.1717 -0.2122 -1.1401
 9857TIP3   OH253765   6.854   4.449   1.447 -0.0509 -0.1610  0.0284
 9857TIP3    H153766   6.914   4.402   1.389 -1.3494 -0.8455 -0.7998
 9857TIP3    H253767   6.811   4.513   1.390  1.6254  2.0849  1.1073
 9858TIP3   OH253768   5.333   0.003   2.584 -0.0533  0.4178  0.4369
 9858TIP3    H153769   5.240   0.011   2.560 -0.1843  1.3063  1.1586
 9858TIP3    H253770   5.336   0.032   2.675  0.9062  0.1529  0.4989
 9859TIP3   OH253771   4.575   2.558   7.903  0.2286  0.0637 -0.6526
 9859TIP3    H153772   4.582   2.466   7.925 -2.3316  0.4386  2.3957
 9859TIP3    H253773   4.489   2.568   7.863  0.9885  1.0100 -2.1921
 9860TIP3   OH253774   2.056   6.846   8.342 -0.4417  0.6300  0.1598
 9860TIP3    H153775   1.963   6.856   8.322 -0.2622 -2.4669 -3.0816
 9860TIP3    H253776   2.059   6.841   8.438 -3.8604 -0.8633  0.3444
 9861TIP3   OH253777   2.371   2.942   9.263 -0.0316  0.4648 -0.2566
 9861TIP3    H153778   2.457   2.968   9.294 -0.4256  0.9881  0.4194
 9861TIP3    H253779   2.388   2.867   9.207  0.8170  0.2669  0.2458
 9862TIP3   OH253780   2.444   7.260   2.334  0.2283  0.0345 -0.0806
 9862TIP3    H153781   2.442   7.231   2.425 -1.4268  0.1088 -0.0601
 9862TIP3    H253782   2.355   7.243   2.301  0.6305  0.5174 -1.5194
 9863TIP3   OH253783   1.210   5.646   6.598  0.5080  0.0288 -0.3373
 9863TIP3    H153784   1.135   5.689   6.557  0.8216 -0.0195 -0.9783
 9863TIP3    H253785   1.281   5.659   6.536  0.7610 -0.8883 -0.2514
 9864TIP3   OH253786   0.789   6.881   8.205 -0.0945  0.6022 -0.9297
 9864TIP3    H153787   0.708   6.831   8.219  0.8082 -0.5296  0.5347
 9864TIP3    H253788   0.766   6.971   8.228 -0.5224 -0.0061  1.1917
 9865TIP3   OH253789   1.751   7.182   8.766 -0.1447  0.2791  0.7292
 9865TIP3    H153790   1.825   7.141   8.812  0.3362 -0.3953 -0.5852
 9865TIP3    H253791   1.689   7.110   8.753 -1.0511  0.8306  1.7885
 9866TIP3   OH253792   3.268   2.412   8.118 -0.0776 -0.0461 -0.2436
 9866TIP3    H153793   3.186   2.447   8.083 -0.6079 -2.1743 -1.3132
 9866TIP3    H253794   3.310   2.368   8.043  2.3240  1.4050  0.1458
 9867TIP3   OH253795   1.325   0.110   9.317  0.2939  0.1061 -0.2117
 9867TIP3    H153796   1.246   0.104   9.263 -0.9789  2.0222  1.2842
 9867TIP3    H253797   1.310   0.050   9.390  0.0814  0.6531  0.2036
 9868TIP3   OH253798   5.391   2.325   9.321  0.3397  0.3085  0.8714
 9868TIP3    H153799   5.299   2.344   9.299  0.0664 -0.7519  1.0647
 9868TIP3    H253800   5.409   2.242   9.278  1.3898  0.7579  0.4008
 9869TIP3   OH253801   1.652   0.334   7.975  0.0722 -0.3969 -0.3216
 9869TIP3    H153802   1.743   0.354   7.953  0.1128 -1.3639 -1.1042
 9869TIP3    H253803   1.617   0.417   8.009  1.0253  0.1927 -0.7226
 9870TIP3   OH253804   0.412   1.234   8.871  0.0685 -0.8801 -0.6930
 9870TIP3    H153805   0.479   1.297   8.846  0.8022 -0.9292  1.0214
 9870TIP3    H253806   0.432   1.155   8.820  0.1156 -0.2527 -1.6478
 9871TIP3   OH253807   1.114   6.376   0.165 -0.5343 -0.7723  0.6867
 9871TIP3    H153808   1.020   6.372   0.180 -1.1889  1.9306 -1.8623
 9871TIP3    H253809   1.142   6.458   0.206  0.5538 -1.0656  0.5760
 9872TIP3   OH253810   6.694   2.271   1.383  0.0775 -0.2235  0.2393
 9872TIP3    H153811   6.665   2.275   1.474  0.0244 -0.5742  0.2398
 9872TIP3    H253812   6.765   2.335   1.377 -0.4121  0.3392  0.3440
 9873TIP3   OH253813   2.135   1.671   7.107  0.0132 -0.2127 -0.0352
 9873TIP3    H153814   2.163   1.694   7.018 -1.0196 -0.3008 -0.3911
 9873TIP3    H253815   2.048   1.708   7.115  0.1591 -0.0863  1.0035
 9874TIP3   OH253816   5.525   1.136   1.349 -0.3486 -0.3942  0.4318
 9874TIP3    H153817   5.588   1.151   1.420  0.9800 -1.4503 -0.4919
 9874TIP3    H253818   5.510   1.223   1.312  0.2045 -0.0691  0.9520
 9875TIP3   OH253819   6.293   0.740   0.127  0.4201  0.0353  0.3326
 9875TIP3    H153820   6.290   0.670   0.061  2.3206  0.0413  0.1792
 9875TIP3    H253821   6.311   0.694   0.209 -2.8374 -0.0697  1.0988
 9876TIP3   OH253822   3.320   5.840   7.422  0.1244 -0.3901 -0.3871
 9876TIP3    H153823   3.405   5.801   7.442 -0.2940 -0.3165  1.7624
 9876TIP3    H253824   3.276   5.775   7.368  0.7989 -1.3427  0.1716
 9877TIP3   OH253825   5.068   3.950   1.927  0.0297 -0.2220 -0.1828
 9877TIP3    H153826   5.155   3.919   1.901  0.1709 -0.8064  0.9235
 9877TIP3    H253827   5.079   4.045   1.937  0.7778 -0.3954  0.7850
 9878TIP3   OH253828   3.109   1.775   1.155  0.6827  0.1870 -0.0196
 9878TIP3    H153829   3.114   1.841   1.224 -0.0732  0.5206 -0.2805
 9878TIP3    H253830   3.116   1.691   1.202  0.1450  0.4092  0.4680
 9879TIP3   OH253831   2.218   2.883   0.471 -0.1927  0.0766  0.1445
 9879TIP3    H153832   2.176   2.964   0.501  0.0150  1.1838 -2.2895
 9879TIP3    H253833   2.192   2.875   0.379  2.1429 -1.0621 -0.5004
 9880TIP3   OH253834   5.675   5.163   1.847 -0.2893  0.3794  0.6063
 9880TIP3    H153835   5.723   5.082   1.827 -0.1447  0.7499 -0.6710
 9880TIP3    H253836   5.696   5.222   1.774  0.3360  1.9045  1.9532
 9881TIP3   OH253837   0.921   0.854   7.448  0.2464 -0.2331  0.5958
 9881TIP3    H153838   0.833   0.887   7.468  0.2154 -0.0688  0.2015
 9881TIP3    H253839   0.925   0.853   7.352  0.7734  0.0309  0.6076
 9882TIP3   OH253840   0.063   5.355   1.954  0.1268 -0.0349  0.0099
 9882TIP3    H153841  -0.003   5.415   1.990 -1.0015 -0.8278 -0.6889
 9882TIP3    H253842   0.142   5.408   1.948 -0.0867  0.6152  2.0168
 9883TIP3   OH253843   7.069   3.586   9.545  0.5717 -0.0878 -0.1971
 9883TIP3    H153844   6.999   3.637   9.585  1.0828 -0.7652  1.6440
 9883TIP3    H253845   7.033   3.497   9.540  1.1963 -0.3882  0.5374
 9884TIP3   OH253846   3.177   5.249   2.007  0.6377  0.0152  0.3072
 9884TIP3    H153847   3.173   5.258   1.912  1.7148 -1.9403  0.0324
 9884TIP3    H253848   3.169   5.339   2.040  1.9290  0.9318 -1.6947
 9885TIP3   OH253849   1.341   7.235   8.222 -0.0852  0.4043  0.1311
 9885TIP3    H153850   1.428   7.261   8.193 -0.0826 -0.2045 -0.4353
 9885TIP3    H253851   1.295   7.318   8.236  0.5544  0.7308  0.3550
 9886TIP3   OH253852   0.669   2.289   7.162 -0.0264 -0.6504  0.4459
 9886TIP3    H153853   0.687   2.244   7.079  0.8293  1.7570 -0.7992
 9886TIP3    H253854   0.754   2.326   7.187 -0.9602  1.6643  0.4343
 9887TIP3   OH253855   4.426   5.258   0.885 -0.1017  0.2106 -0.2378
 9887TIP3    H153856   4.391   5.333   0.837 -1.7005  1.0862  2.1048
 9887TIP3    H253857   4.349   5.206   0.906  0.3870  0.3393  2.0716
 9888TIP3   OH253858   5.603   6.248   9.344  0.3759 -0.2887  0.1979
 9888TIP3    H153859   5.568   6.184   9.406  1.7115  0.3390  1.6816
 9888TIP3    H253860   5.631   6.196   9.269  0.6483 -1.3476  1.0069
 9889TIP3   OH253861   4.663   6.677   1.551  0.3794 -0.3499  0.3720
 9889TIP3    H153862   4.642   6.731   1.474  0.1671  0.2221  0.8230
 9889TIP3    H253863   4.578   6.661   1.592  0.5827  0.0764  0.9635
 9890TIP3   OH253864   3.681   3.736   7.816  0.3721 -0.4300 -0.0866
 9890TIP3    H153865   3.600   3.786   7.804  1.7290  1.3711 -2.6726
 9890TIP3    H253866   3.710   3.759   7.905  0.8530  3.5254 -1.0496
 9891TIP3   OH253867   3.518   0.036   1.351  0.7273  0.1546  0.0460
 9891TIP3    H153868   3.567   0.057   1.431 -0.6696 -1.4254  1.4161
 9891TIP3    H253869   3.439  -0.008   1.383  0.3350 -0.9681 -2.2505
 9892TIP3   OH253870   5.837   3.881   9.244  0.1904  0.6419  0.2064
 9892TIP3    H153871   5.917   3.856   9.199  0.3536  2.4984 -0.6576
 9892TIP3    H253872   5.865   3.902   9.333  0.1881 -1.2522  0.6773
 9893TIP3   OH253873   4.469   6.572   8.904  0.3197  0.4507  0.7179
 9893TIP3    H153874   4.513   6.510   8.961 -1.2976  1.1063  2.8112
 9893TIP3    H253875   4.424   6.517   8.839  2.4890 -0.2882 -0.2520
 9894TIP3   OH253876   0.469   4.880   2.159  0.2008 -0.0283 -0.2987
 9894TIP3    H153877   0.531   4.943   2.122 -0.7361  2.8712  2.5128
 9894TIP3    H253878   0.492   4.876   2.252 -2.8092  0.0287  0.5501
 9895TIP3   OH253879   4.858   4.818   1.754 -0.6505 -0.4180 -0.0678
 9895TIP3    H153880   4.780   4.871   1.770 -1.0153  0.1386 -3.0563
 9895TIP3    H253881   4.922   4.880   1.718  0.3328 -1.3159  0.0867
 9896TIP3   OH253882   5.109   4.385   9.849  0.3679 -0.3221  0.5535
 9896TIP3    H153883   5.141   4.308   9.802 -0.9708  0.4099 -1.7884
 9896TIP3    H253884   5.186   4.441   9.859  0.8751 -0.8908 -0.0580
 9897TIP3   OH253885   2.436   0.139   9.575 -0.7439  0.5556 -0.0403
 9897TIP3    H153886   2.430   0.144   9.670 -1.6599  3.4762 -0.1596
 9897TIP3    H253887   2.347   0.155   9.544 -0.7547 -1.7379 -1.4313
 9898TIP3   OH253888   2.610   2.097   8.801 -0.0126  0.0376  0.0935
 9898TIP3    H153889   2.592   2.136   8.886 -0.7007  0.3484 -0.1869
 9898TIP3    H253890   2.606   2.003   8.816 -1.1613  0.0914  0.2064
 9899TIP3   OH253891   5.994   4.303   2.874  0.2786 -0.0446 -0.4219
 9899TIP3    H153892   5.901   4.311   2.857  0.1442  0.8124  0.5820
 9899TIP3    H253893   6.009   4.358   2.951  1.0516 -2.6118  1.3981
 9900TIP3   OH253894   4.002   0.454   1.376 -0.3193  0.3611 -0.2547
 9900TIP3    H153895   4.096   0.435   1.373 -0.3720 -0.0234  0.3561
 9900TIP3    H253896   3.976   0.460   1.284 -0.3968 -3.1026 -0.5957
 9901TIP3   OH253897   2.256   5.428   9.743 -0.0906  0.3174  0.2041
 9901TIP3    H153898   2.254   5.375   9.823  1.6652  0.3387  0.3050
 9901TIP3    H253899   2.301   5.373   9.679 -0.6326  0.6745 -0.4981
 9902TIP3   OH253900   3.851   4.508   2.319 -0.2995 -0.2379  0.4803
 9902TIP3    H153901   3.863   4.497   2.413 -1.5028  0.2417  0.7155
 9902TIP3    H253902   3.875   4.600   2.303  1.0260 -0.6380  0.1072
 9903TIP3   OH253903   0.278   2.038   9.699 -0.2404  0.3238 -0.6001
 9903TIP3    H153904   0.190   2.069   9.679 -0.5772 -0.8913 -1.0960
 9903TIP3    H253905   0.272   2.002   9.787 -0.3591 -0.1605 -0.8026
 9904TIP3   OH253906   7.251   1.497   1.207 -0.4472 -0.1884  0.3031
 9904TIP3    H153907   7.239   1.588   1.232  1.7373 -0.0582  1.1139
 9904TIP3    H253908   7.294   1.457   1.283 -0.5536 -1.6731 -0.3802
 9905TIP3   OH253909   3.520   3.097   1.090 -0.1172 -0.6750  0.2176
 9905TIP3    H153910   3.429   3.102   1.118  0.3560 -1.6790  2.0601
 9905TIP3    H253911   3.571   3.120   1.168  1.2320 -0.7146 -0.6114
 9906TIP3   OH253912   2.632   0.328   0.235  0.2118  0.0603 -0.1221
 9906TIP3    H153913   2.705   0.344   0.295  0.6056  0.5353 -0.7220
 9906TIP3    H253914   2.586   0.412   0.228 -0.9845 -0.4599  1.0005
 9907TIP3   OH253915   2.108   0.383   9.250  0.5452 -1.0892  0.4285
 9907TIP3    H153916   2.063   0.442   9.190 -0.3972 -0.8058  1.3689
 9907TIP3    H253917   2.168   0.333   9.195 -0.7685 -1.3225 -0.8633
 9908TIP3   OH253918   5.226   0.630   0.034 -0.0687 -0.5595 -0.7071
 9908TIP3    H153919   5.242   0.536   0.046 -0.9243 -0.6097  0.2016
 9908TIP3    H253920   5.216   0.642  -0.060 -0.2978 -1.4439 -0.8002
 9909TIP3   OH253921   5.641   6.096   8.774 -0.3397 -0.4655 -0.0294
 9909TIP3    H153922   5.731   6.065   8.766 -0.1777 -0.0537  0.1691
 9909TIP3    H253923   5.588   6.028   8.732 -0.0182 -1.1225  0.6299
 9910TIP3   OH253924   3.117   7.263   7.905  0.0809 -0.0028 -0.0554
 9910TIP3    H153925   3.075   7.317   7.839  0.7727  0.2330 -0.3161
 9910TIP3    H253926   3.197   7.231   7.862 -0.1738 -1.0065  0.1828
 9911TIP3   OH253927   0.596   2.638   6.744 -0.0923 -0.0401  0.1752
 9911TIP3    H153928   0.583   2.567   6.807 -1.9732 -2.3330 -2.4967
 9911TIP3    H253929   0.521   2.696   6.757  0.5590  0.5600  1.2860
 9912TIP3   OH253930   0.352   4.755   9.211 -0.6740  0.0727  0.1067
 9912TIP3    H153931   0.316   4.838   9.178 -1.0353  0.2130  0.8327
 9912TIP3    H253932   0.395   4.779   9.293 -1.9648 -0.6759  1.0253
 9913TIP3   OH253933   5.330   0.059   9.071 -0.1897  0.2725 -0.3509
 9913TIP3    H153934   5.264   0.097   9.129  0.1413 -0.3464  0.4584
 9913TIP3    H253935   5.413   0.070   9.118 -0.0530 -1.2015 -0.1858
 9914TIP3   OH253936   5.898   3.845   7.001 -0.2442  0.2302  0.2502
 9914TIP3    H153937   5.843   3.831   6.924 -0.5617 -0.6932  0.6381
 9914TIP3    H253938   5.836   3.852   7.073  0.0514  1.1391  0.4321
 9915TIP3   OH253939   2.639   6.377   9.908  0.3616 -0.3300 -0.2335
 9915TIP3    H153940   2.678   6.314   9.969  1.4343  1.2527  0.8022
 9915TIP3    H253941   2.700   6.451   9.908 -0.6906  0.5846 -1.6533
 9916TIP3   OH253942   6.867   5.274   2.347 -0.0015 -0.1791 -0.0152
 9916TIP3    H153943   6.945   5.325   2.322 -0.7868  0.3429 -1.5296
 9916TIP3    H253944   6.823   5.256   2.265 -0.1748 -2.7191  0.5480
 9917TIP3   OH253945   5.014   6.714   2.305 -0.2394  0.2346 -0.7854
 9917TIP3    H153946   4.969   6.682   2.227 -0.1343 -1.0286 -0.3446
 9917TIP3    H253947   4.971   6.797   2.325 -1.6980 -0.4543 -0.9648
 9918TIP3   OH253948   1.636   0.891   0.405 -0.1755  0.2201  0.0162
 9918TIP3    H153949   1.594   0.849   0.481 -0.6078  1.6234  0.5933
 9918TIP3    H253950   1.726   0.860   0.407 -0.7513 -1.5768 -0.2780
 9919TIP3   OH253951   5.401   0.226   8.746  0.4536 -0.3514  0.3986
 9919TIP3    H153952   5.439   0.304   8.705 -1.0910  0.1595 -0.1187
 9919TIP3    H253953   5.325   0.258   8.794 -0.6577 -1.6152 -0.4305
 9920TIP3   OH253954   5.526   1.389   2.039 -0.7705 -0.1912  0.6515
 9920TIP3    H153955   5.447   1.444   2.039 -0.7176 -0.0879  1.6475
 9920TIP3    H253956   5.535   1.361   2.130  0.1585 -0.4706  0.4841
 9921TIP3   OH253957   4.217   6.636   1.270 -0.1669  0.1183  0.4702
 9921TIP3    H153958   4.131   6.629   1.313 -0.8592  0.2044 -0.8376
 9921TIP3    H253959   4.246   6.545   1.259 -0.1425  0.0842  0.8083
 9922TIP3   OH253960   5.789   1.231   2.498  0.1618  0.2021 -0.0470
 9922TIP3    H153961   5.761   1.144   2.528 -0.8405  0.5328  0.0232
 9922TIP3    H253962   5.883   1.223   2.484  0.4625 -0.3388  1.9519
 9923TIP3   OH253963   1.859   1.386   7.570 -0.0466  0.0718  0.2470
 9923TIP3    H153964   1.925   1.450   7.545 -0.0351 -0.2299 -0.5055
 9923TIP3    H253965   1.887   1.354   7.656  0.0509  0.9262  0.5440
 9924TIP3   OH253966   2.526   4.076   8.911 -0.5322 -0.1298 -0.5860
 9924TIP3    H153967   2.494   4.134   8.980  0.5460  1.5488 -1.4413
 9924TIP3    H253968   2.464   4.089   8.839  0.1775  0.6355 -1.0764
 9925TIP3   OH253969   3.973   6.633   7.296 -0.2805 -0.1579 -0.2839
 9925TIP3    H153970   4.019   6.581   7.231 -0.1305 -1.3583  0.7401
 9925TIP3    H253971   3.907   6.681   7.247 -0.7322 -1.6823 -1.2295
 9926TIP3   OH253972   5.198   1.511   8.697 -0.2726  0.3510  0.1137
 9926TIP3    H153973   5.114   1.518   8.652 -0.5002  0.2981  0.5247
 9926TIP3    H253974   5.210   1.417   8.711 -0.0494  0.3437 -0.1170
 9927TIP3   OH253975   5.798   1.276   1.497 -0.0730 -0.0149 -0.0571
 9927TIP3    H153976   5.745   1.280   1.577  0.2085 -0.4123  0.1574
 9927TIP3    H253977   5.887   1.294   1.526  0.0073 -0.0044 -0.3075
 9928TIP3   OH253978   7.136   6.297   9.981  0.4471  0.0037  0.6872
 9928TIP3    H153979   7.214   6.330   9.936  0.5432 -0.6349  0.3739
 9928TIP3    H253980   7.094   6.240   9.916 -0.0748  0.0463  0.9855
 9929TIP3   OH253981   0.757   6.778   7.666  0.4480  0.2018  0.8218
 9929TIP3    H153982   0.717   6.842   7.725 -0.3779  0.9164 -0.4692
 9929TIP3    H253983   0.683   6.728   7.631  0.8245  0.3652 -0.2516
 9930TIP3   OH253984   1.390   3.129   7.625  0.2449 -0.3158  0.0548
 9930TIP3    H153985   1.469   3.182   7.635  0.7162 -1.1481  0.8824
 9930TIP3    H253986   1.341   3.173   7.555  1.1723  0.5230 -0.0998
 9931TIP3   OH253987   0.620   6.033   0.568 -0.3810 -0.2734  0.4728
 9931TIP3    H153988   0.608   5.939   0.552  0.0052 -0.2877  0.2536
 9931TIP3    H253989   0.533   6.071   0.556 -1.2920 -1.0182  3.7223
 9932TIP3   OH253990   2.986   5.662   0.570  0.2025  0.0350 -0.1974
 9932TIP3    H153991   3.047   5.604   0.524  0.2822 -0.1666  0.1590
 9932TIP3    H253992   3.041   5.726   0.614  0.1486 -0.0790  0.0338
 9933TIP3   OH253993   6.166   0.568   9.162 -0.0805  1.1727 -0.1731
 9933TIP3    H153994   6.225   0.567   9.237 -3.0691 -0.0659  2.4209
 9933TIP3    H253995   6.175   0.482   9.122  2.8868  2.4462 -2.6362
 9934TIP3   OH253996   6.606   5.481   1.539 -0.5304 -0.3065 -0.2995
 9934TIP3    H153997   6.676   5.451   1.596 -1.3995  0.6297  1.3374
 9934TIP3    H253998   6.565   5.400   1.507  0.3764 -0.8538 -0.1083
 9935TIP3   OH253999   2.442   3.029   0.110 -0.3823 -0.1171  0.1687
 9935TIP3    H154000   2.464   3.042   0.202 -1.0069 -2.0122  0.6337
 9935TIP3    H254001   2.367   2.969   0.111  0.4806 -1.3253 -1.5700
 9936TIP3   OH254002   4.504   4.399   1.551 -0.1176  0.3550  0.0933
 9936TIP3    H154003   4.442   4.470   1.538  0.2878  0.5030 -1.2021
 9936TIP3    H254004   4.585   4.430   1.511  0.6564 -0.0403  1.2960
 9937TIP3   OH254005   4.979   3.390   9.931 -0.2977  1.3064 -0.4415
 9937TIP3    H154006   4.964   3.467   9.876 -1.8084  0.4620 -1.2915
 9937TIP3    H254007   4.919   3.401  10.004  0.0376  1.2979 -0.1626
 9938TIP3   OH254008   2.374   6.349   0.086  0.1275 -0.0422  0.3543
 9938TIP3    H154009   2.447   6.409   0.100  1.3258 -1.1822 -0.7023
 9938TIP3    H254010   2.309   6.401   0.039  0.6182  0.7411  0.5128
 9939TIP3   OH254011   3.769   1.476   9.307 -0.1750 -0.1240 -0.3891
 9939TIP3    H154012   3.824   1.497   9.382  1.4190 -2.8036 -0.7044
 9939TIP3    H254013   3.689   1.441   9.345  0.0160 -0.0787  0.0627
 9940TIP3   OH254014   0.600   0.415   0.471  0.0125 -0.2240  0.2456
 9940TIP3    H154015   0.563   0.436   0.385 -0.1674 -1.3355  0.0339
 9940TIP3    H254016   0.620   0.500   0.510 -0.1557  0.3062 -0.7838
 9941TIP3   OH254017   6.327   1.723   0.874  0.3362  0.3977  0.3848
 9941TIP3    H154018   6.246   1.767   0.849  0.5954  1.0819  0.7255
 9941TIP3    H254019   6.313   1.698   0.966 -0.2864 -1.3550 -0.1363
 9942TIP3   OH254020   4.193   0.719   0.546 -0.7071  0.2561  0.4525
 9942TIP3    H154021   4.246   0.757   0.616  0.5373 -0.3900 -0.1270
 9942TIP3    H254022   4.198   0.625   0.560  2.5751 -0.2012 -2.5034
 9943TIP3   OH254023   3.776   2.439   6.990 -0.2538  0.2120  0.0811
 9943TIP3    H154024   3.824   2.485   6.921  0.1975  2.2155  1.6352
 9943TIP3    H254025   3.796   2.347   6.976  1.0244  0.6934 -1.5551
 9944TIP3   OH254026   6.528   6.623   2.331 -0.2999  0.1262 -0.0845
 9944TIP3    H154027   6.556   6.532   2.317  0.9238  0.1706  1.7834
 9944TIP3    H254028   6.523   6.633   2.426 -0.1344  2.1058 -0.2359
 9945TIP3   OH254029   2.454   4.869   7.485  0.5344 -0.5876  0.0082
 9945TIP3    H154030   2.445   4.794   7.426 -1.2111 -1.7645  1.6585
 9945TIP3    H254031   2.546   4.895   7.476  0.5026 -1.1373 -2.6581
 9946TIP3   OH254032   6.782   2.631   2.191 -0.0464 -0.5645 -0.0560
 9946TIP3    H154033   6.843   2.697   2.159  0.7656 -0.7106  1.1202
 9946TIP3    H254034   6.824   2.547   2.171 -0.9906 -0.7414 -1.3861
 9947TIP3   OH254035   0.212   1.857   0.928 -0.0899  0.1031  0.5812
 9947TIP3    H154036   0.169   1.884   0.846 -0.1841 -0.0106  0.5931
 9947TIP3    H254037   0.140   1.850   0.991  0.2054  2.3969  1.2950
 9948TIP3   OH254038   4.064   0.545   0.145 -0.1036  0.2610  0.1955
 9948TIP3    H154039   4.119   0.488   0.199  0.2313  0.6128  0.2242
 9948TIP3    H254040   4.120   0.619   0.122 -0.4246  0.4021 -0.1505
 9949TIP3   OH254041   3.863   1.195   0.887  0.0113  0.5961 -0.2701
 9949TIP3    H154042   3.820   1.111   0.877  1.6419 -0.6072  1.9275
 9949TIP3    H254043   3.928   1.197   0.817 -0.1843  0.1335 -0.4687
 9950TIP3   OH254044   0.039   5.555   9.495  0.4506 -0.1700 -0.1820
 9950TIP3    H154045   0.026   5.593   9.408 -0.0092  0.4786  0.1650
 9950TIP3    H254046   0.007   5.465   9.487 -1.7884  0.5632 -0.0921
 9951TIP3   OH254047   3.837   2.990   1.914 -0.1726 -0.1258 -0.2366
 9951TIP3    H154048   3.785   3.066   1.891  0.4226  0.9035  1.5809
 9951TIP3    H254049   3.855   2.947   1.831 -1.6126  0.9901 -1.1717
 9952TIP3   OH254050   7.085   5.929   0.419 -0.3317  0.7247 -0.2765
 9952TIP3    H154051   7.015   5.881   0.463  0.4128 -2.0291 -1.8634
 9952TIP3    H254052   7.050   5.947   0.332  0.2902  0.9670 -0.4792
 9953TIP3   OH254053   0.714   5.696   1.195  0.1071  0.5197 -0.5941
 9953TIP3    H154054   0.726   5.648   1.113  0.3031 -1.3156  0.4464
 9953TIP3    H254055   0.619   5.708   1.202 -0.1502 -1.4041 -0.0293
 9954TIP3   OH254056   5.375   3.431   9.011  0.5136 -0.6127  0.4257
 9954TIP3    H154057   5.317   3.432   9.087  1.4636  0.4372  1.1665
 9954TIP3    H254058   5.395   3.338   8.997 -1.9492 -1.0861 -0.3561
 9955TIP3   OH254059   2.748   5.544   2.481 -0.5134 -0.0600 -0.6359
 9955TIP3    H154060   2.800   5.486   2.425  0.7532  0.2002  0.2103
 9955TIP3    H254061   2.678   5.576   2.425 -0.5497 -1.4825 -1.4522
 9956TIP3   OH254062   4.749   3.373   2.467  0.6592  0.9172  0.4303
 9956TIP3    H154063   4.687   3.302   2.449 -0.1255  1.4875  0.8172
 9956TIP3    H254064   4.826   3.351   2.416  0.4212 -0.2046  0.5239
 9957TIP3   OH254065   6.062   2.741   7.993  0.0709  0.9264  0.6128
 9957TIP3    H154066   5.985   2.782   8.031 -0.2375 -0.0819  1.1124
 9957TIP3    H254067   6.084   2.670   8.054  0.9738  0.7669  0.1166
 9958TIP3   OH254068   4.003   1.401   9.779  0.1908  0.5130  0.6529
 9958TIP3    H154069   4.027   1.320   9.825  0.4799  2.0802  3.5450
 9958TIP3    H254070   4.085   1.451   9.775 -0.2034  1.1191 -0.0824
 9959TIP3   OH254071   3.580   0.865   1.631  0.1836  0.3631  0.5374
 9959TIP3    H154072   3.632   0.897   1.704  0.6333 -1.6221  1.1640
 9959TIP3    H254073   3.508   0.927   1.624  1.2300  1.7235  1.3356
 9960TIP3   OH254074   2.783   6.944   8.732 -0.5320 -0.1350 -0.0412
 9960TIP3    H154075   2.709   6.982   8.684  0.5401  1.6058 -0.3791
 9960TIP3    H254076   2.858   6.957   8.675  0.0403 -2.1929  0.1453
 9961TIP3   OH254077   4.203   3.891   8.865 -0.2089 -0.3443  0.8003
 9961TIP3    H154078   4.226   3.820   8.805  0.7023  1.1480 -0.7311
 9961TIP3    H254079   4.249   3.871   8.946  0.5587 -1.1712  0.1755
 9962TIP3   OH254080   4.121   5.027   8.744  0.8578  0.1668  0.6396
 9962TIP3    H154081   4.038   4.984   8.723  0.6417 -0.3157  2.3141
 9962TIP3    H254082   4.152   5.062   8.660 -0.7955 -0.0450 -0.1026
 9963TIP3   OH254083   5.111   0.537   7.079 -0.3983 -0.0688  0.6448
 9963TIP3    H154084   5.183   0.482   7.050 -0.2007  0.6235 -0.2303
 9963TIP3    H254085   5.150   0.600   7.140 -0.0235  0.9878 -0.6406
 9964TIP3   OH254086   5.915   0.718   7.661  0.1824 -0.8085 -0.1001
 9964TIP3    H154087   5.831   0.700   7.619  0.4084 -1.7871 -0.1613
 9964TIP3    H254088   5.926   0.647   7.724 -0.2847  0.7735  1.8662
 9965TIP3   OH254089   4.754   6.812   9.179  0.1272 -0.5736  0.3601
 9965TIP3    H154090   4.665   6.788   9.155 -0.1460 -0.7128  1.4473
 9965TIP3    H254091   4.797   6.729   9.199 -0.2001 -0.3558  2.0922
 9966TIP3   OH254092   6.278   4.538   2.062  0.1745  0.1647 -0.8084
 9966TIP3    H154093   6.336   4.560   1.989  1.7145 -0.0311  0.3036
 9966TIP3    H254094   6.320   4.463   2.104 -2.5425 -2.0968 -1.7906
 9967TIP3   OH254095   5.129   3.885   7.008 -0.2739 -0.2009 -0.1351
 9967TIP3    H154096   5.214   3.867   6.968 -0.8093 -0.3939 -1.2184
 9967TIP3    H254097   5.137   3.851   7.097  0.6994 -0.4401 -0.3057
 9968TIP3   OH254098   4.595   4.776   0.346 -0.2208 -0.3060 -0.0606
 9968TIP3    H154099   4.574   4.798   0.255  1.3970 -1.2290 -0.7052
 9968TIP3    H254100   4.686   4.804   0.356  0.0748 -1.5189  0.8242
 9969TIP3   OH254101   0.511   0.078   9.929 -0.6445 -0.0057 -0.2289
 9969TIP3    H154102   0.544   0.069  10.018 -0.5022 -1.5148 -0.4040
 9969TIP3    H254103   0.573   0.137   9.886  1.2657 -1.9346 -0.2475
 9970TIP3   OH254104   4.554   1.002   8.600  0.4897  0.0331 -0.1637
 9970TIP3    H154105   4.636   0.994   8.551  0.8603 -1.7268  0.6495
 9970TIP3    H254106   4.578   1.045   8.682  0.1110  1.7400 -0.8964
 9971TIP3   OH254107   1.944   1.164   1.216 -0.0606  0.1317 -0.0384
 9971TIP3    H154108   1.932   1.069   1.218 -0.0862  0.1477  0.6171
 9971TIP3    H254109   1.968   1.183   1.125 -1.3943 -0.3274 -0.4991
 9972TIP3   OH254110   7.065   2.850   8.634 -0.1631  1.0746  0.6724
 9972TIP3    H154111   7.156   2.831   8.613  0.1036  1.1069  1.7445
 9972TIP3    H254112   7.029   2.767   8.665 -0.8556  0.7614 -0.8637
 9973TIP3   OH254113   0.183   3.812   2.174  0.9569  0.7187  0.1926
 9973TIP3    H154114   0.223   3.728   2.151 -1.4484 -0.1550 -1.1320
 9973TIP3    H254115   0.145   3.844   2.093 -1.2479  1.3128  1.3869
 9974TIP3   OH254116   1.212   0.235   8.062  0.1282 -0.2645  0.2211
 9974TIP3    H154117   1.158   0.190   8.127 -0.1779 -1.8680 -1.0738
 9974TIP3    H254118   1.177   0.208   7.977  0.0236  2.3861 -0.6746
 9975TIP3   OH254119   2.489   4.847   2.068  0.3003 -0.7881 -0.9271
 9975TIP3    H154120   2.522   4.931   2.100  1.4454 -1.0983 -1.2292
 9975TIP3    H254121   2.427   4.818   2.134 -0.5376  0.5523 -1.0924
 9976TIP3   OH254122   0.109   5.898   1.460 -0.1897 -0.4585  0.6868
 9976TIP3    H154123   0.030   5.868   1.414  0.0914 -1.1262  0.6290
 9976TIP3    H254124   0.097   5.993   1.469 -1.3695 -0.6512  1.3752
 9977TIP3   OH254125   2.740   5.737   6.458 -0.0012  0.2280  0.5538
 9977TIP3    H154126   2.763   5.651   6.495  0.0510  0.5696  1.3313
 9977TIP3    H254127   2.824   5.784   6.455  0.1938 -0.1758 -1.0530
 9978TIP3   OH254128   4.729   3.740   1.535  0.5452  0.4185  0.3271
 9978TIP3    H154129   4.641   3.704   1.550  0.3018  0.7412 -0.2935
 9978TIP3    H254130   4.743   3.799   1.609  0.6827 -0.4383  1.0029
 9979TIP3   OH254131   6.588   0.061   0.313 -0.1413 -0.1178 -0.2159
 9979TIP3    H154132   6.613  -0.030   0.332 -0.7716  0.1655  2.2720
 9979TIP3    H254133   6.521   0.053   0.245 -0.5604 -1.5887  0.3160
 9980TIP3   OH254134   0.169   2.382   8.407  0.7520 -0.0486 -0.1394
 9980TIP3    H154135   0.102   2.410   8.470  1.4571  0.0468  0.5872
 9980TIP3    H254136   0.133   2.406   8.322 -0.2435 -0.2114  0.2130
 9981TIP3   OH254137   5.720   4.785   2.492 -0.1014  0.2373  0.0245
 9981TIP3    H154138   5.711   4.704   2.542  0.0509 -0.0725 -0.4450
 9981TIP3    H254139   5.735   4.852   2.558 -1.0344  0.0186  0.4762
 9982TIP3   OH254140   6.195   6.294   2.416 -0.7728 -0.1698 -0.4685
 9982TIP3    H154141   6.233   6.361   2.473  1.7162 -0.5221 -1.5659
 9982TIP3    H254142   6.109   6.329   2.393 -1.9238 -0.0040  3.3738
 9983TIP3   OH254143   3.619   0.109   7.038 -0.9064  0.2964  0.5760
 9983TIP3    H154144   3.589   0.039   6.980  1.0395 -0.1061 -0.0500
 9983TIP3    H254145   3.571   0.186   7.009  0.0282  0.1253 -1.7158
 9984TIP3   OH254146   6.440   1.780   6.663  0.1934  0.0588  0.5125
 9984TIP3    H154147   6.500   1.848   6.631  1.5226 -0.9840  0.7032
 9984TIP3    H254148   6.482   1.746   6.742 -0.4626 -0.9548  0.4475
 9985TIP3   OH254149   6.686   0.598   0.352  0.3472  0.0703  1.0138
 9985TIP3    H154150   6.654   0.508   0.344  1.5997 -0.3307  0.0851
 9985TIP3    H254151   6.669   0.637   0.266  3.9408 -0.7855 -0.3024
 9986TIP3   OH254152   2.473   3.190   1.099 -0.3488 -0.2634  0.4514
 9986TIP3    H154153   2.455   3.100   1.073  0.7067 -0.3893  0.1278
 9986TIP3    H254154   2.394   3.217   1.146 -0.2685 -1.6909  1.4665
 9987TIP3   OH254155   2.235   6.113   7.824  0.1458 -0.5488  0.1671
 9987TIP3    H154156   2.188   6.034   7.797 -0.7540  0.6423 -2.1052
 9987TIP3    H254157   2.280   6.142   7.744 -0.6473  1.9263  0.5293
 9988TIP3   OH254158   1.696   1.026   1.530  0.7492 -0.0559  0.3341
 9988TIP3    H154159   1.632   0.979   1.584  0.8138 -0.1738  0.3067
 9988TIP3    H254160   1.767   0.964   1.517  1.7229  0.6761  1.9082
 9989TIP3   OH254161   3.766   2.797   1.241 -0.2684  0.5654  0.1390
 9989TIP3    H154162   3.773   2.804   1.336  2.6736 -0.6343  0.1246
 9989TIP3    H254163   3.765   2.887   1.209  1.3705  1.0166  1.2435
 9990TIP3   OH254164   0.004   4.692   9.993 -0.3732 -0.4529  0.1321
 9990TIP3    H154165   0.057   4.617   9.967  2.1343  1.3500 -0.4046
 9990TIP3    H254166   0.002   4.690  10.088  0.2339 -0.8566  0.1358
 9991TIP3   OH254167   3.433   1.584   0.057  0.0199 -0.2369  0.4946
 9991TIP3    H154168   3.412   1.560  -0.033 -0.2938  0.2153  0.4477
 9991TIP3    H254169   3.516   1.539   0.075 -0.0854 -0.5990  0.0964
 9992TIP3   OH254170   1.392   1.502   7.013  0.0822  0.1676 -0.3446
 9992TIP3    H154171   1.427   1.547   7.090 -0.6900  0.3755 -0.1111
 9992TIP3    H254172   1.469   1.486   6.958  0.5492  0.6019  0.1692
 9993TIP3   OH254173   3.379   5.479   7.031 -1.1498  0.0561 -0.3382
 9993TIP3    H154174   3.435   5.453   7.103 -1.3657 -0.1890 -0.2559
 9993TIP3    H254175   3.388   5.409   6.966 -2.4361 -0.7249  0.2691
 9994TIP3   OH254176   3.256   6.976   9.819  0.2538  0.3286  0.2440
 9994TIP3    H154177   3.232   6.989   9.911 -0.9888 -1.8365  0.2984
 9994TIP3    H254178   3.174   6.951   9.777  1.3690 -2.1130 -0.6911
 9995TIP3   OH254179   3.685   2.060   0.917 -0.4273 -0.1158 -0.0303
 9995TIP3    H154180   3.648   1.975   0.941 -2.0593  0.3993 -0.5427
 9995TIP3    H254181   3.610   2.119   0.918  0.7203  1.4086  0.6392
 9996TIP3   OH254182   5.751   7.015   9.297  0.3444  0.2062  0.2742
 9996TIP3    H154183   5.700   7.027   9.378 -1.5970 -0.8288 -0.7316
 9996TIP3    H254184   5.785   6.926   9.304 -0.6728 -0.2536 -0.4766
 9997TIP3   OH254185   4.913   2.281   0.368  0.3737 -0.6773  0.2312
 9997TIP3    H154186   4.991   2.227   0.370  0.8649  0.0209  0.2904
 9997TIP3    H254187   4.875   2.271   0.456  1.2627  0.2113  0.7330
 9998TIP3   OH254188   5.761   2.672   2.520  0.1141 -0.5323 -0.0915
 9998TIP3    H154189   5.713   2.701   2.598  0.4125  0.1476 -0.1595
 9998TIP3    H254190   5.807   2.593   2.549 -0.1898 -0.5829  0.2714
 9999TIP3   OH254191   5.625   2.113   0.310  0.2650 -0.1645  0.5774
 9999TIP3    H154192   5.556   2.121   0.376 -0.6519  0.9433 -0.4530
 9999TIP3    H254193   5.698   2.073   0.357 -1.9033 -4.0852  1.0673
10000TIP3   OH254194   4.846   0.183   0.116  0.1212 -0.1358  0.4980
10000TIP3    H154195   4.784   0.249   0.083  2.8697  2.9371  0.9704
10000TIP3    H254196   4.875   0.138   0.037 -0.9544 -0.0132  0.0031
10001TIP3   OH254197   4.744   2.265   0.606 -1.1372  0.1088  0.0655
10001TIP3    H154198   4.649   2.281   0.606 -1.3250 -0.8925  0.9618
10001TIP3    H254199   4.753   2.175   0.638  0.1349  0.2950  0.2820
10002TIP3   OH254200   4.177   1.359   7.639  0.0658 -0.1927 -0.1877
10002TIP3    H154201   4.124   1.426   7.682 -0.6189  0.0156 -1.3191
10002TIP3    H254202   4.195   1.295   7.708 -1.5984 -0.2369  0.2465
10003TIP3   OH254203   7.268   2.762   2.442  0.7392  0.5793  0.2139
10003TIP3    H154204   7.309   2.845   2.466  1.5270  0.1033  0.5423
10003TIP3    H254205   7.238   2.724   2.524 -3.0380  2.2157 -0.1936
10004TIP3   OH254206   3.585   6.901   2.569 -0.2568 -0.0970 -0.2355
10004TIP3    H154207   3.524   6.876   2.500 -0.5034 -0.4989  0.1194
10004TIP3    H254208   3.557   6.988   2.596  0.2906  0.3790 -1.1340
10005TIP3   OH254209   3.873   3.294   0.120 -0.4011 -0.0275  0.8869
10005TIP3    H154210   3.951   3.242   0.138 -0.0654  0.8098  1.9360
10005TIP3    H254211   3.801   3.243   0.156 -0.4900 -1.2372 -0.8790
10006TIP3   OH254212   6.407   4.932   0.635 -0.2941 -0.2789  0.0105
10006TIP3    H154213   6.355   4.959   0.559 -1.7825 -1.2220  0.6460
10006TIP3    H254214   6.491   4.905   0.598 -1.0040 -0.7643 -1.3316
10007TIP3   OH254215   5.735   3.398   8.567  0.6749 -0.3559 -0.6072
10007TIP3    H154216   5.798   3.370   8.633 -1.1049 -1.2819  0.7573
10007TIP3    H254217   5.649   3.385   8.607 -0.4227  1.1467 -2.2854
10008TIP3   OH254218   4.595   2.288   2.679 -0.2249 -0.0765 -0.1928
10008TIP3    H154219   4.688   2.284   2.660 -0.2582 -0.8582 -0.2582
10008TIP3    H254220   4.568   2.196   2.682 -1.1710  0.1555 -1.0412
10009TIP3   OH254221   2.795   1.876   9.795 -0.9427 -0.1334  0.0261
10009TIP3    H154222   2.856   1.804   9.808 -1.8659 -0.6470  1.8263
10009TIP3    H254223   2.720   1.855   9.850 -1.2249  2.1988  0.6724
10010TIP3   OH254224   1.176   5.180   0.482 -0.2619 -0.5560 -0.4658
10010TIP3    H154225   1.201   5.218   0.397  0.2180  0.0211 -0.0739
10010TIP3    H254226   1.159   5.087   0.462 -2.1825 -0.0170 -1.5799
10011TIP3   OH254227   6.083   5.186   0.042  0.2901 -0.5406  0.6205
10011TIP3    H154228   6.020   5.114   0.051  0.0084 -0.3630  0.1587
10011TIP3    H254229   6.153   5.150  -0.012 -0.9546  0.1778 -1.6096
10012TIP3   OH254230   6.690   0.563   6.915  0.3184  0.0169 -0.2350
10012TIP3    H154231   6.690   0.513   6.833  1.2048 -0.6553  0.1576
10012TIP3    H254232   6.598   0.581   6.932 -0.1696 -2.5822  0.2532
10013TIP3   OH254233   4.596   5.213   8.492  0.3007 -0.2138  0.0560
10013TIP3    H154234   4.677   5.171   8.460  0.0264 -1.0798  0.4748
10013TIP3    H254235   4.555   5.248   8.413  0.4439 -0.9039 -0.3282
10014TIP3   OH254236   5.679   2.233   8.948  0.1473 -0.2090 -0.2748
10014TIP3    H154237   5.707   2.160   8.892  2.3063 -0.5971  1.1588
10014TIP3    H254238   5.664   2.305   8.888  2.3045 -0.6378 -1.4322
10015TIP3   OH254239   2.216   3.349   0.255 -0.0709 -0.0240  0.1128
10015TIP3    H154240   2.244   3.385   0.340 -0.1043 -0.8067  0.4636
10015TIP3    H254241   2.296   3.344   0.203  0.1336 -0.4981  0.4607
10016TIP3   OH254242   0.159   1.791   7.728  0.2327 -0.2364  0.0880
10016TIP3    H154243   0.154   1.727   7.656 -0.1404  0.3419 -0.4154
10016TIP3    H254244   0.111   1.867   7.695 -1.1132 -0.4448  1.4580
10017TIP3   OH254245   7.025   6.025   7.283  0.0935 -0.3573 -0.2830
10017TIP3    H154246   7.058   6.034   7.194  0.5551 -1.3263 -0.2202
10017TIP3    H254247   7.081   6.082   7.336 -0.1416  0.1693 -0.5867
10018TIP3   OH254248   6.833   0.937   0.758  0.3405 -0.4381  0.3458
10018TIP3    H154249   6.881   1.001   0.810  3.5809 -1.3600 -1.2432
10018TIP3    H254250   6.869   0.853   0.785  0.1883 -1.1217 -1.4725
10019TIP3   OH254251   0.770   0.999   8.894 -0.4656  0.3124 -0.0180
10019TIP3    H154252   0.685   1.013   8.936 -0.2018  1.2512  0.2218
10019TIP3    H254253   0.817   1.081   8.907  0.4627 -0.1775 -0.1966
10020TIP3   OH254254   3.066   0.281   0.880  1.0198  0.5447 -0.0183
10020TIP3    H154255   3.155   0.313   0.866  1.1634 -0.2069 -0.9750
10020TIP3    H254256   3.060   0.204   0.824 -0.0393  0.2287  0.5098
10021TIP3   OH254257   5.240   1.572   9.655  0.1089 -0.2297 -0.1118
10021TIP3    H154258   5.321   1.582   9.706  1.2754  0.9933 -2.0349
10021TIP3    H254259   5.196   1.657   9.664  1.7608  1.1589 -3.2245
10022TIP3   OH254260   7.024   3.696   6.849 -0.3311 -0.9117 -0.1329
10022TIP3    H154261   6.992   3.621   6.799  2.0208 -2.1156  0.0071
10022TIP3    H254262   7.111   3.714   6.812 -1.0253  2.1825 -0.5536
10023TIP3   OH254263   1.404   6.685   1.220  0.7138  0.2191  0.7542
10023TIP3    H154264   1.363   6.759   1.176  0.0678 -0.4659  0.1780
10023TIP3    H254265   1.480   6.723   1.265 -0.0024  1.3381  1.0522
10024TIP3   OH254266   3.027   7.148   8.149  0.1592 -1.0654  0.1490
10024TIP3    H154267   3.118   7.145   8.178  0.5735  1.6247 -0.5907
10024TIP3    H254268   3.031   7.182   8.059 -1.5269 -2.0394 -0.3447
10025TIP3   OH254269   1.344   6.405   1.236  0.5790 -0.0575 -0.2615
10025TIP3    H154270   1.369   6.494   1.211 -0.8929 -0.1714 -2.5074
10025TIP3    H254271   1.400   6.349   1.182  0.6323 -0.4831  0.2264
10026TIP3   OH254272   1.973   2.652   8.717  0.4115 -0.0823 -0.3961
10026TIP3    H154273   2.047   2.630   8.660  0.0339  0.9204 -1.3113
10026TIP3    H254274   1.947   2.740   8.690 -0.1663  0.1838  0.9471
10027TIP3   OH254275   5.978   1.321   2.092 -1.2824 -0.0414 -0.3548
10027TIP3    H154276   6.052   1.272   2.126 -1.1067 -1.0833 -2.1315
10027TIP3    H254277   5.971   1.398   2.150  0.6430 -0.3411  0.3323
10028TIP3   OH254278   5.704   5.551   1.448  0.2798 -0.2080 -0.1993
10028TIP3    H154279   5.679   5.585   1.533 -0.3599  1.3805 -0.9835
10028TIP3    H254280   5.689   5.624   1.387  1.8480 -0.9013 -1.4980
10029TIP3   OH254281   2.429   1.478   9.701  0.2945 -0.8724 -0.5888
10029TIP3    H154282   2.351   1.426   9.687 -0.4727  0.4131 -1.2980
10029TIP3    H254283   2.410   1.529   9.780  1.2081 -1.9356  0.3486
10030TIP3   OH254284   1.960   6.771   7.802 -0.0556  0.0871  0.3399
10030TIP3    H154285   2.018   6.707   7.844  0.1192  0.2258  0.3129
10030TIP3    H254286   1.892   6.718   7.760  0.9146 -0.1751 -0.9624
10031TIP3   OH254287   0.742   0.674   9.950  0.1828 -0.2790  0.2336
10031TIP3    H154288   0.736   0.604   9.886  0.5672 -0.5195  0.4582
10031TIP3    H254289   0.652   0.686   9.981  0.1973 -1.0248  0.5716
10032TIP3   OH254290   1.175   3.507   7.433 -0.1067 -0.3042 -0.2644
10032TIP3    H154291   1.248   3.445   7.436 -0.1232 -0.2865  0.4843
10032TIP3    H254292   1.104   3.464   7.480 -0.8520 -0.6420 -1.6233
10033TIP3   OH254293   3.385   5.684   9.238 -0.0457  0.7544  0.1944
10033TIP3    H154294   3.387   5.625   9.314  1.5629  1.5311  0.8013
10033TIP3    H254295   3.456   5.746   9.254  1.5143 -0.0781 -2.7703
10034TIP3   OH254296   2.491   2.294   8.618  0.2914  0.1250  0.2661
10034TIP3    H154297   2.412   2.318   8.667 -0.6847 -0.3131 -1.0412
10034TIP3    H254298   2.533   2.228   8.673 -1.6659 -1.6074 -0.1624
10035TIP3   OH254299   4.164   4.296   7.590 -0.1996 -0.0087 -0.1788
10035TIP3    H154300   4.082   4.330   7.628 -0.1572  0.3943 -0.4394
10035TIP3    H254301   4.167   4.335   7.503  0.3928  0.1799 -0.0758
10036TIP3   OH254302   1.531   3.342   9.562  0.2444 -0.9046  0.0093
10036TIP3    H154303   1.456   3.397   9.582 -0.2384 -1.1422 -1.0373
10036TIP3    H254304   1.583   3.340   9.642  0.5602  1.4979 -0.0883
10037TIP3   OH254305   6.304   1.011   0.239  0.3625 -0.0587  0.4521
10037TIP3    H154306   6.223   1.056   0.261  0.4531  0.0778  0.5038
10037TIP3    H254307   6.276   0.924   0.210  0.2561 -0.3356  1.3523
10038TIP3   OH254308   7.024   5.911   0.162 -0.1903  0.2845  0.4596
10038TIP3    H154309   7.103   5.921   0.109 -1.6994  1.3812 -1.7619
10038TIP3    H254310   7.027   5.821   0.194  1.5035  0.0444 -0.2690
10039TIP3   OH254311   2.602   2.309   2.021 -0.3437  0.2232  0.5704
10039TIP3    H154312   2.598   2.230   2.075  2.4122 -0.2383  0.2348
10039TIP3    H254313   2.670   2.290   1.956 -0.7429  2.3029 -0.5334
10040TIP3   OH254314   0.630   2.952   9.498 -0.0640 -0.3160  0.1806
10040TIP3    H154315   0.638   3.001   9.417 -1.4042  1.5653  1.1252
10040TIP3    H254316   0.543   2.913   9.494 -0.6715  0.8612  1.2305
10041TIP3   OH254317   4.242   2.379   8.933  0.0622  0.1346  0.2590
10041TIP3    H154318   4.288   2.295   8.939  1.1984  0.6471 -0.8469
10041TIP3    H254319   4.311   2.445   8.945 -0.4438  0.9197 -0.9951
10042TIP3   OH254320   5.673   1.975   8.486 -0.0704 -0.5082  0.4456
10042TIP3    H154321   5.642   2.065   8.496  0.5699  0.1493 -2.4381
10042TIP3    H254322   5.593   1.925   8.466 -0.0754  0.1350 -1.3784
10043TIP3   OH254323   6.405   4.638   8.700  0.0942 -0.1247 -0.5247
10043TIP3    H154324   6.320   4.670   8.670  0.3017 -1.9007 -3.3575
10043TIP3    H254325   6.463   4.714   8.691 -0.9822  0.9109  0.7956
10044TIP3   OH254326   3.456   1.376   8.259 -0.5054  0.2063  0.4374
10044TIP3    H154327   3.368   1.402   8.285 -0.3396  0.3927  0.8147
10044TIP3    H254328   3.502   1.458   8.242 -0.1944  0.1420  0.9385
10045TIP3   OH254329   4.235   2.780   0.765  0.3390  1.0748 -0.2548
10045TIP3    H154330   4.233   2.702   0.821  1.4038  0.8626 -0.4905
10045TIP3    H254331   4.242   2.853   0.826 -1.6739  1.0848  0.0191
10046TIP3   OH254332   1.140   0.168   0.943 -0.2872 -0.1308 -0.4286
10046TIP3    H154333   1.144   0.090   0.887  0.8900 -0.1841 -0.2921
10046TIP3    H254334   1.224   0.168   0.989 -0.3281  1.1625 -0.3382
10047TIP3   OH254335   6.102   6.838   1.843  0.5678  0.6846  0.4678
10047TIP3    H154336   6.017   6.795   1.851  0.5256  0.9367  1.4889
10047TIP3    H254337   6.160   6.786   1.899  1.4427 -0.3079 -1.2538
10048TIP3   OH254338   3.092   1.113   1.982 -0.7310 -0.4164 -0.5022
10048TIP3    H154339   3.148   1.188   1.962 -1.2469 -0.2910 -1.5091
10048TIP3    H254340   3.005   1.138   1.952 -0.8617 -1.5038 -1.1041
10049TIP3   OH254341   1.597   6.122   0.208 -0.4432  0.2068 -0.5380
10049TIP3    H154342   1.525   6.148   0.265  0.1436  1.0297 -0.1541
10049TIP3    H254343   1.555   6.101   0.125 -1.1401  0.6099 -0.3009
10050TIP3   OH254344   1.331   5.172   0.713  0.0380  0.7141 -0.6238
10050TIP3    H154345   1.274   5.165   0.637 -1.4995 -0.2244  0.5685
10050TIP3    H254346   1.331   5.266   0.734 -2.1503  0.5879  0.1201
10051TIP3   OH254347   5.454   4.896   9.994  0.3015  0.0257 -0.0787
10051TIP3    H154348   5.393   4.921   9.925  1.4514 -1.1933 -1.6194
10051TIP3    H254349   5.513   4.971  10.001 -1.7693  1.6032  2.0580
10052TIP3   OH254350   5.163   4.703   1.414  0.3185  0.3140 -0.9065
10052TIP3    H154351   5.258   4.708   1.427  0.5923  0.7266 -2.7341
10052TIP3    H254352   5.136   4.794   1.399 -0.2090  0.0941 -1.3246
10053TIP3   OH254353   4.902   0.418   9.947 -0.2865 -0.4013  0.1300
10053TIP3    H154354   4.976   0.378   9.901 -1.1709 -1.0366 -0.7856
10053TIP3    H254355   4.827   0.362   9.924 -0.7146 -1.0054  2.6832
10054TIP3   OH254356   5.123   3.827   8.056  0.6319 -0.0700  0.2771
10054TIP3    H154357   5.056   3.790   8.114  1.4963 -0.2133  1.2248
10054TIP3    H254358   5.194   3.851   8.115  2.5896 -2.4683 -0.9141
10055TIP3   OH254359   2.079   4.762   1.439  0.0546 -0.0990  0.0177
10055TIP3    H154360   2.132   4.688   1.471 -1.9191 -2.0794 -1.0141
10055TIP3    H254361   2.115   4.780   1.352  2.5771  2.3944  1.3970
10056TIP3   OH254362   1.925   4.470   0.359 -0.1881  0.0074  0.2991
10056TIP3    H154363   2.010   4.427   0.364  0.4316  1.2879  2.1720
10056TIP3    H254364   1.937   4.541   0.296 -0.0041 -0.1203  0.1927
10057TIP3   OH254365   3.020   5.227   8.709 -0.3528  0.1327 -0.3332
10057TIP3    H154366   3.012   5.254   8.800  1.3427 -0.7566  0.1120
10057TIP3    H254367   2.929   5.215   8.680 -0.9012 -0.2729  1.4379
10058TIP3   OH254368   4.649   1.999   8.869  1.0848 -0.4077 -0.1210
10058TIP3    H154369   4.600   2.002   8.787  1.0020  1.8441 -0.0745
10058TIP3    H254370   4.741   2.007   8.842  1.0590  0.3132 -0.0336
10059TIP3   OH254371   6.188   2.562   9.000 -0.2594  0.3089  0.4151
10059TIP3    H154372   6.193   2.655   8.981  0.2131  0.2657  0.3102
10059TIP3    H254373   6.170   2.557   9.093 -1.7192  0.5164  0.1669
10060TIP3   OH254374   7.221   3.609   8.858  0.1024  0.3808 -0.2688
10060TIP3    H154375   7.231   3.543   8.927 -3.0563 -1.6102 -1.4911
10060TIP3    H254376   7.202   3.690   8.905  0.4493 -0.3819  1.2399
10061TIP3   OH254377   5.298   5.805   8.485 -0.1029 -0.2409 -0.0733
10061TIP3    H154378   5.272   5.714   8.470  0.2010 -0.1519 -1.2561
10061TIP3    H254379   5.247   5.833   8.561  0.4051 -1.6430  0.8264
10062TIP3   OH254380   4.318   0.878   2.505 -0.0805  0.0888  0.1024
10062TIP3    H154381   4.395   0.935   2.510 -0.6425  0.8209  0.5455
10062TIP3    H254382   4.339   0.805   2.564  1.8526 -1.7038 -2.5890
10063TIP3   OH254383   3.984   2.763   7.295 -0.1510 -0.1877  0.7839
10063TIP3    H154384   3.947   2.829   7.354  1.0457 -0.2649  1.6725
10063TIP3    H254385   4.076   2.788   7.286  0.1265 -1.2624  0.4812
10064TIP3   OH254386   4.227   2.152   2.316 -0.1458  0.0002  0.1083
10064TIP3    H154387   4.276   2.200   2.249  1.3577  0.2058  1.2992
10064TIP3    H254388   4.211   2.066   2.278  0.6909  0.1142 -0.5236
10065TIP3   OH254389   4.505   5.665   9.105  0.1763 -0.1361  0.0043
10065TIP3    H154390   4.465   5.617   9.177  0.7687 -1.0898 -0.2905
10065TIP3    H254391   4.464   5.630   9.027 -1.1437  1.5495 -0.1015
10066TIP3   OH254392   2.764   6.595   7.637 -0.3617 -0.0526 -0.0188
10066TIP3    H154393   2.700   6.626   7.573  0.1293 -1.6614 -1.3421
10066TIP3    H254394   2.717   6.597   7.720 -1.9370 -0.5777 -0.8559
10067TIP3   OH254395   1.743   2.205   8.299 -0.3034  0.2631 -0.4662
10067TIP3    H154396   1.720   2.197   8.391 -0.9501 -1.3858 -0.7395
10067TIP3    H254397   1.660   2.216   8.254 -0.1635 -0.6867 -0.9935
10068TIP3   OH254398   6.380   3.015   8.408 -0.0052 -0.1717  0.4069
10068TIP3    H154399   6.420   3.066   8.478 -1.6861 -0.4718  1.6353
10068TIP3    H254400   6.364   3.079   8.338 -0.3746  0.6000  1.1861
10069TIP3   OH254401   2.066   5.117   1.060  0.2691  0.2387 -0.3839
10069TIP3    H154402   2.074   5.209   1.087  0.1747 -0.1199  0.9084
10069TIP3    H254403   2.085   5.067   1.139  0.8182 -0.8756 -1.1939
10070TIP3   OH254404   4.281   3.831   2.142 -0.6986 -0.3201 -1.3902
10070TIP3    H154405   4.266   3.884   2.220  0.2177  0.0728 -1.4580
10070TIP3    H254406   4.312   3.894   2.076 -1.1478 -0.6939 -1.9692
10071TIP3   OH254407   2.036   5.687   9.281  0.9300 -0.0099  0.1589
10071TIP3    H154408   1.959   5.662   9.330  0.6763  1.0923  0.3493
10071TIP3    H254409   2.010   5.765   9.232  1.0089 -1.3250 -2.1533
10072TIP3   OH254410   1.219   0.305   2.098  0.5913  0.3078  0.0701
10072TIP3    H154411   1.298   0.341   2.138 -1.3471  2.0406  2.7187
10072TIP3    H254412   1.209   0.219   2.137 -0.4617  1.3843  2.3582
10073TIP3   OH254413   5.572   0.537   0.488  0.0590 -0.1902 -0.4393
10073TIP3    H154414   5.564   0.537   0.584  0.5464  0.4045 -0.3898
10073TIP3    H254415   5.631   0.465   0.469  0.8502  0.3744 -0.1949
10074TIP3   OH254416   1.096   3.387   3.006  0.0039  0.7176  0.0372
10074TIP3    H154417   1.034   3.336   3.059  0.8477  2.5808  3.0119
10074TIP3    H254418   1.040   3.443   2.952 -0.8722 -0.7797 -0.6894
10075TIP3   OH254419   5.236   0.855   9.740 -0.3827 -0.1926  0.0433
10075TIP3    H154420   5.187   0.916   9.685  0.7140  0.6869  0.0142
10075TIP3    H254421   5.178   0.779   9.749 -1.0286  0.1011 -1.4100
10076TIP3   OH254422   2.985   0.062   7.166 -0.1769 -0.0716  0.9681
10076TIP3    H154423   2.935   0.094   7.090  0.1467 -0.2684  0.6685
10076TIP3    H254424   3.033   0.140   7.196 -0.1413 -0.0405  0.8360
10077TIP3   OH254425   2.100   2.792   9.358 -0.0592 -0.1585  0.7865
10077TIP3    H154426   2.123   2.883   9.337 -1.8274  0.1427 -0.0154
10077TIP3    H254427   2.076   2.794   9.451  0.7163  0.0141  0.9888
10078TIP3   OH254428   5.011   4.041   9.754 -0.6770  0.5430  0.5252
10078TIP3    H154429   4.933   4.092   9.731 -2.0947 -1.3383  0.8161
10078TIP3    H254430   5.046   4.012   9.671 -1.3224  0.0002  0.4301
10079TIP3   OH254431   2.035   3.997   7.590 -0.4882  0.3498 -0.1936
10079TIP3    H154432   1.971   3.948   7.641 -1.0283  2.0200  0.8014
10079TIP3    H254433   2.098   3.930   7.561 -0.6962 -0.8182  1.8254
10080TIP3   OH254434   6.690   2.101   9.926 -0.1093 -0.4816  0.0679
10080TIP3    H154435   6.677   2.112   9.832  1.5070  0.3705 -0.1016
10080TIP3    H254436   6.754   2.031   9.933  0.4569  0.0587  0.4620
10081TIP3   OH254437   2.140   1.276   8.670 -0.1042 -0.0863  0.1494
10081TIP3    H154438   2.165   1.242   8.756  1.0410  1.0592  0.2974
10081TIP3    H254439   2.164   1.208   8.608  1.0114 -0.0698  0.5493
10082TIP3   OH254440   2.124   5.187   9.423 -0.6636  0.3477 -0.4045
10082TIP3    H154441   2.207   5.216   9.462  0.2890 -1.6919 -0.8041
10082TIP3    H254442   2.143   5.177   9.330 -2.1325  2.3830 -0.9888
10083TIP3   OH254443   6.993   0.326   7.253 -0.0813  0.5592 -0.0780
10083TIP3    H154444   6.961   0.340   7.342 -0.8307 -0.1313 -0.2269
10083TIP3    H254445   7.042   0.244   7.257 -0.2645  0.4346 -0.3375
10084TIP3   OH254446   2.188   5.998   9.222 -0.1844  0.1117 -0.4792
10084TIP3    H154447   2.100   6.034   9.225  0.3301  1.5009 -1.1674
10084TIP3    H254448   2.225   6.030   9.139  0.7469 -0.9673 -0.5080
10085TIP3   OH254449   5.433   3.355   0.497  0.4735 -0.6816 -0.5938
10085TIP3    H154450   5.352   3.321   0.458 -0.0269 -1.7393  1.2579
10085TIP3    H254451   5.404   3.397   0.578  1.6792 -0.1642 -0.4188
10086TIP3   OH254452   0.504   1.786   1.328 -1.0098  0.3652 -0.1133
10086TIP3    H154453   0.509   1.800   1.234 -0.4515  0.4127 -0.0797
10086TIP3    H254454   0.584   1.738   1.350 -0.4963  1.4572  0.5220
10087TIP3   OH254455   0.675   2.548   7.723 -0.4795  0.0426  0.5678
10087TIP3    H154456   0.686   2.597   7.804 -0.8434 -1.9450  1.8809
10087TIP3    H254457   0.591   2.579   7.688 -0.8067  0.2098  1.4670
10088TIP3   OH254458   2.886   3.391   0.532 -0.3516 -0.1955  0.2297
10088TIP3    H154459   2.891   3.323   0.599 -0.6683  0.1525  0.6131
10088TIP3    H254460   2.976   3.400   0.500  0.2928  1.1658  2.1617
10089TIP3   OH254461   5.394   4.508   0.651  0.4938  0.0589 -0.7950
10089TIP3    H154462   5.336   4.495   0.726  0.7244 -1.1908 -0.8256
10089TIP3    H254463   5.364   4.591   0.613 -0.7459 -0.1597 -0.3400
10090TIP3   OH254464   0.629   4.478   2.590 -0.1709 -0.0091  0.1684
10090TIP3    H154465   0.709   4.428   2.602  1.0053  1.9834  1.1206
10090TIP3    H254466   0.617   4.483   2.495  0.2590 -1.1672  0.0468
10091TIP3   OH254467   5.689   0.647   7.504 -0.2372 -0.4596  0.3925
10091TIP3    H154468   5.720   0.618   7.418  0.1488 -1.6197  0.9021
10091TIP3    H254469   5.642   0.571   7.540  0.7002 -0.4582  1.7228
10092TIP3   OH254470   1.331   3.285   7.374 -0.1809  0.1151  0.2162
10092TIP3    H154471   1.406   3.232   7.346  0.1887  0.4091  0.6427
10092TIP3    H254472   1.256   3.247   7.327 -0.3124 -2.1539  2.1151
10093TIP3   OH254473   6.286   5.261   8.920  0.6000  0.2359 -0.3012
10093TIP3    H154474   6.353   5.198   8.893  0.7359  1.6181 -3.6861
10093TIP3    H254475   6.206   5.209   8.930  1.1608 -0.7649 -0.8988
10094TIP3   OH254476   3.263   4.460   1.143  0.4090 -0.1275  0.6287
10094TIP3    H154477   3.290   4.373   1.115 -0.1922 -0.3453  0.7279
10094TIP3    H254478   3.181   4.447   1.190 -0.9605  0.7323 -1.4010
10095TIP3   OH254479   2.717   6.774   8.454  0.1285 -0.1605 -0.5946
10095TIP3    H154480   2.766   6.852   8.477  0.7270 -0.9303  0.9138
10095TIP3    H254481   2.627   6.804   8.443  0.1718  0.6239  0.9075
10096TIP3   OH254482   6.424   7.109   2.710  0.0969  0.1202  0.3754
10096TIP3    H154483   6.435   7.179   2.774 -1.8237  2.5615 -1.7729
10096TIP3    H254484   6.330   7.098   2.702  0.3243 -1.2718 -0.8885
10097TIP3   OH254485   2.888   2.909   6.847 -0.1767 -0.1732  0.0834
10097TIP3    H154486   2.978   2.912   6.881  1.4006 -3.4236 -3.0603
10097TIP3    H254487   2.896   2.938   6.757 -2.5501  0.4451  0.0218
10098TIP3   OH254488   3.861   6.479   9.389 -0.0356 -0.0304 -0.9447
10098TIP3    H154489   3.846   6.451   9.479  1.3113  1.5570 -0.1600
10098TIP3    H254490   3.937   6.429   9.360  0.6820  0.7829 -0.5115
10099TIP3   OH254491   1.837   5.566   9.538 -0.0119 -0.1041 -0.3698
10099TIP3    H154492   1.876   5.511   9.469  1.1313  2.2628 -1.7345
10099TIP3    H254493   1.905   5.572   9.605 -0.5338 -1.1357  0.2792
10100TIP3   OH254494   5.363   4.686   7.360 -0.4937 -0.0589 -0.4618
10100TIP3    H154495   5.330   4.756   7.304 -0.4621  0.0125 -0.3928
10100TIP3    H254496   5.353   4.606   7.309 -1.3862 -0.1285 -0.1858
10101TIP3   OH254497   6.372   5.905   1.699 -0.0330  0.4180 -0.3102
10101TIP3    H154498   6.383   5.920   1.605  0.6836  0.3049 -0.2501
10101TIP3    H254499   6.327   5.983   1.731  0.3639  0.7809 -0.6247
10102TIP3   OH254500   4.585   0.684   1.232  0.5045 -0.2074  0.4825
10102TIP3    H154501   4.547   0.772   1.227 -0.0198 -0.3061  2.1159
10102TIP3    H254502   4.668   0.690   1.185  1.3297  1.6420  2.0998
10103TIP3   OH254503   3.957   6.449   1.616 -0.1028 -0.3923  0.3529
10103TIP3    H154504   3.908   6.372   1.642  0.4039 -0.6872  0.4445
10103TIP3    H254505   3.903   6.523   1.646 -1.7791 -0.6214 -1.8290
10104TIP3   OH254506   0.026   0.674   8.097 -0.1924 -0.1054 -0.1074
10104TIP3    H154507   0.072   0.666   8.013 -0.4846 -0.8139 -0.2089
10104TIP3    H254508  -0.018   0.589   8.108 -0.6966  0.2230  0.4432
10105TIP3   OH254509   0.516   1.998   8.620 -0.3174 -0.0693  0.1108
10105TIP3    H154510   0.448   2.055   8.583  0.0196 -0.5346 -1.2479
10105TIP3    H254511   0.470   1.948   8.687 -1.8029 -1.6762 -1.9715
10106TIP3   OH254512   1.557   4.967   7.793  0.0781 -0.4570 -0.0275
10106TIP3    H154513   1.535   4.886   7.747  1.7301 -0.9141 -0.0882
10106TIP3    H254514   1.550   4.945   7.886  0.3225 -0.6155 -0.0457
10107TIP3   OH254515   4.176   3.617   7.396  0.5726 -0.8099 -0.1305
10107TIP3    H154516   4.116   3.558   7.352  0.2630 -0.2402 -0.4883
10107TIP3    H254517   4.260   3.605   7.352  0.9788 -2.2956  0.9829
10108TIP3   OH254518   5.356   0.885   8.837  0.1951 -0.0448 -0.1643
10108TIP3    H154519   5.344   0.880   8.742  0.1597  2.4200 -0.3629
10108TIP3    H254520   5.299   0.957   8.865  0.5541 -0.4192  1.6568
10109TIP3   OH254521   2.019   5.264   8.463 -0.4860 -0.0928  0.3842
10109TIP3    H154522   2.093   5.213   8.429 -0.4337 -0.2714  0.7582
10109TIP3    H254523   1.994   5.321   8.390  1.2661  1.3880  0.8585
10110TIP3   OH254524   1.534   4.244   1.056 -0.2033 -0.2907 -0.2009
10110TIP3    H154525   1.580   4.164   1.080 -0.6741 -0.7357 -0.7284
10110TIP3    H254526   1.444   4.230   1.087  0.0858  0.7477  1.2143
10111TIP3   OH254527   1.452   0.702   2.231  0.2946 -0.0471  0.0893
10111TIP3    H154528   1.411   0.763   2.293 -1.6989 -0.2759 -0.9020
10111TIP3    H254529   1.464   0.754   2.151 -1.2695 -0.8401 -0.7127
10112TIP3   OH254530   6.115   2.319   0.609  0.2266  0.0712 -0.6830
10112TIP3    H154531   6.175   2.355   0.544  0.2948  2.0505  0.4020
10112TIP3    H254532   6.049   2.387   0.622 -0.7249 -0.9605  0.1136
10113TIP3   OH254533   6.947   4.984   2.165  0.5815  0.3236  0.1947
10113TIP3    H154534   6.967   4.892   2.154 -0.2753  0.3250 -1.8975
10113TIP3    H254535   7.029   5.029   2.146  0.0226  0.1183 -3.5249
10114TIP3   OH254536   6.772   5.629   1.354  0.2377  0.5745 -0.1059
10114TIP3    H154537   6.691   5.583   1.378  0.2358  0.8542  0.4415
10114TIP3    H254538   6.805   5.664   1.437  0.8189  0.6286 -0.3551
10115TIP3   OH254539   1.824   5.099   6.671 -0.0293  0.3840  0.3190
10115TIP3    H154540   1.795   5.178   6.624  1.2503  0.4435 -0.4099
10115TIP3    H254541   1.919   5.097   6.658 -0.0639 -1.3851  0.1652
10116TIP3   OH254542   3.778   3.522   7.622  0.2900  0.0798  0.0286
10116TIP3    H154543   3.733   3.449   7.663  0.3922  0.9239  1.7398
10116TIP3    H254544   3.823   3.566   7.694  1.2032  1.1466 -1.1355
10117TIP3   OH254545   4.852   0.703   9.858  0.3856  0.1134  0.3821
10117TIP3    H154546   4.934   0.675   9.818  0.5043  1.0945 -0.0940
10117TIP3    H254547   4.871   0.708   9.951  1.5358  2.4022  0.0859
10118TIP3   OH254548   4.232   5.530   9.608  0.2997 -0.3792  0.1787
10118TIP3    H154549   4.253   5.617   9.642 -0.8115 -0.0695  0.1026
10118TIP3    H254550   4.250   5.536   9.515  1.7047 -0.7102  0.4111
10119TIP3   OH254551   6.698   4.163   1.047 -0.2433  0.5395 -0.3880
10119TIP3    H154552   6.680   4.070   1.032  0.3701  0.2553  0.5369
10119TIP3    H254553   6.657   4.182   1.131  0.2748  0.9135 -0.2145
10120TIP3   OH254554   0.614   1.271   7.848  0.0265 -0.3566  0.1242
10120TIP3    H154555   0.709   1.272   7.865  0.1268 -1.3119 -0.3084
10120TIP3    H254556   0.575   1.256   7.934  0.3386 -1.1161  0.1489
10121TIP3   OH254557   6.449   4.338   2.189 -0.1729 -0.1353  0.4262
10121TIP3    H154558   6.502   4.272   2.234  0.4594  1.4820  2.1788
10121TIP3    H254559   6.513   4.395   2.146 -0.7372 -1.0647 -1.7680
10122TIP3   OH254560   2.905   0.911   8.687  0.0244  0.1880  0.6388
10122TIP3    H154561   2.907   0.877   8.776  0.7564 -0.4927  0.3811
10122TIP3    H254562   2.995   0.937   8.669 -0.3102  1.2552  0.4356
10123TIP3   OH254563   4.037   7.211   7.954  0.0808  0.0356 -0.1501
10123TIP3    H154564   4.077   7.156   7.886 -1.8629 -0.2436 -1.1116
10123TIP3    H254565   4.107   7.272   7.979  1.7310 -1.6851 -0.3230
10124TIP3   OH254566   0.623   0.427   2.780 -0.3878 -0.2309  0.1241
10124TIP3    H154567   0.701   0.477   2.760  0.3144 -1.1496  0.4846
10124TIP3    H254568   0.655   0.341   2.807 -1.5937 -1.5847 -2.3661
10125TIP3   OH254569   4.372   6.223   0.583  0.5033 -0.4481  0.0958
10125TIP3    H154570   4.328   6.298   0.543  0.0681 -0.5312  0.4111
10125TIP3    H254571   4.404   6.171   0.509 -1.7419 -1.4847 -0.2340
10126TIP3   OH254572   6.115   5.213   2.584  0.1594  0.4524 -0.5992
10126TIP3    H154573   6.030   5.176   2.559  0.3605 -0.6386  0.2617
10126TIP3    H254574   6.094   5.278   2.651 -0.0407  0.5696 -0.7754
10127TIP3   OH254575   0.174   5.107   1.895  0.1964  0.5428 -0.1920
10127TIP3    H154576   0.216   5.140   1.816 -0.4294  0.9604 -0.3604
10127TIP3    H254577   0.114   5.177   1.921  1.0415  0.8208  1.1692
10128TIP3   OH254578   5.533   0.641   8.935  0.4893 -0.0360  0.4290
10128TIP3    H154579   5.553   0.669   9.024  1.1293  0.6470  0.0892
10128TIP3    H254580   5.458   0.694   8.909 -1.6063 -2.2731  1.5436
10129TIP3   OH254581   4.217   2.350   1.121 -0.1353  0.7445 -0.2701
10129TIP3    H154582   4.248   2.265   1.153  1.0693  1.1612 -0.2821
10129TIP3    H254583   4.159   2.382   1.190 -1.9007 -0.7802 -0.9697
10130TIP3   OH254584   0.163   4.757   1.990 -0.2879 -0.5577 -0.4711
10130TIP3    H154585   0.211   4.757   1.908 -0.1761 -0.3908 -0.4055
10130TIP3    H254586   0.177   4.845   2.027 -0.1806 -0.6927 -0.1825
10131TIP3   OH254587   5.590   6.045   0.475  0.1242 -0.0616  0.0274
10131TIP3    H154588   5.674   6.000   0.467  0.6862  0.5306  1.9814
10131TIP3    H254589   5.552   6.040   0.388  1.8881 -0.9195 -0.7526
10132TIP3   OH254590   0.910   6.019   8.909  0.5458 -0.1786 -0.4899
10132TIP3    H154591   0.880   6.048   8.995  3.1782 -0.9776  0.8026
10132TIP3    H254592   1.003   6.002   8.921  1.2140  0.5519 -3.7587
10133TIP3   OH254593   3.315   2.556   7.040 -0.3824  0.0073 -0.2065
10133TIP3    H154594   3.350   2.644   7.025 -0.1674 -0.3742 -2.2757
10133TIP3    H254595   3.370   2.499   6.986 -0.5046 -1.4214  1.1082
10134TIP3   OH254596   7.014   5.822   2.162  0.0311  0.3153 -0.6476
10134TIP3    H154597   6.964   5.830   2.081 -1.0078  1.6227  0.0945
10134TIP3    H254598   6.980   5.891   2.218 -0.7823 -1.8691  1.7131
10135TIP3   OH254599   4.810   5.312   2.523 -0.6025 -0.4922  0.2243
10135TIP3    H154600   4.860   5.376   2.574  0.0961  1.0404 -2.2221
10135TIP3    H254601   4.791   5.242   2.585  0.3929  1.1189  2.4976
10136TIP3   OH254602   6.644   0.374   7.199 -0.5887 -0.5391 -0.7836
10136TIP3    H154603   6.605   0.436   7.137 -0.5423  1.0113  0.6585
10136TIP3    H254604   6.737   0.372   7.176 -0.6706 -0.4536 -1.1370
10137TIP3   OH254605   5.955   6.131   1.553 -0.0776  0.0463 -0.6465
10137TIP3    H154606   6.011   6.059   1.527 -1.2961 -1.4540  0.6709
10137TIP3    H254607   6.005   6.180   1.617  0.5975  0.1572 -1.2468
10138TIP3   OH254608   4.191   1.388   2.841  0.8118  0.5527  0.0186
10138TIP3    H154609   4.270   1.381   2.895  1.7541  0.7626 -1.2831
10138TIP3    H254610   4.175   1.483   2.834  0.1278  0.4935  0.7096
10139TIP3   OH254611   3.863   6.224   1.730 -0.4550  0.6336  0.3564
10139TIP3    H154612   3.822   6.153   1.682 -1.3676  0.9221  0.6884
10139TIP3    H254613   3.952   6.192   1.748 -0.4176  0.1343 -0.6515
10140TIP3   OH254614   1.673   4.454   1.404 -0.5780  0.0246 -0.9035
10140TIP3    H154615   1.724   4.375   1.416  1.2468  1.1161 -1.1418
10140TIP3    H254616   1.649   4.481   1.492  0.1517  0.0610 -0.7154
10141TIP3   OH254617   5.420   2.761   1.971  0.0453 -0.5028 -0.0658
10141TIP3    H154618   5.433   2.854   1.988  0.2262 -0.4611 -0.4171
10141TIP3    H254619   5.390   2.725   2.055  0.9850 -0.3184  0.3636
10142TIP3   OH254620   4.379   2.139   1.388 -0.2574 -0.6080 -0.3266
10142TIP3    H154621   4.399   2.050   1.359 -0.1225 -0.3990 -0.8745
10142TIP3    H254622   4.287   2.153   1.365 -1.0994 -1.5418  2.1270
10143TIP3   OH254623   6.134   4.298   7.930  0.0690 -0.1817 -0.6874
10143TIP3    H154624   6.044   4.291   7.899  0.2237  0.0104 -1.1942
10143TIP3    H254625   6.128   4.345   8.013 -0.1806  1.0064 -1.3563
10144TIP3   OH254626   6.435   3.775   8.861 -0.1085 -0.1180 -0.1860
10144TIP3    H154627   6.353   3.726   8.864  0.4479 -1.0923 -0.7076
10144TIP3    H254628   6.498   3.721   8.907  0.6348 -0.1534 -1.1968
10145TIP3   OH254629   6.588   6.064   7.710  0.2124 -0.0353  0.3666
10145TIP3    H154630   6.681   6.045   7.702 -0.2602 -2.0539 -1.0230
10145TIP3    H254631   6.580   6.155   7.679  1.8274  0.6554  1.7780
10146TIP3   OH254632   0.404   5.564   9.991 -0.0722  0.3223  0.6105
10146TIP3    H154633   0.371   5.506   9.923 -0.9220 -1.6628  2.6147
10146TIP3    H254634   0.499   5.548   9.992  0.0012  0.6090 -0.2602
10147TIP3   OH254635   4.461   4.646   6.729  0.2827  0.6594  0.5226
10147TIP3    H154636   4.408   4.706   6.677 -1.3297  0.7598  2.1808
10147TIP3    H254637   4.551   4.671   6.709 -0.2431  0.7949 -2.0233
10148TIP3   OH254638   0.247   4.013   9.955  0.0594  0.0248 -0.4734
10148TIP3    H154639   0.186   4.068   9.906  1.3930  0.5124 -1.6695
10148TIP3    H254640   0.195   3.937   9.981 -1.4582  1.1641  0.0022
10149TIP3   OH254641   0.200   4.748   3.349  0.4963  0.1037  0.1520
10149TIP3    H154642   0.154   4.829   3.371  0.6584  0.2583 -0.0723
10149TIP3    H254643   0.293   4.770   3.362  0.6124  0.2536 -0.8594
10150TIP3   OH254644   7.143   6.825   2.479  0.4162  0.4507  0.7968
10150TIP3    H154645   7.086   6.750   2.499  1.1669 -0.4065 -0.1638
10150TIP3    H254646   7.162   6.864   2.564 -0.6083  0.0106  1.2458
10151TIP3   OH254647   3.226   0.421   9.066  0.2047  0.4060 -0.2961
10151TIP3    H154648   3.152   0.411   9.126  1.2603  1.0951  1.1847
10151TIP3    H254649   3.257   0.332   9.051 -0.9195  0.1068 -0.9634
10152TIP3   OH254650   0.800   1.305   2.091  0.1028 -0.0676  0.0100
10152TIP3    H154651   0.772   1.319   2.001  1.4462  0.5085 -0.3504
10152TIP3    H254652   0.773   1.215   2.110 -1.3262  0.2277 -0.5060
10153TIP3   OH254653   3.857   6.051   0.573 -0.4003  0.8545 -0.8599
10153TIP3    H154654   3.803   5.994   0.518  0.5658  0.1000 -1.0488
10153TIP3    H254655   3.938   6.002   0.586 -1.3246  0.0341  2.9615
10154TIP3   OH254656   3.791   0.876   2.015 -0.0742 -0.4823  0.3668
10154TIP3    H154657   3.794   0.782   1.995  2.1053 -0.0162 -1.9358
10154TIP3    H254658   3.879   0.897   2.045 -0.0669  1.1149 -0.6942
10155TIP3   OH254659   7.091   3.265   7.660  0.2518 -0.4821 -0.7288
10155TIP3    H154660   7.143   3.252   7.739 -1.5116  0.7519  0.7296
10155TIP3    H254661   7.030   3.191   7.659 -0.4048  0.0438 -0.3365
10156TIP3   OH254662   0.436   1.545   7.170 -0.5788 -0.1209  0.3241
10156TIP3    H154663   0.499   1.473   7.163  0.1141  0.4318  0.7511
10156TIP3    H254664   0.382   1.536   7.091 -0.1552 -0.7784  0.0941
10157TIP3   OH254665   4.288   1.583   9.783 -0.2664 -0.0497 -0.5986
10157TIP3    H154666   4.342   1.651   9.743 -0.8766  1.2620  0.6758
10157TIP3    H254667   4.324   1.573   9.871 -2.0127  0.8572  0.2815
10158TIP3   OH254668   3.193   2.057   9.053  0.6714  0.3443 -0.9836
10158TIP3    H154669   3.189   2.130   8.991  2.0649  0.7204 -0.6517
10158TIP3    H254670   3.280   2.062   9.091  0.4345 -0.9081 -0.2216
10159TIP3   OH254671   7.184   3.426   9.810 -0.3022  0.1120 -0.3824
10159TIP3    H154672   7.220   3.338   9.817 -0.9534 -0.0958  0.5896
10159TIP3    H254673   7.113   3.428   9.873  1.0542  2.0060  1.2305
10160TIP3   OH254674   1.650   1.585   9.100 -0.4352 -0.0029 -0.4067
10160TIP3    H154675   1.601   1.651   9.050  0.1843  0.6610 -0.1501
10160TIP3    H254676   1.614   1.591   9.189  0.8309  1.2714  0.0626
10161TIP3   OH254677   3.612   3.654   1.081  0.4548 -0.5150  0.4635
10161TIP3    H154678   3.566   3.571   1.068  0.3589 -0.2857 -0.7476
10161TIP3    H254679   3.557   3.720   1.039  1.9248 -0.2593 -1.2353
10162TIP3   OH254680   0.683   0.162   0.429 -0.1296  0.5295  0.0287
10162TIP3    H154681   0.641   0.246   0.444 -0.4389  0.3893 -0.0383
10162TIP3    H254682   0.703   0.161   0.336  0.6191  0.8655  0.1795
10163TIP3   OH254683   2.286   0.272   9.073  0.0278  0.0564 -0.5109
10163TIP3    H154684   2.270   0.316   8.989  3.0663  0.7030 -0.8535
10163TIP3    H254685   2.298   0.180   9.050  1.2726  0.2951 -0.9003
10164TIP3   OH254686   1.779   2.952   9.267 -0.0650 -0.4994  0.3683
10164TIP3    H154687   1.683   2.945   9.264 -0.0616 -0.1993 -1.6359
10164TIP3    H254688   1.808   2.863   9.287 -0.7229 -1.2155 -1.6470
10165TIP3   OH254689   4.579   7.195   8.782 -0.2407  0.4371  0.1019
10165TIP3    H154690   4.503   7.171   8.835 -1.1688  1.9694 -0.4748
10165TIP3    H254691   4.653   7.188   8.843 -0.8850 -0.5921  0.8079
10166TIP3   OH254692   1.780   2.428   0.895 -0.6509  0.0937  0.3114
10166TIP3    H154693   1.712   2.378   0.850 -0.5448  0.1978  0.0328
10166TIP3    H254694   1.776   2.397   0.985 -1.6641  0.7524  0.4978
10167TIP3   OH254695   2.494   2.062   1.757  0.2650  0.3369 -0.6257
10167TIP3    H154696   2.463   2.124   1.822 -0.2989 -0.2421 -0.3306
10167TIP3    H254697   2.583   2.040   1.784 -1.0672 -2.4930  1.9664
10168TIP3   OH254698   4.039   4.349   0.631 -0.3870 -0.0057 -0.0541
10168TIP3    H154699   4.123   4.339   0.675 -0.2841  0.2414 -0.1880
10168TIP3    H254700   4.055   4.417   0.565 -0.6381 -0.1021 -0.2147
10169TIP3   OH254701   0.182   3.171   0.644 -0.1064  0.1163  0.3036
10169TIP3    H154702   0.158   3.207   0.729 -0.8586 -0.1969  0.2323
10169TIP3    H254703   0.112   3.200   0.585  0.7288  0.8595 -0.3495
10170TIP3   OH254704   0.103   6.315   7.102  0.2163  0.4390  0.1375
10170TIP3    H154705   0.198   6.323   7.091  0.0811  1.4988 -0.4128
10170TIP3    H254706   0.083   6.365   7.181  0.1664 -0.2362  0.5657
10171TIP3   OH254707   6.871   0.712   9.310 -0.6305 -0.2262 -0.0281
10171TIP3    H154708   6.949   0.689   9.258  0.3859  1.4344  0.6436
10171TIP3    H254709   6.840   0.629   9.345 -0.4840 -1.2230 -2.0787
10172TIP3   OH254710   0.135   6.658   0.991 -0.4477  0.1287 -0.1230
10172TIP3    H154711   0.128   6.606   1.071  2.7017 -0.4206 -0.0736
10172TIP3    H254712   0.192   6.731   1.015 -2.6782  2.2211 -0.9022
10173TIP3   OH254713   6.734   2.877   2.457  0.2889 -0.1286 -0.2237
10173TIP3    H154714   6.638   2.876   2.447  0.3278 -0.5921 -0.5575
10173TIP3    H254715   6.750   2.819   2.532  0.2904  0.1793  0.0167
10174TIP3   OH254716   2.686   4.742   9.135 -0.3286 -0.8426 -0.9073
10174TIP3    H154717   2.662   4.833   9.116 -1.4113 -0.2824  2.3763
10174TIP3    H254718   2.752   4.720   9.070  1.4509  2.9770 -0.7014
10175TIP3   OH254719   4.378   5.562   6.806  0.1616 -0.7301  0.4959
10175TIP3    H154720   4.471   5.552   6.824  0.0011  0.7107  2.3338
10175TIP3    H254721   4.372   5.555   6.710  2.4022  0.9118  0.1479
10176TIP3   OH254722   4.948   1.292   8.733  0.3310 -0.0105 -0.1234
10176TIP3    H154723   4.963   1.279   8.827  2.1177  0.2459 -0.3436
10176TIP3    H254724   4.926   1.205   8.700  1.1688 -0.3795  0.2839
10177TIP3   OH254725   5.106   6.392   9.007  0.1337  0.3580 -0.1417
10177TIP3    H154726   5.016   6.397   8.975  0.2336  2.5401 -0.2303
10177TIP3    H254727   5.158   6.428   8.936  0.9862  0.0642  0.3262
10178TIP3   OH254728   5.315   2.145   1.247 -0.0492 -0.1647 -0.3214
10178TIP3    H154729   5.237   2.185   1.286 -0.8235 -1.4415 -0.5076
10178TIP3    H254730   5.387   2.201   1.275 -0.9466  0.6501  0.4336
10179TIP3   OH254731   6.781   3.361   1.282 -1.1584  0.0511  0.3378
10179TIP3    H154732   6.877   3.360   1.275 -1.1008  1.1880  0.7950
10179TIP3    H254733   6.764   3.407   1.364 -2.1118  0.2781  0.0198
10180TIP3   OH254734   1.995   6.591   3.107 -0.2012 -0.2052 -0.2510
10180TIP3    H154735   2.081   6.575   3.146  0.1935  1.1254 -0.5008
10180TIP3    H254736   1.972   6.679   3.136 -1.4338 -0.4930 -0.2959
10181TIP3   OH254737   2.013   0.945   8.743 -0.3072 -0.1318 -0.1194
10181TIP3    H154738   1.952   0.874   8.765 -1.4713  0.6890 -0.5554
10181TIP3    H254739   1.959   1.024   8.746  0.7012  0.6064 -0.7548
10182TIP3   OH254740   0.205   4.141   0.777 -0.2174 -0.3099 -0.3156
10182TIP3    H154741   0.242   4.228   0.763  0.8819 -0.9479 -1.5403
10182TIP3    H254742   0.113   4.157   0.798 -0.7283  1.0568 -3.1748
10183TIP3   OH254743   0.333   1.336   8.491 -0.1415  0.2335 -0.3183
10183TIP3    H154744   0.256   1.356   8.437  0.2585 -0.4601 -1.1670
10183TIP3    H254745   0.311   1.369   8.578 -2.2896 -1.8713  0.0320
10184TIP3   OH254746   4.470   2.343   2.417 -0.0476  0.0382 -0.1114
10184TIP3    H154747   4.453   2.316   2.507  0.5692 -0.6593 -0.1897
10184TIP3    H254748   4.399   2.303   2.366 -0.0139 -0.1348 -0.0225
10185TIP3   OH254749   2.848   5.983   8.138 -0.4680 -0.0678 -0.0582
10185TIP3    H154750   2.886   5.935   8.064  2.3223  1.7960  0.0253
10185TIP3    H254751   2.836   5.917   8.206  1.4540 -1.0290 -0.5773
10186TIP3   OH254752   4.013   5.403   9.195  0.7252  0.4203  0.3444
10186TIP3    H154753   3.996   5.486   9.151  0.0702 -0.6136 -1.4767
10186TIP3    H254754   4.062   5.352   9.131 -0.6072 -1.2904  0.6052
10187TIP3   OH254755   2.424   6.769   3.089  0.2258 -0.6238  0.1845
10187TIP3    H154756   2.332   6.784   3.110 -0.1109 -1.3683 -0.6663
10187TIP3    H254757   2.448   6.842   3.032  0.2907 -0.2054  0.7387
10188TIP3   OH254758   3.534   1.581   1.507  0.4479 -0.1077 -0.0335
10188TIP3    H154759   3.585   1.542   1.578 -0.3666  0.2427  0.7647
10188TIP3    H254760   3.539   1.518   1.436  2.7061  0.3018 -0.3063
10189TIP3   OH254761   0.007   5.065   8.137  0.5658  0.0370 -0.1940
10189TIP3    H154762  -0.003   5.155   8.168  0.7558  0.6063 -1.7005
10189TIP3    H254763   0.015   5.073   8.042 -0.3834 -1.6614 -0.4574
10190TIP3   OH254764   5.348   0.918   9.344  0.1077  0.0932 -0.1356
10190TIP3    H154765   5.265   0.915   9.296  0.2029 -0.2729 -0.2818
10190TIP3    H254766   5.356   0.831   9.383  0.2220  0.2615  0.2241
10191TIP3   OH254767   1.787   6.127   7.050 -0.2094 -0.4926  0.7668
10191TIP3    H154768   1.768   6.220   7.034  1.0677 -0.1114  1.3093
10191TIP3    H254769   1.707   6.092   7.088 -0.8875  0.2633  0.0641
10192TIP3   OH254770   6.331   3.497   9.854  0.0467 -0.2446 -0.6043
10192TIP3    H154771   6.314   3.579   9.900 -1.6763 -1.1844  0.5894
10192TIP3    H254772   6.413   3.512   9.807 -0.5646  2.3835 -1.0151
10193TIP3   OH254773   6.992   4.890   9.143 -0.8565 -0.1541 -0.4676
10193TIP3    H154774   7.059   4.892   9.212 -0.4144  0.8455 -0.9008
10193TIP3    H254775   7.033   4.841   9.072 -1.1269 -0.7649 -0.2037
10194TIP3   OH254776   2.838   5.835   8.742 -0.2345  0.9600  0.0079
10194TIP3    H154777   2.932   5.818   8.737 -0.5772 -2.4064  1.6569
10194TIP3    H254778   2.829   5.904   8.807  1.0982 -0.6306  2.0321
10195TIP3   OH254779   0.476   1.006   7.899 -0.4737 -0.4664  0.2351
10195TIP3    H154780   0.507   1.059   7.972 -0.5755  1.6623 -1.1488
10195TIP3    H254781   0.399   0.960   7.932  1.7266 -2.7382  2.5673
10196TIP3   OH254782   3.783   5.806   2.015 -0.3184 -1.0920 -0.1162
10196TIP3    H154783   3.874   5.813   1.987 -0.0375  1.9268  1.1061
10196TIP3    H254784   3.734   5.861   1.954 -0.7360  0.0313  1.1743
10197TIP3   OH254785   6.198   6.771   0.831 -0.1001  0.0499  0.3183
10197TIP3    H154786   6.222   6.845   0.887  0.0858 -0.6160  1.1514
10197TIP3    H254787   6.281   6.734   0.803 -0.1408 -0.8445  1.2940
10198TIP3   OH254788   6.488   6.499   9.491  0.0596  0.4818  0.2114
10198TIP3    H154789   6.470   6.455   9.574  0.9981 -0.8939 -0.2761
10198TIP3    H254790   6.449   6.442   9.425  1.8696 -0.0043 -0.4871
10199TIP3   OH254791   3.520   6.478   7.849  0.1577  0.7034  0.3322
10199TIP3    H154792   3.571   6.455   7.772 -1.3183 -1.4735 -0.0932
10199TIP3    H254793   3.583   6.477   7.921  1.0518 -0.0377 -0.4418
10200TIP3   OH254794   1.445   6.549   0.889  1.0437  0.1538 -0.1518
10200TIP3    H154795   1.493   6.628   0.917 -0.0141  0.4279  0.9238
10200TIP3    H254796   1.513   6.493   0.852  2.0243  1.0231  0.2590
10201TIP3   OH254797   2.706   4.183   8.260 -0.0361 -0.2227  0.0185
10201TIP3    H154798   2.662   4.263   8.289 -0.6802 -0.0656 -1.3051
10201TIP3    H254799   2.694   4.182   8.165  2.9061 -0.1540 -0.4474
10202TIP3   OH254800   3.397   4.427   1.892  0.1084 -0.0158 -0.3941
10202TIP3    H154801   3.341   4.497   1.924 -0.3779 -0.5380 -0.0747
10202TIP3    H254802   3.470   4.472   1.849  1.7317  0.7924  2.9281
10203TIP3   OH254803   6.869   5.678   8.760 -0.8129 -0.4440 -0.1843
10203TIP3    H154804   6.816   5.603   8.787  0.6216 -0.9282  1.5171
10203TIP3    H254805   6.880   5.729   8.840  0.9811 -0.1969 -0.5557
10204TIP3   OH254806   6.084   3.007   7.482 -0.0747  0.1157  0.1547
10204TIP3    H154807   6.091   2.983   7.574  1.1399 -0.2412 -0.0137
10204TIP3    H254808   6.089   3.102   7.481  0.4956  0.0938  0.4235
10205TIP3   OH254809   3.907   4.363   7.755 -0.8006  0.0286  0.0589
10205TIP3    H154810   3.824   4.334   7.793 -0.3769 -2.3224 -0.6431
10205TIP3    H254811   3.900   4.459   7.752 -3.0138 -0.0409  1.0387
10206TIP3   OH254812   0.738   2.872   6.882 -0.3668  0.1309 -0.2096
10206TIP3    H154813   0.786   2.950   6.854 -0.9394  0.6728  0.2744
10206TIP3    H254814   0.677   2.855   6.810  1.0307 -1.0211 -1.1812
10207TIP3   OH254815   0.397   6.909   9.664 -0.1186  0.1361  0.1228
10207TIP3    H154816   0.341   6.983   9.687 -0.7336 -0.2498 -0.1121
10207TIP3    H254817   0.408   6.917   9.569 -1.9413 -1.2618 -0.2471
10208TIP3   OH254818   6.391   5.892   9.618 -0.0254 -0.1111  0.2785
10208TIP3    H154819   6.401   5.926   9.529 -0.5423 -0.4417  0.0879
10208TIP3    H254820   6.317   5.941   9.654 -0.2146 -0.4116  0.3054
10209TIP3   OH254821   2.723   7.178   2.336 -0.1852  0.0381  0.0827
10209TIP3    H154822   2.644   7.221   2.301 -1.0309 -2.3516 -1.1474
10209TIP3    H254823   2.793   7.242   2.322 -1.6865  1.7963  0.1939
10210TIP3   OH254824   4.373   4.729   8.400  0.1924  0.0082 -0.2145
10210TIP3    H154825   4.403   4.816   8.375  0.0969  0.2435  0.4829
10210TIP3    H254826   4.279   4.738   8.412  0.3479  0.0883  1.0014
10211TIP3   OH254827   2.137   6.888   2.149  0.5314  0.6559  0.6292
10211TIP3    H154828   2.055   6.862   2.192 -0.1397  2.4059  0.4768
10211TIP3    H254829   2.162   6.811   2.098 -1.8652  0.5681 -0.5786
10212TIP3   OH254830   1.465   6.166   0.824 -0.0585  0.0822 -0.0149
10212TIP3    H154831   1.505   6.244   0.786  1.0751 -0.7237 -0.5410
10212TIP3    H254832   1.432   6.117   0.749  1.2608 -1.0139  0.0770
10213TIP3   OH254833   5.911   1.070   1.015  0.0133  0.0547  0.2722
10213TIP3    H154834   5.988   1.125   1.000 -0.0811  0.3886  0.9591
10213TIP3    H254835   5.863   1.115   1.084 -1.4867  0.5422 -1.0479
10214TIP3   OH254836   5.189   3.649   0.578 -0.3980  0.0207  0.4038
10214TIP3    H154837   5.132   3.612   0.511 -0.8340 -0.6080  1.1007
10214TIP3    H254838   5.137   3.721   0.616  0.1130  0.8176 -0.3720
10215TIP3   OH254839   5.396   4.468   9.554 -0.3931  0.1728 -0.0427
10215TIP3    H154840   5.446   4.446   9.475 -0.1027 -0.7323  0.3838
10215TIP3    H254841   5.459   4.511   9.611 -1.1396  3.1276 -1.2070
10216TIP3   OH254842   4.814   6.374   1.867  0.3402 -0.4372 -0.0592
10216TIP3    H154843   4.814   6.341   1.957  1.1689  1.2539  0.5986
10216TIP3    H254844   4.755   6.315   1.820 -1.5859 -0.3014  2.0013
10217TIP3   OH254845   0.287   0.686   8.946  0.4264 -0.3440  0.1322
10217TIP3    H154846   0.230   0.744   8.996  3.1430  2.3324  0.3740
10217TIP3    H254847   0.331   0.633   9.012  0.5049 -0.1927  0.2012
10218TIP3   OH254848   1.300   3.741   1.161 -0.2151  0.1127  0.0997
10218TIP3    H154849   1.345   3.729   1.245 -0.9969 -0.2049  0.4802
10218TIP3    H254850   1.221   3.789   1.183 -0.2685  0.3130 -0.5112
10219TIP3   OH254851   3.829   2.692   2.380 -0.0808 -0.0240  0.2938
10219TIP3    H154852   3.752   2.634   2.378 -0.1314  0.0171  1.0343
10219TIP3    H254853   3.818   2.748   2.303  0.3547 -1.4868 -0.8693
10220TIP3   OH254854   3.808   5.616   2.359  0.1468 -0.5082 -0.1515
10220TIP3    H154855   3.745   5.556   2.398  0.3966 -0.0385  1.0396
10220TIP3    H254856   3.823   5.583   2.270 -1.4438 -0.8583 -0.3022
10221TIP3   OH254857   5.971   6.575   2.721  0.7192 -0.7269  0.2192
10221TIP3    H154858   6.039   6.626   2.765 -0.6460  0.9398  0.4848
10221TIP3    H254859   5.993   6.581   2.628  0.4960  0.5256  0.2267
10222TIP3   OH254860   0.546   0.735   6.995  0.9201 -0.3148  0.7837
10222TIP3    H154861   0.573   0.804   7.056 -1.7004  0.4254  1.2098
10222TIP3    H254862   0.540   0.657   7.049  0.9186 -0.1939  0.9602
10223TIP3   OH254863   2.150   0.191   9.504  0.8012  0.2953 -0.2352
10223TIP3    H154864   2.133   0.099   9.522  2.3835 -0.2538 -1.2985
10223TIP3    H254865   2.067   0.225   9.471 -0.3073 -0.2566  1.8349
10224TIP3   OH254866   0.690   2.231   0.393 -0.1628  0.4146  0.1328
10224TIP3    H154867   0.621   2.231   0.459 -0.2247 -1.0985  0.1224
10224TIP3    H254868   0.700   2.138   0.370  2.2152  0.5169  0.5047
10225TIP3   OH254869   5.080   4.765   7.848  0.0295  0.3184  0.4042
10225TIP3    H154870   5.112   4.689   7.895  0.4527  0.3117  0.1203
10225TIP3    H254871   5.136   4.770   7.770 -2.4495 -1.3836 -1.6439
10226TIP3   OH254872   4.079   3.651   7.670 -0.0985 -0.2036 -0.0808
10226TIP3    H154873   4.111   3.629   7.582  1.0280  2.2018 -0.3489
10226TIP3    H254874   4.070   3.746   7.668 -1.8342 -0.2829  1.8596
10227TIP3   OH254875   4.984   7.243   1.566  0.2820  0.1835 -0.1615
10227TIP3    H154876   5.060   7.255   1.508  0.4167  0.9723  0.1702
10227TIP3    H254877   4.941   7.328   1.567  0.4136  0.2538  1.0860
10228TIP3   OH254878   2.390   7.159   1.196  0.7010  0.1286  0.7008
10228TIP3    H154879   2.331   7.215   1.247 -0.3451  0.3146 -0.6588
10228TIP3    H254880   2.383   7.192   1.107  1.1613 -1.2783  0.1240
10229TIP3   OH254881   2.851   0.756   2.323 -0.0946  0.7240 -0.1804
10229TIP3    H154882   2.912   0.769   2.396 -0.4980 -1.9602  0.7472
10229TIP3    H254883   2.772   0.804   2.348 -0.2147 -0.1390  1.1676
10230TIP3   OH254884   1.616   1.810   8.600 -0.8350  0.5725 -0.3840
10230TIP3    H154885   1.691   1.756   8.625 -1.4403  0.3039  0.9631
10230TIP3    H254886   1.621   1.816   8.505  0.9306  0.6419 -0.3148
10231TIP3   OH254887   3.119   4.186   2.770 -0.1435  0.1029 -0.5423
10231TIP3    H154888   3.176   4.171   2.694 -2.4907 -1.4626 -2.1626
10231TIP3    H254889   3.072   4.103   2.780 -2.2110  1.3343  0.5887
10232TIP3   OH254890   5.658   5.154   9.759  0.4158 -0.1156  0.1869
10232TIP3    H154891   5.646   5.066   9.723 -1.2687 -0.9117  2.3993
10232TIP3    H254892   5.589   5.206   9.718  0.2982 -0.2920  0.1564
10233TIP3   OH254893   0.132   5.671   1.806 -0.0825  0.7350  0.3345
10233TIP3    H154894   0.099   5.750   1.848 -0.2822  0.6208  0.3894
10233TIP3    H254895   0.054   5.622   1.781  0.0436  0.4337  0.5261
10234TIP3   OH254896   1.033   2.599   7.746 -0.5218 -1.0000 -0.2170
10234TIP3    H154897   0.993   2.580   7.661 -1.5952 -1.2974  0.3472
10234TIP3    H254898   0.974   2.559   7.810 -0.3891  0.3034  0.7434
10235TIP3   OH254899   1.843   4.844   1.547 -0.1829 -0.1974 -0.4453
10235TIP3    H154900   1.929   4.835   1.506 -0.7522 -0.8291 -1.5386
10235TIP3    H254901   1.833   4.766   1.601  0.7840  0.8766  1.4039
10236TIP3   OH254902   5.287   5.471   7.797 -0.2894 -0.7325 -0.0340
10236TIP3    H154903   5.371   5.425   7.788 -0.3724 -0.8715 -0.0981
10236TIP3    H254904   5.222   5.401   7.805 -0.3727 -0.6249  0.2600
10237TIP3   OH254905   1.920   0.951   9.043  0.1897  0.1491 -0.6821
10237TIP3    H154906   1.849   1.015   9.046 -0.0890 -0.0317 -2.4957
10237TIP3    H254907   1.886   0.879   8.991  0.7975 -1.1505  0.6336
10238TIP3   OH254908   5.549   1.387   0.367  0.2196 -0.2624 -0.1096
10238TIP3    H154909   5.567   1.293   0.371  1.5461  0.0024  0.5040
10238TIP3    H254910   5.623   1.424   0.320  0.6822  0.6929  1.3063
10239TIP3   OH254911   3.969   5.954   8.193 -0.3181  0.0899  0.4479
10239TIP3    H154912   4.012   6.003   8.263 -0.5449 -0.7983  1.2368
10239TIP3    H254913   3.925   6.020   8.140 -0.8537  0.7265  1.6477
10240TIP3   OH254914   6.251   7.098   2.111  0.0117  0.0182  0.0854
10240TIP3    H154915   6.221   7.171   2.165  0.4358  1.5914 -1.7093
10240TIP3    H254916   6.310   7.137   2.048  1.8061 -2.2120  0.2548
10241TIP3   OH254917   2.578   6.214   0.293  0.1876  0.0811  0.3942
10241TIP3    H154918   2.628   6.187   0.370  1.6942 -0.0267 -0.5861
10241TIP3    H254919   2.579   6.310   0.296  1.2430  0.0942 -0.0919
10242TIP3   OH254920   4.795   4.134   9.988 -0.2102  0.3089  0.5356
10242TIP3    H154921   4.735   4.063  10.009  0.2391 -0.2184  0.0887
10242TIP3    H254922   4.812   4.124   9.894  0.7481  0.3038  0.6947
10243TIP3   OH254923   1.638   2.510   2.241 -0.3978  0.4036 -0.0042
10243TIP3    H154924   1.568   2.565   2.205 -1.8327 -1.1352  0.2953
10243TIP3    H254925   1.625   2.513   2.336 -0.8040 -0.7955 -0.0052
10244TIP3   OH254926   5.816   0.222   7.284  0.2577  0.3813 -0.2870
10244TIP3    H154927   5.907   0.218   7.252  0.0449  0.6271 -0.9453
10244TIP3    H254928   5.795   0.132   7.308  0.2341  0.0635 -1.4267
10245TIP3   OH254929   2.104   5.066   9.156  0.3804 -0.5718  0.2403
10245TIP3    H154930   2.157   4.993   9.187  0.4033 -1.2839 -1.3348
10245TIP3    H254931   2.070   5.036   9.071 -2.0236  0.1029  0.8759
10246TIP3   OH254932   4.918   3.076   2.001  0.6066 -0.0002 -0.1879
10246TIP3    H154933   4.892   3.082   2.094 -0.8685  1.5854 -0.6426
10246TIP3    H254934   4.950   2.986   1.991  1.6807  0.0582  2.0506
10247TIP3   OH254935   0.027   5.948   1.853  0.1609  0.1050  0.2154
10247TIP3    H154936   0.105   5.995   1.823  3.0470 -2.8666  2.4271
10247TIP3    H254937  -0.008   6.004   1.923 -0.7561  2.1899 -1.7617
10248TIP3   OH254938   1.464   5.806   2.157  0.1286  0.0798 -0.6261
10248TIP3    H154939   1.388   5.865   2.149  1.4746  2.1329  0.7712
10248TIP3    H254940   1.434   5.737   2.216 -0.8330  0.4939 -0.6045
10249TIP3   OH254941   2.417   0.080   8.405  0.5299 -0.1511 -0.2375
10249TIP3    H154942   2.474   0.007   8.381 -0.9236 -1.0473 -1.0614
10249TIP3    H254943   2.466   0.127   8.473  2.6671 -0.3289 -1.5696
10250TIP3   OH254944   6.706   0.488   9.709 -0.2625  0.4381  0.1575
10250TIP3    H154945   6.655   0.536   9.774  0.3707 -0.0768  1.0603
10250TIP3    H254946   6.781   0.454   9.758  0.6545  0.7036 -1.0111
10251TIP3   OH254947   5.282   4.651   0.134 -0.2941 -0.1294  0.2825
10251TIP3    H154948   5.230   4.695   0.201  0.1383 -0.1725  0.6496
10251TIP3    H254949   5.236   4.569   0.118  0.0991 -0.5370  1.1962
10252TIP3   OH254950   6.689   4.571   6.998 -0.0254 -0.3773  0.1317
10252TIP3    H154951   6.725   4.652   7.033 -0.7036 -0.8423  2.0481
10252TIP3    H254952   6.764   4.527   6.957  0.2642  1.3532 -1.2680
10253TIP3   OH254953   2.555   7.238   0.852 -0.1986  0.7963 -0.0709
10253TIP3    H154954   2.471   7.222   0.895  0.1734  0.3478  0.5095
10253TIP3    H254955   2.553   7.330   0.829 -1.0383  0.6838 -0.4762
10254TIP3   OH254956   1.055   0.711   7.979 -0.0782 -0.0697  0.5350
10254TIP3    H154957   1.019   0.699   7.892 -0.1149  1.6333  0.2722
10254TIP3    H254958   1.004   0.653   8.035 -1.5671  0.4550 -0.2287
10255TIP3   OH254959   2.930   4.263   7.558  0.1371  0.7009  0.6932
10255TIP3    H154960   3.017   4.302   7.565  0.8060 -0.7155  0.6866
10255TIP3    H254961   2.925   4.203   7.632 -0.6880  0.4897  0.4783
10256TIP3   OH254962   2.818   0.924   0.763  0.2410  0.1641 -0.7048
10256TIP3    H154963   2.786   0.848   0.813 -0.7982  0.4228 -0.9422
10256TIP3    H254964   2.809   0.997   0.824  2.7648 -0.0971  0.0983
10257TIP3   OH254965   3.972   3.567   7.948 -0.4651  0.4371 -0.3925
10257TIP3    H154966   4.023   3.565   7.867 -1.6721  0.2761 -1.1903
10257TIP3    H254967   4.016   3.631   8.003 -0.0935  1.1878 -1.5275
10258TIP3   OH254968   3.787   1.587   8.446  0.3006  0.4007  0.2112
10258TIP3    H154969   3.796   1.506   8.397 -1.2810 -0.2067  0.8380
10258TIP3    H254970   3.847   1.578   8.519 -1.3262 -1.1973  1.4515
10259TIP3   OH254971   6.628   4.959   8.399  0.0309  0.1985 -0.1309
10259TIP3    H154972   6.707   5.000   8.365  0.2465 -1.0960 -1.2587
10259TIP3    H254973   6.570   5.033   8.421  0.4369  1.1264 -1.9886
10260TIP3   OH254974   4.981   0.526   0.891 -0.2252 -0.0130 -0.4762
10260TIP3    H154975   4.928   0.499   0.816 -0.1705  0.5704 -0.7300
10260TIP3    H254976   5.042   0.591   0.855  0.1145 -0.0702 -0.0198
10261TIP3   OH254977   2.269   0.572   8.108  0.4441 -0.2381 -0.7513
10261TIP3    H154978   2.331   0.584   8.179 -0.4019  0.2590 -0.0761
10261TIP3    H254979   2.191   0.536   8.149 -0.3251  0.7503 -1.2838
10262TIP3   OH254980   1.357   3.070   8.572 -0.2309 -0.1933 -0.7070
10262TIP3    H154981   1.365   2.993   8.516  0.0725  0.9937 -2.3617
10262TIP3    H254982   1.407   3.138   8.527 -1.6615  1.3697 -0.0310
10263TIP3   OH254983   3.034   5.460   2.101 -0.0768  0.3169 -0.5237
10263TIP3    H154984   3.092   5.535   2.111  1.8699 -0.7390 -2.9319
10263TIP3    H254985   2.982   5.479   2.022  0.1451 -0.6532 -0.9237
10264TIP3   OH254986   7.212   1.175   9.358  0.1331 -0.0196 -0.1373
10264TIP3    H154987   7.128   1.190   9.314  0.0410 -2.9349 -1.2097
10264TIP3    H254988   7.188   1.141   9.444  0.2765  1.3487  0.4615
10265TIP3   OH254989   5.167   0.497   9.502 -0.5740 -0.2039 -0.4832
10265TIP3    H154990   5.235   0.519   9.438 -0.1744  0.2346  0.0766
10265TIP3    H254991   5.181   0.405   9.522  0.3440  0.0560  0.1699
10266TIP3   OH254992   6.474   0.608   1.424  0.3226  0.0465  0.0199
10266TIP3    H154993   6.409   0.632   1.490  0.3715 -0.5567  0.2829
10266TIP3    H254994   6.471   0.681   1.361  0.0163  0.4412  0.4865
10267TIP3   OH254995   0.299   6.858   1.015 -0.0118 -0.2557  0.2941
10267TIP3    H154996   0.393   6.861   1.031  0.0420 -0.1305 -0.0317
10267TIP3    H254997   0.259   6.900   1.091  0.2085 -0.1075  0.3274
10268TIP3   OH254998   0.286   3.933   8.020  0.4470  0.0029  0.5236
10268TIP3    H154999   0.217   3.888   7.971  0.4945  0.6759 -0.1734
10268TIP3    H255000   0.271   3.906   8.111 -0.5754 -0.0659  0.3532
10269TIP3   OH255001   0.971   5.145   6.938  0.0060  0.3796 -0.2113
10269TIP3    H155002   0.910   5.134   6.865 -1.2230  1.3964  0.6205
10269TIP3    H255003   1.057   5.132   6.900 -0.7241 -2.0829 -1.2564
10270TIP3   OH255004   6.568   0.934   2.838 -0.9232  0.1148  0.6541
10270TIP3    H155005   6.495   0.995   2.843 -1.5871 -0.6063 -0.0530
10270TIP3    H255006   6.643   0.989   2.815 -1.4272  0.7196  0.4251
10271TIP3   OH255007   1.986   6.238   0.130 -0.2976 -0.3970 -0.6219
10271TIP3    H155008   2.003   6.179   0.203  1.2933  1.6078  0.7425
10271TIP3    H255009   1.892   6.252   0.131 -0.1772  0.7172  2.0515
10272TIP3   OH255010   6.590   5.411   1.239  0.0546 -0.0373 -0.1004
10272TIP3    H155011   6.580   5.335   1.296  1.6517  1.0489  1.7794
10272TIP3    H255012   6.668   5.391   1.186  0.0256 -0.0285 -0.1461
10273TIP3   OH255013   5.165   5.732   1.378  0.0723  0.2514 -0.0005
10273TIP3    H155014   5.172   5.828   1.371  1.6296  0.0863 -1.0214
10273TIP3    H255015   5.175   5.714   1.471 -2.1006  1.1804  0.4826
10274TIP3   OH255016   7.099   1.905   0.042  0.1911 -0.2468  0.4491
10274TIP3    H155017   7.031   1.970   0.058  1.3485  1.2816 -0.6051
10274TIP3    H255018   7.181   1.952   0.056  1.0759 -1.3444 -0.7947
10275TIP3   OH255019   6.487   0.018   0.689  0.6759  0.2495  0.3929
10275TIP3    H155020   6.443   0.100   0.712 -0.0422 -0.1029  0.2971
10275TIP3    H255021   6.440  -0.049   0.739  1.4526 -0.0754  0.7105
10276TIP3   OH255022   2.903   0.572   6.956  0.2261  0.1635 -0.4284
10276TIP3    H155023   2.861   0.657   6.950  0.0563  0.2086  0.9386
10276TIP3    H255024   2.840   0.511   6.917 -1.2766  0.1997  1.7609
10277TIP3   OH255025   6.441   1.796   8.772 -0.7049  0.3126 -0.1156
10277TIP3    H155026   6.413   1.768   8.860  1.1262 -0.8283  0.1560
10277TIP3    H255027   6.514   1.739   8.751 -0.8094  0.8802 -2.2274
10278TIP3   OH255028   7.007   4.637   7.617 -0.0332 -0.1577 -0.0207
10278TIP3    H155029   6.927   4.655   7.567 -0.2233 -0.6030  0.1194
10278TIP3    H255030   7.037   4.723   7.646  0.6963  0.2327 -1.8248
10279TIP3   OH255031   5.957   5.125   2.337 -0.1165 -0.1011  1.1810
10279TIP3    H155032   5.867   5.136   2.369 -0.1860  0.5352  0.8023
10279TIP3    H255033   5.985   5.041   2.371 -1.6297 -1.3829 -0.4902
10280TIP3   OH255034   3.322   3.544   8.945 -0.0353  0.0050 -0.6664
10280TIP3    H155035   3.377   3.531   9.022  0.8504  0.9535 -1.1151
10280TIP3    H255036   3.290   3.457   8.924  0.8719 -0.4951 -0.0676
10281TIP3   OH255037   7.149   3.838   9.022 -0.4581  0.0311 -0.0657
10281TIP3    H155038   7.118   3.895   8.951 -0.4372 -0.1490 -0.2207
10281TIP3    H255039   7.085   3.851   9.092 -0.4956  0.1894 -0.1261
10282TIP3   OH255040   2.292   6.315   8.679  0.0520 -0.1470  0.5326
10282TIP3    H155041   2.351   6.388   8.699  0.6262 -0.9708  2.0256
10282TIP3    H255042   2.324   6.243   8.734 -1.4805 -1.0402  0.3032
10283TIP3   OH255043   2.483   4.279   7.347  0.4373  0.4612 -0.1487
10283TIP3    H155044   2.417   4.331   7.300  0.4140  1.3705  0.8541
10283TIP3    H255045   2.561   4.285   7.292 -0.1346 -0.1357 -1.0545
10284TIP3   OH255046   1.827   6.174   1.272  0.0650  0.0737 -0.1650
10284TIP3    H155047   1.742   6.207   1.302 -0.9209 -1.3463 -1.2792
10284TIP3    H255048   1.875   6.154   1.353 -0.5362  1.1131  0.4780
10285TIP3   OH255049   3.407   7.245   2.911  0.0699  0.2593 -0.2294
10285TIP3    H155050   3.355   7.198   2.846  0.4180 -0.4957  0.0236
10285TIP3    H255051   3.380   7.336   2.902  0.3257  0.2175 -1.6438
10286TIP3   OH255052   5.209   5.717   0.633  0.1425 -0.6522 -0.2445
10286TIP3    H155053   5.292   5.671   0.643 -0.4978 -2.0404 -0.9860
10286TIP3    H255054   5.205   5.742   0.541 -0.1503 -0.3791 -0.1614
10287TIP3   OH255055   0.593   3.618   2.005 -0.4841 -0.5778 -0.0675
10287TIP3    H155056   0.595   3.711   2.023  1.0785 -0.6666  0.2881
10287TIP3    H255057   0.525   3.608   1.938 -0.8185  0.7711  0.0559
10288TIP3   OH255058   3.645   5.214   8.742 -0.5795 -0.3112  0.1564
10288TIP3    H155059   3.652   5.125   8.706 -0.1606  0.1328 -0.9180
10288TIP3    H255060   3.622   5.201   8.834 -0.5064 -1.5325  0.0248
10289TIP3   OH255061   3.963   5.992   7.605  0.2171 -0.7687  0.1970
10289TIP3    H155062   4.032   5.927   7.619  0.8836  0.3095  2.5214
10289TIP3    H255063   3.931   6.012   7.693 -1.8619  0.0810 -0.6758
10290TIP3   OH255064   6.071   4.898   2.443 -0.2268 -0.1659 -0.4577
10290TIP3    H155065   6.088   4.809   2.414  1.7923  0.2069 -0.5630
10290TIP3    H255066   5.994   4.891   2.499 -0.2866 -1.9123 -0.7195
10291TIP3   OH255067   0.107   4.507   8.366  0.0713  0.1322 -0.2044
10291TIP3    H155068   0.200   4.485   8.378  0.2439  1.4291  1.1606
10291TIP3    H255069   0.107   4.573   8.297  0.4189  1.6103  1.1558
10292TIP3   OH255070   3.650   1.353   0.078 -0.3222  0.6016 -0.3028
10292TIP3    H155071   3.742   1.367   0.053 -0.3725 -0.9380 -1.4756
10292TIP3    H255072   3.642   1.259   0.090 -1.8937  0.6457 -0.7936
10293TIP3   OH255073   5.492   1.770   7.798  0.4576  0.2356 -0.0545
10293TIP3    H155074   5.507   1.735   7.710  1.9321 -0.9381  0.6101
10293TIP3    H255075   5.453   1.697   7.846  0.1267  0.7110  0.4055
10294TIP3   OH255076   3.708   6.111   1.007 -1.1265 -0.2117 -0.2994
10294TIP3    H155077   3.752   6.181   1.055 -2.0061 -0.0531  0.2830
10294TIP3    H255078   3.758   6.032   1.028  0.2230  0.2873 -1.4042
10295TIP3   OH255079   5.405   4.329   0.420  0.4486 -0.2230 -0.6496
10295TIP3    H155080   5.328   4.342   0.366 -0.6177 -0.5436  0.7341
10295TIP3    H255081   5.402   4.401   0.484  0.6976 -0.8525  0.0839
10296TIP3   OH255082   0.366   6.907   7.145  0.4433 -0.1335 -0.6382
10296TIP3    H155083   0.287   6.949   7.178  0.8811  0.2027 -0.0028
10296TIP3    H255084   0.334   6.844   7.079 -0.2947  0.4167 -0.8160
10297TIP3   OH255085   3.225   6.262   9.830  0.2389  0.0523 -0.1204
10297TIP3    H155086   3.138   6.251   9.792  0.1195 -0.1806  0.2205
10297TIP3    H255087   3.279   6.195   9.788 -0.0967 -0.7738  0.7432
10298TIP3   OH255088   3.106   4.439   7.835  1.0858 -0.4002  0.0261
10298TIP3    H155089   3.087   4.431   7.929  2.8392 -1.0663  0.3730
10298TIP3    H255090   3.120   4.533   7.822 -1.5022  0.0236 -0.1172
10299TIP3   OH255091   3.882   2.892   2.591  0.1381  0.0265  0.1832
10299TIP3    H155092   3.848   2.819   2.540  0.9457 -0.3036  0.0979
10299TIP3    H255093   3.963   2.917   2.546  1.0253 -0.4544  1.4519
10300TIP3   OH255094   6.166   2.783   1.399  0.4083  0.2172  0.5239
10300TIP3    H155095   6.226   2.795   1.326  2.3521 -1.1509  1.7904
10300TIP3    H255096   6.214   2.729   1.461 -1.7737 -0.0552  2.1095
10301TIP3   OH255097   6.057   7.076   8.769  0.3129 -0.2183 -0.6958
10301TIP3    H155098   6.147   7.062   8.799  0.7779  1.7055 -1.0513
10301TIP3    H255099   6.003   7.048   8.843  1.2142 -1.0100 -0.3138
10302TIP3   OH255100   0.731   1.596   1.856 -0.0094  0.1700  0.4562
10302TIP3    H155101   0.820   1.600   1.821 -0.5164  0.1215 -0.9316
10302TIP3    H255102   0.698   1.686   1.849 -0.9570 -0.2792 -1.6115
10303TIP3   OH255103   6.353   2.792   2.373  0.6463  0.1505  0.3285
10303TIP3    H155104   6.366   2.866   2.432 -2.7152  0.4807  0.8328
10303TIP3    H255105   6.395   2.718   2.418 -0.0140  0.8256  2.1532
10304TIP3   OH255106   6.339   6.194   8.398  0.6473 -0.2339  0.1619
10304TIP3    H155107   6.338   6.158   8.309  0.9509 -1.4778  0.6334
10304TIP3    H255108   6.432   6.207   8.418  0.5197  2.7228 -0.6829
10305TIP3   OH255109   3.528   6.248   0.641  0.4687  0.3530 -0.7251
10305TIP3    H155110   3.613   6.277   0.674  0.3756 -1.6472  1.4955
10305TIP3    H255111   3.546   6.212   0.555  1.7537  0.6124 -0.5775
10306TIP3   OH255112   6.585   3.863   1.197 -0.1894 -0.5229  0.5413
10306TIP3    H155113   6.513   3.912   1.235 -0.3070  0.6116 -1.0193
10306TIP3    H255114   6.548   3.777   1.177 -0.5228 -0.6281  1.5814
10307TIP3   OH255115   5.840   3.007   0.445  0.3135  0.4349  0.2619
10307TIP3    H155116   5.761   3.058   0.464  0.2060  0.9520 -1.4319
10307TIP3    H255117   5.896   3.021   0.522 -0.8344  0.8400  1.0571
10308TIP3   OH255118   1.597   0.178   1.303 -0.3580  0.4414 -0.0373
10308TIP3    H155119   1.587   0.124   1.225 -1.8604 -1.0032  1.0938
10308TIP3    H255120   1.650   0.253   1.274  0.0138 -0.5793 -2.1525
10309TIP3   OH255121   2.241   6.597   3.231  0.2732 -0.1508 -0.3820
10309TIP3    H155122   2.250   6.523   3.292 -1.9379  0.2698  0.5501
10309TIP3    H255123   2.328   6.637   3.229  1.0390 -1.6699  0.5252
10310TIP3   OH255124   1.056   2.041   2.233  0.0505 -0.1092 -0.5483
10310TIP3    H155125   1.119   1.994   2.288  1.2506  2.6080  0.5842
10310TIP3    H255126   0.996   2.082   2.295 -0.8554  0.0313 -1.4885
10311TIP3   OH255127   6.637   2.023   7.828 -0.7761  0.6760  0.3908
10311TIP3    H155128   6.569   2.086   7.853 -0.8394  1.4347 -1.5477
10311TIP3    H255129   6.717   2.057   7.869 -1.1570  0.9856  0.8891
10312TIP3   OH255130   4.713   2.788   9.950  0.6918  0.1870 -0.3430
10312TIP3    H155131   4.805   2.772   9.973  0.5301 -0.0353  0.1658
10312TIP3    H255132   4.677   2.832  10.027  0.9944  2.6162 -1.4717
10313TIP3   OH255133   1.410   2.536   6.664  0.1022 -0.1898  0.4662
10313TIP3    H155134   1.471   2.606   6.689 -1.2394  0.5661  1.7275
10313TIP3    H255135   1.393   2.488   6.745 -0.3575 -0.9043 -0.0406
10314TIP3   OH255136   6.897   3.811   8.187 -0.2164 -0.2828  0.5163
10314TIP3    H155137   6.959   3.856   8.130  0.6606 -1.6289  0.3429
10314TIP3    H255138   6.942   3.803   8.271 -0.4916 -0.5214  0.6454
10315TIP3   OH255139   0.221   6.123   1.786  0.1088  0.2680 -0.0289
10315TIP3    H155140   0.307   6.103   1.820  0.5382  1.8297 -0.0923
10315TIP3    H255141   0.210   6.217   1.803 -2.8229 -0.3874  2.7343
10316TIP3   OH255142   1.503   0.672   8.578 -0.6118  0.1426  0.0968
10316TIP3    H155143   1.547   0.746   8.619 -0.6422  0.8308 -1.0600
10316TIP3    H255144   1.519   0.598   8.637  0.9523  0.6662  0.3744
10317TIP3   OH255145   3.741   0.595   6.973 -0.2855  0.1973 -0.4939
10317TIP3    H155146   3.742   0.685   6.941 -0.3083  0.5730  0.5057
10317TIP3    H255147   3.673   0.552   6.922 -0.3718  0.7825 -0.8846
10318TIP3   OH255148   0.123   4.100   9.713  0.0146 -0.6066  0.6739
10318TIP3    H155149   0.194   4.161   9.733 -1.3640  2.0842 -1.8884
10318TIP3    H255150   0.165   4.027   9.667  1.1728  1.2524 -1.4184
10319TIP3   OH255151   6.764   1.355   7.322 -0.4625  0.8941 -0.4283
10319TIP3    H155152   6.855   1.363   7.295 -0.0721  1.7572  1.0485
10319TIP3    H255153   6.738   1.268   7.291  1.8241 -0.7241  1.7479
10320TIP3   OH255154   0.518   0.336   1.186  0.1980  0.5924  0.1866
10320TIP3    H155155   0.447   0.388   1.148  1.5903  1.3554 -1.4680
10320TIP3    H255156   0.559   0.394   1.250 -0.8938 -0.0048  1.4813
10321TIP3   OH255157   3.513   5.518   8.880 -0.2079  0.0297  0.0879
10321TIP3    H155158   3.527   5.493   8.789  3.0995 -1.3183  0.7988
10321TIP3    H255159   3.447   5.457   8.912  1.1967 -1.9484 -0.5730
10322TIP3   OH255160   6.695   5.709   0.674 -0.8448  0.2420  0.5689
10322TIP3    H155161   6.721   5.654   0.748 -2.6572 -0.8275  0.4575
10322TIP3    H255162   6.608   5.740   0.696 -0.7174  1.3460 -0.3648
10323TIP3   OH255163   4.362   4.955   9.880  0.1647  0.0445 -0.4313
10323TIP3    H155164   4.283   4.902   9.887 -0.0043  0.4564  1.0888
10323TIP3    H255165   4.360   4.991   9.792 -1.5640  0.4119 -0.2581
10324TIP3   OH255166   1.006   0.648   8.880 -0.4115  0.2148 -0.6457
10324TIP3    H155167   0.968   0.560   8.873  0.4561 -0.2960  0.7504
10324TIP3    H255168   1.100   0.632   8.885 -0.3438  1.0496  1.8181
10325TIP3   OH255169   1.360   5.414   7.162  0.2003 -0.3088  0.5672
10325TIP3    H155170   1.277   5.383   7.196 -0.0991 -0.5216 -0.3450
10325TIP3    H255171   1.399   5.338   7.120 -0.7100  0.5498 -2.0291
10326TIP3   OH255172   6.985   4.723   1.997 -0.4660 -0.6140  0.0268
10326TIP3    H155173   6.913   4.668   2.029 -0.0562 -1.3822 -0.3326
10326TIP3    H255174   7.057   4.661   1.981 -0.1089 -0.0206 -0.7362
10327TIP3   OH255175   2.828   1.413   7.997 -0.3879  0.2996  0.2511
10327TIP3    H155176   2.797   1.326   8.022  0.2449 -0.0172 -0.0221
10327TIP3    H255177   2.891   1.396   7.926 -1.1072  1.0648 -0.5887
10328TIP3   OH255178   2.277   3.886   8.471  0.1207  0.2117 -0.1865
10328TIP3    H155179   2.184   3.898   8.456  0.0567 -0.9487 -0.7974
10328TIP3    H255180   2.293   3.794   8.453  1.3360  0.3238  0.2115
10329TIP3   OH255181   5.169   1.842   7.963  0.4909  0.9485  0.4509
10329TIP3    H155182   5.144   1.772   7.904  3.4917 -0.3731  0.5906
10329TIP3    H255183   5.162   1.922   7.910  0.7737  0.0764 -0.9451
10330TIP3   OH255184   1.281   4.115   9.764 -0.6628 -0.0127  0.0694
10330TIP3    H155185   1.339   4.179   9.724 -0.6191 -0.6814 -0.9636
10330TIP3    H255186   1.193   4.151   9.750 -0.5836  0.2912  0.3488
10331TIP3   OH255187   4.450   0.488   8.183 -0.1284 -0.3069  0.1211
10331TIP3    H155188   4.375   0.429   8.190 -0.2221 -0.2364 -0.2802
10331TIP3    H255189   4.467   0.495   8.089  0.5892 -0.5812  0.2247
10332TIP3   OH255190   3.442   3.250   8.966 -0.1753  0.3894  0.8653
10332TIP3    H155191   3.479   3.285   9.048  1.3768  1.9850 -0.4256
10332TIP3    H255192   3.435   3.156   8.981 -0.4207  0.6960  3.0060
10333TIP3   OH255193   5.718   3.058   2.118 -0.2364 -0.8515  0.4288
10333TIP3    H155194   5.740   3.038   2.027  0.3864  1.4239 -0.0029
10333TIP3    H255195   5.681   2.977   2.153 -1.5401 -1.4735 -2.1743
10334TIP3   OH255196   4.563   5.417   2.472  0.0593  0.3203  0.0999
10334TIP3    H155197   4.644   5.378   2.507 -0.4439  0.3945  1.4164
10334TIP3    H255198   4.587   5.450   2.386  0.9080 -1.5046 -0.4068
10335TIP3   OH255199   4.781   0.476   7.118 -0.5589 -0.2023 -0.0899
10335TIP3    H155200   4.861   0.428   7.096 -0.5593  0.6115 -2.0604
10335TIP3    H255201   4.744   0.501   7.033 -1.1868  2.2084  0.8172
10336TIP3   OH255202   2.460   3.319   1.892  0.0022  0.0328 -0.0776
10336TIP3    H155203   2.388   3.317   1.830 -1.0954 -0.2124  1.1495
10336TIP3    H255204   2.538   3.304   1.839 -0.8716 -0.0206 -1.3986
10337TIP3   OH255205   1.700   4.262   7.364  0.4282  0.2549  0.5148
10337TIP3    H155206   1.719   4.206   7.289  0.0593 -0.2026  0.7551
10337TIP3    H255207   1.762   4.235   7.431  0.8850  0.7951  0.3161
10338TIP3   OH255208   5.667   2.731   8.538 -0.0124  0.0036  0.0341
10338TIP3    H155209   5.708   2.814   8.513 -0.3740  0.1430 -0.1068
10338TIP3    H255210   5.721   2.664   8.496 -0.8939  0.2524 -1.5547
10339TIP3   OH255211   5.955   7.236   1.080 -0.4326 -0.1700  0.2616
10339TIP3    H155212   5.949   7.263   0.988 -0.2385 -0.9834  0.0025
10339TIP3    H255213   6.010   7.303   1.121 -1.1561  0.6225 -0.0354
10340TIP3   OH255214   0.366   0.820   1.760 -0.1195  0.0529  0.2976
10340TIP3    H155215   0.272   0.832   1.776 -0.1074 -0.4396  0.7648
10340TIP3    H255216   0.401   0.909   1.757 -0.7732  0.2901 -1.0184
10341TIP3   OH255217   3.270   4.296   0.197 -0.0694  0.8485 -0.0048
10341TIP3    H155218   3.193   4.338   0.236 -0.5699  1.2475 -1.3535
10341TIP3    H255219   3.252   4.203   0.204 -0.0112  0.8993  0.9553
10342TIP3   OH255220   1.387   6.109   7.003 -0.0916  0.5130  0.1556
10342TIP3    H155221   1.372   6.192   6.956 -0.7572  0.1954 -0.1984
10342TIP3    H255222   1.300   6.070   7.013  0.0972  0.3225  1.2100
10343TIP3   OH255223   7.103   1.894   0.466 -0.7900 -0.4328  0.5073
10343TIP3    H155224   7.022   1.926   0.427 -0.0193 -0.0373 -0.8251
10343TIP3    H255225   7.109   1.940   0.550 -1.3356  0.4458  0.0820
10344TIP3   OH255226   2.833   3.356   7.572 -0.4977 -0.3562  0.3296
10344TIP3    H155227   2.880   3.276   7.550 -1.3352 -0.3164 -1.8024
10344TIP3    H255228   2.874   3.424   7.518 -1.2169  0.2227  0.4972
10345TIP3   OH255229   0.361   5.595   2.452 -0.2538 -0.4939  0.0308
10345TIP3    H155230   0.391   5.556   2.534  0.0768  0.2561  0.2748
10345TIP3    H255231   0.336   5.685   2.476  2.4883  0.6757 -1.1726
10346TIP3   OH255232   2.112   6.757   9.202 -0.5944 -0.5135 -0.1672
10346TIP3    H155233   2.137   6.696   9.133  1.2222 -0.6151  0.5324
10346TIP3    H255234   2.025   6.728   9.229 -2.6039  1.0843 -4.0820
10347TIP3   OH255235   2.017   6.959   9.745  0.1803 -0.0317 -0.2961
10347TIP3    H155236   1.986   6.885   9.796 -1.9163  1.9835  1.6233
10347TIP3    H255237   2.105   6.976   9.777 -0.1374 -0.3994  0.8122
10348TIP3   OH255238   5.742   5.564   7.601 -0.0006 -0.1994  0.2297
10348TIP3    H155239   5.710   5.640   7.649  1.0920 -0.1381  0.8821
10348TIP3    H255240   5.701   5.489   7.643 -1.3690  0.0254 -0.6460
10349TIP3   OH255241   0.333   5.945   8.780 -0.0740  0.2238 -0.2251
10349TIP3    H155242   0.288   5.949   8.695 -1.4348 -1.2571  0.3715
10349TIP3    H255243   0.314   5.857   8.813  3.2306 -0.4510  0.1568
10350TIP3   OH255244   3.960   0.706   1.769  0.2782  0.3210 -0.2858
10350TIP3    H155245   3.956   0.696   1.674 -1.5238  1.0326 -0.3156
10350TIP3    H255246   3.988   0.796   1.783  1.9245 -0.1886 -0.1028
10351TIP3   OH255247   2.076   0.995   1.447  0.3267  0.0045 -0.2058
10351TIP3    H155248   2.083   1.086   1.474  1.2056 -0.1801  0.2381
10351TIP3    H255249   2.111   0.993   1.358  0.4745  0.0712 -0.1489
10352TIP3   OH255250   6.147   5.977   6.611  0.3843  0.4103 -0.1883
10352TIP3    H155251   6.058   5.943   6.615  0.4767  0.1057 -0.6649
10352TIP3    H255252   6.201   5.899   6.597  0.8700  0.3963  1.5201
10353TIP3   OH255253   1.486   6.883   9.625 -0.2316  0.0048  0.0331
10353TIP3    H155254   1.447   6.821   9.563  0.5523  0.4646 -0.9523
10353TIP3    H255255   1.456   6.969   9.595 -0.7072  0.1685  0.9442
10354TIP3   OH255256   0.159   5.720   9.964 -0.6121 -0.7372  0.0137
10354TIP3    H155257   0.249   5.691   9.979 -0.5104  0.0105  1.0035
10354TIP3    H255258   0.132   5.676   9.884  0.8770 -0.4292 -0.6852
10355TIP3   OH255259   3.469   0.629   7.329 -0.2564  0.7578  0.2159
10355TIP3    H155260   3.545   0.580   7.300 -0.1302  0.6707  0.6837
10355TIP3    H255261   3.487   0.719   7.304 -1.6105  0.2878 -3.0091
10356TIP3   OH255262   5.918   3.838   8.965  0.6924  0.3408  0.9114
10356TIP3    H155263   5.915   3.913   8.906 -0.3129  0.3299  0.9381
10356TIP3    H255264   5.897   3.763   8.909 -1.8024  0.5051  1.5439
10357TIP3   OH255265   6.657   4.765   2.952  0.4487 -0.4791  0.8306
10357TIP3    H155266   6.575   4.749   2.905  2.1616 -0.7173 -2.3485
10357TIP3    H255267   6.653   4.859   2.974 -0.2374 -0.2374 -0.2320
10358TIP3   OH255268   0.223   4.679   7.925  0.0361 -0.0275 -0.3471
10358TIP3    H155269   0.137   4.720   7.922  0.4941  0.9391 -2.4833
10358TIP3    H255270   0.209   4.592   7.888  0.0859  0.4336 -1.4949
10359TIP3   OH255271   4.426   5.736   9.493  0.0840  0.0733  0.4768
10359TIP3    H155272   4.491   5.670   9.469 -0.4996 -0.4133  0.1960
10359TIP3    H255273   4.355   5.724   9.429 -0.2336  0.6577  0.7141
10360TIP3   OH255274   2.644   6.519   1.053 -0.2213 -0.1389  0.0812
10360TIP3    H155275   2.662   6.599   1.102 -0.3983 -0.8743  1.3796
10360TIP3    H255276   2.715   6.513   0.990 -0.3867  1.2119 -0.2685
10361TIP3   OH255277   7.120   1.611   9.360  0.3544 -0.4019  0.3798
10361TIP3    H155278   7.032   1.587   9.387  0.5612  0.1921  1.6256
10361TIP3    H255279   7.106   1.678   9.293 -0.1384 -0.7675  0.1063
10362TIP3   OH255280   4.442   2.455   7.366 -0.1574  0.8328  0.5473
10362TIP3    H155281   4.352   2.481   7.345 -0.1619 -0.1257 -0.7218
10362TIP3    H255282   4.455   2.485   7.456 -1.7791  0.9252  0.7797
10363TIP3   OH255283   0.637   2.179   8.904  0.1392  0.3798  0.1668
10363TIP3    H155284   0.686   2.141   8.831 -1.9777 -0.2407 -0.9868
10363TIP3    H255285   0.579   2.243   8.864 -1.8912 -0.7778  1.1421
10364TIP3   OH255286   3.310   7.065   1.039  0.1968  0.2925  0.0438
10364TIP3    H155287   3.404   7.067   1.058  0.0022  0.4760  1.0475
10364TIP3    H255288   3.274   7.138   1.089 -0.7245 -0.8675  1.1392
10365TIP3   OH255289   7.151   3.115   0.207  0.4500 -0.3456  0.0481
10365TIP3    H155290   7.164   3.127   0.301  0.0872  0.3615  0.0158
10365TIP3    H255291   7.126   3.023   0.198 -0.8194 -0.1041  0.8065
10366TIP3   OH255292   0.838   3.539   2.261 -0.8557  0.2200  0.0847
10366TIP3    H155293   0.831   3.487   2.181  1.4284 -0.2064  0.0903
10366TIP3    H255294   0.886   3.618   2.235  1.3662 -0.6510  1.2480
10367TIP3   OH255295   7.214   3.366   0.769 -0.0124  0.0217 -1.0264
10367TIP3    H155296   7.265   3.384   0.848  1.1368 -1.2102 -1.4420
10367TIP3    H255297   7.187   3.274   0.778 -2.1266  0.6182 -0.8673
10368TIP3   OH255298   7.049   4.085   9.646 -0.2858 -0.3998 -0.5739
10368TIP3    H155299   6.974   4.139   9.671 -0.5321 -0.6024 -0.8616
10368TIP3    H255300   7.044   4.009   9.705  1.5038  1.0224  1.5852
10369TIP3   OH255301   4.565   4.616   8.560 -0.9233  0.0716 -0.1409
10369TIP3    H155302   4.511   4.656   8.492  0.0157  0.3693 -0.7371
10369TIP3    H255303   4.651   4.656   8.548 -0.3086 -1.1262  0.1326
10370TIP3   OH255304   2.063   2.311   0.651  0.0211  0.3155  0.0979
10370TIP3    H155305   2.070   2.406   0.660  0.4916  0.1514  1.8887
10370TIP3    H255306   2.154   2.281   0.645  0.0134 -0.1408  1.6424
10371TIP3   OH255307   4.032   3.594   8.806  0.2575 -0.4654 -0.0050
10371TIP3    H155308   3.946   3.637   8.802  0.7309  0.4680 -0.3808
10371TIP3    H255309   4.030   3.546   8.889  0.4668  2.0055  1.5409
10372TIP3   OH255310   6.136   5.585   8.578  0.1844 -0.3852  0.3974
10372TIP3    H155311   6.100   5.673   8.584  2.1100  0.5866 -1.2610
10372TIP3    H255312   6.072   5.530   8.624 -0.6647  1.9474  2.2275
10373TIP3   OH255313   3.355   1.483   9.821  0.3590 -0.2498 -0.6048
10373TIP3    H155314   3.421   1.437   9.769  0.0867 -0.0955 -1.1027
10373TIP3    H255315   3.302   1.529   9.756 -0.9352 -1.2756 -0.3044
10374TIP3   OH255316   3.774   6.475   6.645 -0.0405 -0.1968  0.3751
10374TIP3    H155317   3.846   6.451   6.587 -0.0247  1.0734 -0.1548
10374TIP3    H255318   3.730   6.547   6.599  0.4236  1.3729  2.2838
10375TIP3   OH255319   5.996   7.202   0.325 -0.0650  0.7418 -0.1448
10375TIP3    H155320   5.946   7.276   0.289 -0.7381 -0.6143 -2.2123
10375TIP3    H255321   6.074   7.196   0.270  0.0453  0.0148  0.0735
10376TIP3   OH255322   2.566   6.158   7.922 -0.2409  0.2033  0.2413
10376TIP3    H155323   2.590   6.066   7.917 -0.0019  0.3047 -0.6187
10376TIP3    H255324   2.533   6.180   7.835 -0.8068  0.7937  0.5962
10377TIP3   OH255325   3.525   0.197   7.396 -0.1887 -0.1767  0.0425
10377TIP3    H155326   3.573   0.118   7.423 -0.4969 -0.5171 -0.3903
10377TIP3    H255327   3.478   0.224   7.475  0.5978  0.0789  0.4333
10378TIP3   OH255328   6.107   1.289   7.652  0.1875  0.1968 -0.5410
10378TIP3    H155329   6.151   1.216   7.607  0.8983  0.6397 -0.5785
10378TIP3    H255330   6.121   1.271   7.745  1.7296  1.0816 -0.5667
10379TIP3   OH255331   3.102   0.999   0.044  0.7781  0.8664 -0.2389
10379TIP3    H155332   3.151   0.919   0.062  0.7759  1.2937  2.0575
10379TIP3    H255333   3.155   1.047  -0.018  0.7411 -0.9126 -1.7346
10380TIP3   OH255334   4.763   2.421   7.047  0.4671 -0.2421  0.0510
10380TIP3    H155335   4.743   2.362   7.120  0.3667 -0.6001 -0.2574
10380TIP3    H255336   4.828   2.373   6.995  1.2963  0.4369  0.4441
10381TIP3   OH255337   4.637   4.214   9.428 -0.2597 -0.3063 -0.5467
10381TIP3    H155338   4.655   4.274   9.355  0.7882  0.3015  0.1846
10381TIP3    H255339   4.543   4.220   9.441 -0.1407  1.4371 -0.2867
10382TIP3   OH255340   2.594   0.306   9.962 -0.2113 -0.5896 -0.5699
10382TIP3    H155341   2.614   0.314  10.055 -1.1746 -0.3232 -0.3679
10382TIP3    H255342   2.508   0.348   9.952 -0.0520 -0.4668 -1.6095
10383TIP3   OH255343   5.604   6.318   0.820 -0.1239  0.0810 -0.6350
10383TIP3    H155344   5.611   6.323   0.725 -0.1216 -2.1846 -0.8164
10383TIP3    H255345   5.680   6.366   0.852  0.8631 -0.6046 -1.8492
10384TIP3   OH255346   1.863   3.449   8.684  0.0890 -0.0273 -0.1027
10384TIP3    H155347   1.848   3.526   8.739  0.2632 -0.5135  0.6415
10384TIP3    H255348   1.800   3.458   8.612  0.1293  0.8175 -0.0391
10385TIP3   OH255349   3.059   6.375   7.847  0.5552  0.2244 -0.1351
10385TIP3    H155350   3.006   6.415   7.916 -1.7087 -1.6642 -0.6546
10385TIP3    H255351   3.133   6.336   7.893 -0.0628  0.3753  1.0117
10386TIP3   OH255352   2.494   3.281   8.289  0.4239 -0.4144  0.5129
10386TIP3    H155353   2.579   3.237   8.278  1.0204  0.9517 -0.7409
10386TIP3    H255354   2.436   3.236   8.228  0.5549 -0.5876  0.5116
10387TIP3   OH255355   1.689   2.686   8.169  0.0867  0.6183 -0.0561
10387TIP3    H155356   1.666   2.722   8.255  0.0085 -1.0719  0.6713
10387TIP3    H255357   1.706   2.594   8.186  1.6397  0.5748 -1.6111
10388TIP3   OH255358   6.850   5.871   8.179  0.2387 -0.6280  0.3972
10388TIP3    H155359   6.939   5.876   8.146  0.3462 -1.6166  0.5047
10388TIP3    H255360   6.817   5.961   8.174  0.8014 -0.4782 -0.8447
10389TIP3   OH255361   6.479   1.367   0.702  0.0860  0.0615  0.2736
10389TIP3    H155362   6.533   1.292   0.679  0.8378  0.9319 -0.9079
10389TIP3    H255363   6.541   1.434   0.731 -0.6624 -0.1919  2.7746
10390TIP3   OH255364   1.832   4.674   9.492 -0.1482  0.5195  0.0090
10390TIP3    H155365   1.839   4.628   9.576 -1.6740  0.8148  0.3178
10390TIP3    H255366   1.739   4.691   9.481  0.0050  0.3732 -1.8298
10391TIP3   OH255367   6.008   0.226   9.258 -0.2624  0.0611 -0.2359
10391TIP3    H155368   5.983   0.134   9.250  0.2555 -0.1180  0.1458
10391TIP3    H255369   6.099   0.224   9.290  0.5255  0.6832 -2.2613
10392TIP3   OH255370   3.234   3.463   8.089  0.3288  0.2292  0.4024
10392TIP3    H155371   3.306   3.426   8.038  0.0861 -0.7279  0.7253
10392TIP3    H255372   3.162   3.470   8.026 -0.6850 -3.0522  0.9878
10393TIP3   OH255373   0.775   4.680   9.751  0.3540  0.1313 -0.4550
10393TIP3    H155374   0.681   4.669   9.734 -0.3699 -2.5115  3.7129
10393TIP3    H255375   0.779   4.727   9.834  2.6579 -0.7029 -0.0213
10394TIP3   OH255376   2.261   4.779   8.862  0.1574  0.1067 -0.3030
10394TIP3    H155377   2.201   4.751   8.794  0.9139 -2.0881 -0.1590
10394TIP3    H255378   2.324   4.836   8.817 -0.6192  0.4686 -0.9464
10395TIP3   OH255379   2.038   2.952   8.991 -0.2531  0.0253 -0.0751
10395TIP3    H155380   1.969   2.930   9.053  1.3211 -3.1468  0.7083
10395TIP3    H255381   2.032   3.048   8.982 -2.2702  0.2914  2.8233
10396TIP3   OH255382   2.401   2.654   1.429  0.4451  0.4399  0.2244
10396TIP3    H155383   2.409   2.605   1.348  0.3332  1.7054 -0.5871
10396TIP3    H255384   2.382   2.589   1.496  1.7994 -0.7872 -0.5399
10397TIP3   OH255385   1.494   4.101   7.664  0.2216  0.7734 -0.0479
10397TIP3    H155386   1.540   4.021   7.639 -0.5089  0.1070  0.7070
10397TIP3    H255387   1.473   4.089   7.757 -3.4174  0.0675 -0.8175
10398TIP3   OH255388   2.984   4.216   8.289 -0.2841 -0.4179 -0.3640
10398TIP3    H155389   3.036   4.161   8.230 -0.6993 -1.7929  0.5015
10398TIP3    H255390   2.893   4.196   8.266 -0.4587 -1.2296  0.9270
10399TIP3   OH255391   6.670   3.088   1.159  0.8505  0.3874 -0.4378
10399TIP3    H155392   6.672   3.118   1.249  1.1410 -0.1478 -0.2652
10399TIP3    H255393   6.762   3.084   1.132  0.7949  0.0413 -0.5860
10400TIP3   OH255394   5.249   5.578   8.046 -0.2958  0.1883  0.3556
10400TIP3    H155395   5.261   5.566   7.952  2.4231  1.5904  0.4309
10400TIP3    H255396   5.271   5.493   8.084  0.0329  0.0378 -0.1663
10401TIP3   OH255397   0.658   1.303   0.575  0.3146 -0.1415  0.2546
10401TIP3    H155398   0.634   1.309   0.667 -0.0913  1.8365  0.0477
10401TIP3    H255399   0.585   1.257   0.534  0.4340 -0.9050  0.8793
10402TIP3   OH255400   4.647   5.541   9.426 -0.5685 -0.7131 -0.0934
10402TIP3    H155401   4.736   5.573   9.411 -1.5240  1.7649 -0.9093
10402TIP3    H255402   4.654   5.446   9.416  2.1570 -0.7062  0.8957
10403TIP3   OH255403   4.483   3.047   0.089 -0.5633 -0.2855  0.0953
10403TIP3    H155404   4.512   2.963   0.124 -1.0763  0.3212  2.0982
10403TIP3    H255405   4.450   3.026   0.002 -0.5494 -2.1406  0.4932
10404TIP3   OH255406   1.223   1.262   7.010  0.4727 -0.1907 -0.0704
10404TIP3    H155407   1.188   1.282   6.924 -0.4175 -0.7587  0.1420
10404TIP3    H255408   1.287   1.331   7.028 -0.9654  1.2328 -0.2277
10405TIP3   OH255409   3.766   4.552   8.729 -0.1646 -0.0921 -0.1045
10405TIP3    H155410   3.860   4.549   8.709  0.3068  0.5013  1.8316
10405TIP3    H255411   3.744   4.463   8.758  0.5429  0.4397  2.2912
10406TIP3   OH255412   4.344   5.188   0.355  0.1444 -0.7029 -0.5330
10406TIP3    H155413   4.335   5.112   0.298  2.0030 -1.4745  0.1062
10406TIP3    H255414   4.433   5.181   0.390 -0.8447 -0.2080  2.3621
10407TIP3   OH255415   0.529   6.395   1.255 -0.6351 -0.3696  0.0560
10407TIP3    H155416   0.589   6.325   1.230 -0.6671 -0.6175  0.6582
10407TIP3    H255417   0.447   6.373   1.210  0.1393  0.8526 -2.1314
10408TIP3   OH255418   6.196   5.461   7.996 -0.0942  0.2703 -0.5071
10408TIP3    H155419   6.118   5.512   8.019 -0.2074 -0.0364 -0.2081
10408TIP3    H255420   6.235   5.437   8.080 -1.1517 -1.8560 -0.5736
10409TIP3   OH255421   3.309   0.491   0.961 -0.1493 -0.2283  0.3217
10409TIP3    H155422   3.277   0.497   0.871 -1.7610  0.2621  0.8930
10409TIP3    H255423   3.367   0.566   0.971 -2.0508  1.3040  0.4496
10410TIP3   OH255424   4.958   1.596   0.499  0.0898  0.6141 -0.3217
10410TIP3    H155425   4.913   1.540   0.562  0.8972  0.0560 -0.2190
10410TIP3    H255426   4.918   1.576   0.415 -2.3534  2.7520  0.2034
10411TIP3   OH255427   7.019   4.013   8.016 -0.1104  0.6785 -0.2522
10411TIP3    H155428   6.944   4.070   8.027  0.8583  1.7314  1.3047
10411TIP3    H255429   7.088   4.069   7.980 -0.4509 -0.6220 -3.2208
10412TIP3   OH255430   1.039   6.694   7.890 -0.6362  0.5096 -0.1512
10412TIP3    H155431   1.109   6.699   7.955 -0.7336  1.4443 -0.1053
10412TIP3    H255432   1.000   6.781   7.890 -2.0253 -0.0686  0.0684
10413TIP3   OH255433   3.767   2.190   8.999 -0.5635  0.4743  0.6559
10413TIP3    H155434   3.804   2.236   8.924  0.4106 -1.0252  0.1781
10413TIP3    H255435   3.833   2.199   9.068 -1.0501  1.0674  1.0568
10414TIP3   OH255436   5.992   6.310   2.661  0.2026  0.2758  0.8944
10414TIP3    H155437   5.975   6.317   2.567  0.4411  1.1038  0.9018
10414TIP3    H255438   5.984   6.400   2.693  0.0068 -0.0196  1.6861
10415TIP3   OH255439   1.504   5.386   1.069  0.4035  0.3420 -0.3313
10415TIP3    H155440   1.549   5.462   1.031  1.5999 -0.2838 -0.2112
10415TIP3    H255441   1.539   5.311   1.021  0.6385 -0.2996  0.8095
10416TIP3   OH255442   3.196   4.099   8.139  0.9347 -0.0902  1.2641
10416TIP3    H155443   3.273   4.153   8.157  1.1237 -0.1203  0.5772
10416TIP3    H255444   3.230   4.009   8.139  1.0312 -0.0644  0.3478
10417TIP3   OH255445   6.338   0.032   7.403 -0.0635 -0.1802 -0.8560
10417TIP3    H155446   6.288   0.049   7.324  0.4967  1.9099 -0.8065
10417TIP3    H255447   6.428   0.054   7.380 -0.0231  1.3631  0.5815
10418TIP3   OH255448   0.194   5.242   0.564 -0.2321  0.7960 -0.1648
10418TIP3    H155449   0.116   5.189   0.582  0.1972  0.4283  0.6419
10418TIP3    H255450   0.189   5.313   0.627 -0.0999  0.9744 -0.3562
10419TIP3   OH255451   4.607   0.291   2.780  0.3907 -0.2898  0.0546
10419TIP3    H155452   4.594   0.199   2.806 -0.1942 -0.0889  0.4755
10419TIP3    H255453   4.612   0.288   2.684  1.7637 -0.9363  0.1173
10420TIP3   OH255454   4.492   2.355   0.629  0.2402 -0.2477 -0.0112
10420TIP3    H155455   4.476   2.441   0.588  1.2992  0.8482  1.7406
10420TIP3    H255456   4.428   2.350   0.700  1.4217  0.0193  1.1227
10421TIP3   OH255457   0.963   6.708   8.298  0.1861 -0.0182  0.1323
10421TIP3    H155458   1.042   6.760   8.314  1.9031 -2.0505 -1.1370
10421TIP3    H255459   0.909   6.763   8.242  0.9689  1.2054  0.5519
10422TIP3   OH255460   3.750   7.202   8.394 -0.1226  0.4883 -0.1798
10422TIP3    H155461   3.764   7.291   8.426  0.8643  0.1064  0.5065
10422TIP3    H255462   3.837   7.162   8.396 -0.8183 -1.1203  1.4610
10423TIP3   OH255463   3.519   0.445   7.580  0.1929 -0.0687  0.4137
10423TIP3    H155464   3.590   0.484   7.529  0.0747 -0.6420 -0.1867
10423TIP3    H255465   3.562   0.384   7.639  0.2200 -0.2465  0.2091
10424TIP3   OH255466   1.928   1.331   0.661  1.0606  0.1987 -0.6948
10424TIP3    H155467   1.921   1.236   0.656 -1.1074  0.1824  1.1592
10424TIP3    H255468   1.838   1.362   0.659  1.6152  2.0688  0.6332
10425TIP3   OH255469   1.581   2.167   0.509  0.1291 -0.3423 -0.2440
10425TIP3    H155470   1.553   2.102   0.445 -1.0167  0.6443 -0.7661
10425TIP3    H255471   1.535   2.247   0.485 -1.3314 -0.2282  2.5220
10426TIP3   OH255472   5.485   4.386   1.370  0.0479 -0.0518 -0.0906
10426TIP3    H155473   5.440   4.352   1.448 -0.6041 -1.4313 -1.0463
10426TIP3    H255474   5.428   4.364   1.297  0.1530  2.1168 -0.9232
10427TIP3   OH255475   6.669   5.940   1.767 -0.6626  0.3781 -0.1870
10427TIP3    H155476   6.735   5.997   1.726 -0.0608 -0.4144 -0.3509
10427TIP3    H255477   6.604   5.926   1.699  0.2130 -0.7414 -0.8240
10428TIP3   OH255478   2.544   1.821   8.045 -0.7072 -0.0687 -0.2485
10428TIP3    H155479   2.534   1.762   8.120  0.4002 -0.7794 -0.6209
10428TIP3    H255480   2.531   1.908   8.081 -2.1587 -0.5002  0.3694
10429TIP3   OH255481   1.758   4.374   0.528 -0.7124 -0.0265 -0.0322
10429TIP3    H155482   1.813   4.389   0.452 -1.8882 -0.8137 -1.0796
10429TIP3    H255483   1.668   4.388   0.497 -1.1568  0.9380  1.5471
10430TIP3   OH255484   3.004   1.541   0.021 -0.0454  0.0239 -0.2630
10430TIP3    H155485   2.916   1.527   0.055  0.2745  0.0469  0.5906
10430TIP3    H255486   3.006   1.493  -0.062 -1.4537  1.5521 -1.2533
10431TIP3   OH255487   4.026   6.663   1.046  0.6375  0.2903  0.4171
10431TIP3    H155488   4.113   6.680   1.081  1.0562  0.9361 -0.8610
10431TIP3    H255489   3.986   6.750   1.039 -0.9607 -0.1244  2.9585
10432TIP3   OH255490   5.536   2.005   9.874 -0.0358 -0.1971  0.0138
10432TIP3    H155491   5.535   1.918   9.914 -0.9341 -0.2310 -0.0664
10432TIP3    H255492   5.586   2.059   9.935  0.0415 -0.6355  0.3409
10433TIP3   OH255493   0.666   2.996   1.923  0.2838 -0.5002 -0.2835
10433TIP3    H155494   0.614   3.037   1.993  1.7425  0.0734  0.5211
10433TIP3    H255495   0.757   3.011   1.950  0.9490 -4.2376  0.0389
10434TIP3   OH255496   6.671   5.803   1.152  0.1493 -0.4139 -0.0185
10434TIP3    H155497   6.732   5.774   1.220 -0.2454 -0.8895  0.1359
10434TIP3    H255498   6.587   5.764   1.176 -0.8211  2.1366  1.1032
10435TIP3   OH255499   4.059   3.781   0.252 -0.2375  0.0050  0.0654
10435TIP3    H155500   4.115   3.708   0.279 -0.4908 -0.1553  0.1591
10435TIP3    H255501   4.021   3.813   0.334  0.5855  0.8335  0.1414
10436TIP3   OH255502   2.439   4.025   0.253 -0.0185 -0.8787  0.1148
10436TIP3    H155503   2.367   4.062   0.303 -0.4373 -1.9304  0.3262
10436TIP3    H255504   2.405   4.017   0.164  0.8433  1.3173 -0.4664
10437TIP3   OH255505   4.830   1.009   9.210 -0.2917  0.7129  0.5078
10437TIP3    H155506   4.847   1.010   9.304 -0.5940 -1.9337  0.6754
10437TIP3    H255507   4.767   0.937   9.198  0.6496  0.1925 -1.8377
10438TIP3   OH255508   3.276   0.001   2.399  0.3915 -0.3870  0.4126
10438TIP3    H155509   3.301   0.023   2.488  0.5357  1.3824 -0.0323
10438TIP3    H255510   3.237   0.081   2.364  0.0484 -1.1406 -1.0083
10439TIP3   OH255511   3.555   3.699   8.877  0.4517 -0.2692  0.0103
10439TIP3    H155512   3.469   3.739   8.890  1.5423  3.3795 -2.3535
10439TIP3    H255513   3.536   3.608   8.857 -2.6511 -0.1184  1.5971
   7.28148   7.28148  10.00000
