Title
55513
    1DOPE     N    1   2.613   4.690   6.378  0.4455 -0.0704  0.4918
    1DOPE   HN1    2   2.584   4.592   6.357 -2.1816  0.6665  0.3289
    1DOPE   HN2    3   2.540   4.726   6.443 -1.7645 -3.1516 -0.0217
    1DOPE   HN3    4   2.606   4.750   6.293  1.0523  1.0981  1.2417
    1DOPE   C12    5   2.746   4.704   6.445 -0.0666 -0.8356 -0.1865
    1DOPE  H12A    6   2.818   4.658   6.373 -0.0321 -0.6719 -0.2583
    1DOPE  H12B    7   2.747   4.636   6.532  2.0363  0.7006  1.0847
    1DOPE   C11    8   2.788   4.854   6.456  0.0081  0.3761  0.4843
    1DOPE  H11A    9   2.840   4.895   6.367 -1.5736  0.3268 -0.5018
    1DOPE  H11B   10   2.872   4.854   6.529 -0.4223 -1.2366  1.0161
    1DOPE     P   11   2.700   5.076   6.561  0.1346 -0.7219  0.3488
    1DOPE   O13   12   2.843   5.092   6.605 -0.0367  0.0761  0.5926
    1DOPE   O14   13   2.600   5.101   6.667 -0.5551 -0.3357  0.0623
    1DOPE   O11   14   2.677   5.189   6.450 -0.1143 -0.5246 -0.2092
    1DOPE   O12   15   2.679   4.934   6.498 -0.1291 -0.3389  0.3774
    1DOPE    C1   16   2.582   5.160   6.343 -0.2741 -0.7433 -0.3131
    1DOPE    HA   17   2.532   5.255   6.312 -1.2556 -1.7348 -1.9409
    1DOPE    HB   18   2.511   5.083   6.379  0.7240 -1.0309  1.0953
    1DOPE    C2   19   2.639   5.099   6.209 -0.6595 -0.5286  0.2494
    1DOPE    HS   20   2.710   5.018   6.238 -1.3255 -1.1487  0.1852
    1DOPE   O21   21   2.700   5.202   6.139  0.6641  0.2478  0.5105
    1DOPE   C21   22   2.794   5.170   6.054 -0.3693 -0.0174 -0.0792
    1DOPE   O22   23   2.856   5.062   6.049  0.1141 -0.0303 -0.1774
    1DOPE   C22   24   2.816   5.276   5.953  0.8178  0.1107 -0.0305
    1DOPE   H2R   25   2.763   5.369   5.982 -0.8884 -0.7213 -0.3221
    1DOPE   H2S   26   2.770   5.233   5.861  2.1271  1.0505 -1.1696
    1DOPE    C3   27   2.532   5.035   6.113 -0.3347 -0.2963 -0.2907
    1DOPE    HX   28   2.461   5.112   6.076 -0.9906  0.0024  1.5092
    1DOPE    HY   29   2.471   4.965   6.174 -3.5543  1.1407 -1.6659
    1DOPE   O31   30   2.579   4.974   5.996 -0.1818  0.3546  0.2763
    1DOPE   C31   31   2.620   4.849   6.013 -0.1271  0.0285 -0.2786
    1DOPE   O32   32   2.631   4.796   6.122  0.5169 -0.0398 -0.2227
    1DOPE   C32   33   2.652   4.793   5.879  0.8381  0.3258  0.0882
    1DOPE   H2X   34   2.558   4.805   5.821  1.2764  0.8016 -0.5314
    1DOPE   H2Y   35   2.734   4.849   5.830 -0.5306  0.8404 -1.7145
    1DOPE   C23   36   2.963   5.306   5.927  0.5312  0.3875  0.2557
    1DOPE   H3R   37   3.015   5.209   5.942  2.3590  1.5237  1.7107
    1DOPE   H3S   38   3.004   5.373   6.006  0.9157  1.3631 -0.7471
    1DOPE   C24   39   2.994   5.375   5.799 -0.1316 -0.1141 -0.6685
    1DOPE   H4R   40   2.939   5.320   5.721 -0.0937 -0.6116 -0.3485
    1DOPE   H4S   41   3.104   5.378   5.784  0.5393  1.0508  3.2791
    1DOPE   C25   42   2.936   5.515   5.801 -0.2003  0.2658 -0.2156
    1DOPE   H5R   43   2.970   5.566   5.894  1.8256 -1.8799  0.3152
    1DOPE   H5S   44   2.825   5.520   5.806 -0.1699  0.5765  0.2337
    1DOPE   C26   45   2.978   5.600   5.678 -0.0610  0.0110  0.0796
    1DOPE   H6R   46   2.943   5.550   5.585 -0.6231 -0.0062  0.2998
    1DOPE   H6S   47   3.088   5.617   5.670 -0.0041 -0.3468  0.1040
    1DOPE   C27   48   2.907   5.732   5.677 -0.3803  0.1708 -0.6223
    1DOPE   H7R   49   2.948   5.794   5.759 -1.4183  1.7872 -1.2791
    1DOPE   H7S   50   2.800   5.708   5.690  0.0861 -1.5434  0.3841
    1DOPE   C28   51   2.912   5.815   5.546 -0.7109 -0.3948 -0.1833
    1DOPE   H8R   52   2.841   5.899   5.534  0.1752 -0.0355 -5.0480
    1DOPE   H8S   53   2.904   5.743   5.462  2.2922 -0.3095 -0.6713
    1DOPE   C29   54   3.050   5.880   5.516 -0.3526  0.0390 -0.2681
    1DOPE   H9R   55   3.104   5.920   5.604  0.5689 -0.2283 -0.6942
    1DOPE  C210   56   3.123   5.865   5.405 -0.8600  0.4067  0.0677
    1DOPE  H10R   57   3.222   5.911   5.415  0.0320 -1.3645 -0.3510
    1DOPE  C211   58   3.083   5.789   5.277 -0.7258 -0.1233  0.4321
    1DOPE  H11R   59   2.973   5.773   5.266 -0.6624 -2.6982  2.5031
    1DOPE  H11S   60   3.119   5.685   5.292  0.5924  0.1861 -0.4461
    1DOPE  C212   61   3.140   5.842   5.138 -0.1081  0.0412  0.2359
    1DOPE  H12R   62   3.083   5.783   5.063  0.8011 -0.4547 -0.0790
    1DOPE  H12S   63   3.248   5.815   5.133 -0.3946 -1.0527 -0.3643
    1DOPE  C213   64   3.108   5.995   5.117 -0.0976  0.1350 -0.0120
    1DOPE  H13R   65   3.142   6.038   5.214 -1.1514 -1.8731  1.3369
    1DOPE  H13S   66   3.000   6.016   5.099  0.5215  1.0780 -3.1038
    1DOPE  C214   67   3.174   6.045   4.990 -0.8420 -0.4189 -0.1751
    1DOPE  H14R   68   3.153   6.154   4.985 -1.8619 -0.4965  1.6089
    1DOPE  H14S   69   3.127   5.985   4.908  0.0218  0.1029 -1.0710
    1DOPE  C215   70   3.325   6.021   4.975  0.0016 -0.1999 -0.3955
    1DOPE  H15R   71   3.356   5.914   4.981  1.2084  0.1635  0.2685
    1DOPE  H15S   72   3.386   6.067   5.055  2.4536 -2.5820 -0.7420
    1DOPE  C216   73   3.361   6.074   4.829  0.5158 -0.2812 -0.3481
    1DOPE  H16R   74   3.350   6.185   4.823 -0.0485 -0.1551  2.0796
    1DOPE  H16S   75   3.302   6.018   4.754  1.6793 -0.7662 -0.9281
    1DOPE  C217   76   3.513   6.046   4.788  0.3864 -0.0380 -0.7224
    1DOPE  H17R   77   3.539   5.942   4.818 -1.4177  0.2522  2.3167
    1DOPE  H17S   78   3.576   6.115   4.848  0.3000 -1.8086  1.5295
    1DOPE  C218   79   3.548   6.060   4.637  0.3312 -0.0675  0.4976
    1DOPE  H18R   80   3.653   6.027   4.624  0.0052 -0.1583 -2.7396
    1DOPE  H18S   81   3.548   6.161   4.590  1.0323  0.0567  0.7505
    1DOPE  H18T   82   3.473   5.998   4.583 -0.3506  1.6133 -0.5836
    1DOPE   C33   83   2.685   4.636   5.892  0.0003 -0.1524  0.4898
    1DOPE   H3X   84   2.590   4.579   5.905  0.6697 -1.0202  1.7484
    1DOPE   H3Y   85   2.751   4.617   5.979  1.2670 -1.3536 -0.6994
    1DOPE   C34   86   2.751   4.579   5.761  0.0500  0.1433  0.1863
    1DOPE   H4X   87   2.694   4.600   5.669 -0.2099  0.4977  0.4244
    1DOPE   H4Y   88   2.849   4.632   5.755 -0.1916  0.4229 -1.6947
    1DOPE   C35   89   2.774   4.423   5.779  0.3467 -0.3759  0.3329
    1DOPE   H5X   90   2.680   4.378   5.817  0.1119 -2.2953 -2.2380
    1DOPE   H5Y   91   2.842   4.418   5.867  2.5977  0.1351 -1.2808
    1DOPE   C36   92   2.835   4.343   5.662  0.0572 -0.7805  0.3147
    1DOPE   H6X   93   2.756   4.316   5.589 -0.0017  0.1207  0.0331
    1DOPE   H6Y   94   2.871   4.246   5.703 -0.4374 -0.2449  2.1247
    1DOPE   C37   95   2.954   4.416   5.604 -0.0755 -0.4615  0.2849
    1DOPE   H7X   96   2.928   4.522   5.582 -0.5032 -0.6359 -0.0557
    1DOPE   H7Y   97   3.018   4.430   5.694 -0.0185 -0.8885  0.3111
    1DOPE   C38   98   3.002   4.363   5.471 -0.4334  0.5116 -0.4343
    1DOPE   H8X   99   3.064   4.271   5.482  0.9675  1.2908 -1.3793
    1DOPE   H8Y  100   3.085   4.431   5.443  1.2174 -1.4559 -0.5698
    1DOPE   C39  101   2.899   4.356   5.362  0.2090 -0.6633  0.7479
    1DOPE   H9X  102   2.862   4.458   5.342  1.9009 -0.2750 -0.6507
    1DOPE  C310  103   2.847   4.248   5.307  0.2174 -0.0379  0.6649
    1DOPE  H10X  104   2.766   4.259   5.233  0.8632 -2.8198 -0.5821
    1DOPE  C311  105   2.873   4.106   5.342 -0.2610  0.1890  0.2149
    1DOPE  H11X  106   2.900   4.102   5.449 -0.3968 -1.5228  0.2050
    1DOPE  H11Y  107   2.784   4.041   5.329  0.3468 -0.2307 -2.8512
    1DOPE  C312  108   2.987   4.051   5.254 -0.5091  0.3641 -0.2678
    1DOPE  H12X  109   2.991   3.943   5.280  1.0660  0.5369  0.3157
    1DOPE  H12Y  110   3.081   4.102   5.283  0.8745 -2.0452 -0.2846
    1DOPE  C313  111   2.977   4.077   5.103 -0.0816  0.3231  0.1812
    1DOPE  H13X  112   2.990   4.183   5.075 -1.5973  0.8076  1.2030
    1DOPE  H13Y  113   3.066   4.031   5.055 -0.5052  0.0843 -0.3864
    1DOPE  C314  114   2.845   4.025   5.033  0.3649  0.2764  0.5445
    1DOPE  H14X  115   2.750   4.073   5.064 -0.6274 -1.6536  0.6226
    1DOPE  H14Y  116   2.842   3.915   5.049 -0.6785  0.1545 -0.3515
    1DOPE  C315  117   2.853   4.040   4.879  0.2251 -0.1489 -0.3798
    1DOPE  H15X  118   2.787   3.962   4.835  1.6035 -1.8284  0.3882
    1DOPE  H15Y  119   2.956   4.010   4.848 -0.4581 -4.9428  1.1014
    1DOPE  C316  120   2.811   4.172   4.826 -0.7922 -0.6918 -0.1845
    1DOPE  H16X  121   2.871   4.206   4.740 -0.6551  3.4157  1.3159
    1DOPE  H16Y  122   2.826   4.251   4.903 -1.7372 -0.9710  0.3101
    1DOPE  C317  123   2.662   4.173   4.773 -0.1696  0.4621 -0.4822
    1DOPE  H17X  124   2.643   4.088   4.704  3.7266 -0.7109 -0.3351
    1DOPE  H17Y  125   2.592   4.135   4.851  0.7504 -0.0613  0.1124
    1DOPE  C318  126   2.612   4.311   4.734  0.0879  0.1798  0.1387
    1DOPE  H18X  127   2.507   4.325   4.766 -0.8963 -3.8833 -0.8403
    1DOPE  H18Y  128   2.680   4.382   4.787  1.7040 -0.8192 -0.5350
    1DOPE  H18Z  129   2.611   4.332   4.625  1.3671 -0.1745  0.0416
    2DOPE     N  130   3.947   5.595   7.008 -0.0164  0.2639 -0.4773
    2DOPE   HN1  131   4.036   5.542   6.997  0.2828  0.7972 -0.6417
    2DOPE   HN2  132   3.918   5.636   6.917  0.1140  0.2140 -0.5415
    2DOPE   HN3  133   3.965   5.676   7.070 -1.0594 -0.5535  0.9571
    2DOPE   C12  134   3.848   5.503   7.069 -0.2239 -0.0261  0.5626
    2DOPE  H12A  135   3.800   5.456   6.980  0.8637  1.4754 -0.8786
    2DOPE  H12B  136   3.769   5.559   7.123 -1.5670 -0.3294 -0.9815
    2DOPE   C11  137   3.908   5.391   7.162 -0.6606 -0.1259 -0.5446
    2DOPE  H11A  138   3.826   5.341   7.218  0.2373 -1.4817 -0.3685
    2DOPE  H11B  139   3.991   5.427   7.227 -0.1122  1.8650 -2.2556
    2DOPE     P  140   4.101   5.277   7.005  0.3246 -0.1364 -0.0204
    2DOPE   O13  141   4.183   5.179   7.080  0.2028  0.3504 -0.0024
    2DOPE   O14  142   4.151   5.411   6.981  0.9331  0.3768  0.0475
    2DOPE   O11  143   4.053   5.217   6.867  0.6278  0.3181 -0.5442
    2DOPE   O12  144   3.962   5.286   7.081 -0.1231 -0.4803  0.0190
    2DOPE    C1  145   4.045   5.076   6.849 -0.6658 -0.1267 -0.9232
    2DOPE    HA  146   3.963   5.055   6.778 -0.9624 -3.5240  0.2693
    2DOPE    HB  147   4.028   5.021   6.944 -0.8203  1.6946  0.1623
    2DOPE    C2  148   4.166   5.010   6.785 -0.5576  1.1423  0.1679
    2DOPE    HS  149   4.253   5.002   6.853  2.3063  0.4912 -3.2779
    2DOPE   O21  150   4.188   5.088   6.664 -0.0641  0.2391  0.2971
    2DOPE   C21  151   4.318   5.093   6.625  1.0064  0.2687 -0.5710
    2DOPE   O22  152   4.406   5.040   6.691  0.1136  0.1881 -0.0371
    2DOPE   C22  153   4.347   5.175   6.500 -0.3188  0.0026 -0.0781
    2DOPE   H2R  154   4.444   5.227   6.515 -0.0494 -0.7446  0.8397
    2DOPE   H2S  155   4.270   5.255   6.491 -0.9976 -0.6405 -0.1025
    2DOPE    C3  156   4.142   4.849   6.752  0.2163 -0.2351 -0.1190
    2DOPE    HX  157   4.118   4.797   6.847 -1.1205  2.1309  0.9210
    2DOPE    HY  158   4.233   4.802   6.710  0.6344  0.8311 -0.4567
    2DOPE   O31  159   4.027   4.827   6.672  0.2388  0.9345  0.5804
    2DOPE   C31  160   4.055   4.820   6.538  0.5228 -0.0147 -0.9346
    2DOPE   O32  161   4.161   4.841   6.483  0.3706  0.2950  0.0414
    2DOPE   C32  162   3.931   4.769   6.466  0.4011 -0.3091 -0.1733
    2DOPE   H2X  163   3.980   4.693   6.401 -0.0698  0.4815 -1.4937
    2DOPE   H2Y  164   3.855   4.722   6.532 -0.7011  0.7728 -0.6496
    2DOPE   C23  165   4.347   5.096   6.373  0.2263 -0.4633  0.0258
    2DOPE   H3R  166   4.254   5.035   6.367  0.6001 -1.2068  1.3582
    2DOPE   H3S  167   4.421   5.014   6.375 -0.0138 -0.6775  0.1974
    2DOPE   C24  168   4.377   5.181   6.253 -0.6884 -0.1066 -0.0653
    2DOPE   H4R  169   4.475   5.231   6.266 -0.7754 -0.0440  0.3583
    2DOPE   H4S  170   4.295   5.254   6.239 -1.6145 -1.4136 -1.9486
    2DOPE   C25  171   4.393   5.089   6.130 -0.4488  0.0052  0.2954
    2DOPE   H5R  172   4.307   5.027   6.099  1.1008 -1.3666 -1.5067
    2DOPE   H5S  173   4.474   5.019   6.159 -0.6223  0.1976  1.2692
    2DOPE   C26  174   4.439   5.162   5.998  0.5670  0.3212  0.0332
    2DOPE   H6R  175   4.446   5.075   5.929  1.9992  0.2701  0.2096
    2DOPE   H6S  176   4.537   5.212   6.006  0.3684  0.7292 -0.0454
    2DOPE   C27  177   4.334   5.253   5.928 -0.6107  0.0831 -0.1855
    2DOPE   H7R  178   4.233   5.210   5.938  0.4345 -3.2145 -2.1267
    2DOPE   H7S  179   4.367   5.263   5.822 -1.1800  2.5475 -0.1857
    2DOPE   C28  180   4.340   5.403   5.965  0.7781  0.2660 -0.3837
    2DOPE   H8R  181   4.428   5.457   5.924 -0.5587  2.0144 -1.0963
    2DOPE   H8S  182   4.363   5.417   6.073  3.3761  0.0363 -0.8463
    2DOPE   C29  183   4.210   5.477   5.939  0.9769  1.0090  0.2875
    2DOPE   H9R  184   4.161   5.467   5.841  0.8131 -1.4258  0.5514
    2DOPE  C210  185   4.163   5.564   6.031  0.0604 -0.2920  0.4376
    2DOPE  H10R  186   4.061   5.601   6.021 -0.2700 -0.5221  2.5353
    2DOPE  C211  187   4.208   5.609   6.167 -0.1617 -0.0456 -0.8844
    2DOPE  H11R  188   4.318   5.596   6.171 -0.2020 -0.5589 -1.3094
    2DOPE  H11S  189   4.173   5.543   6.250  1.1774  0.6709  0.2994
    2DOPE  C212  190   4.182   5.751   6.212 -0.2155  0.4619 -0.0174
    2DOPE  H12R  191   4.232   5.750   6.311 -2.1878  0.7828  1.0296
    2DOPE  H12S  192   4.076   5.768   6.241 -0.2956  1.1109 -0.6339
    2DOPE  C213  193   4.241   5.852   6.112 -0.4238  0.2529 -0.5762
    2DOPE  H13R  194   4.206   5.951   6.147  1.2994  0.0767  1.8668
    2DOPE  H13S  195   4.201   5.834   6.010 -1.0179  0.6595 -0.4230
    2DOPE  C214  196   4.394   5.859   6.110 -0.2553 -0.1870 -0.5897
    2DOPE  H14R  197   4.430   5.758   6.080 -0.7833 -0.6672  0.3377
    2DOPE  H14S  198   4.436   5.896   6.206  1.1355 -1.1159 -0.8023
    2DOPE  C215  199   4.440   5.961   6.005 -0.0548 -0.1390 -0.1538
    2DOPE  H15R  200   4.385   6.055   6.024  1.1038  0.3461  0.9371
    2DOPE  H15S  201   4.413   5.917   5.906  2.0998  0.0642 -0.8807
    2DOPE  C216  202   4.589   5.979   6.022  0.1510 -0.5314  0.4400
    2DOPE  H16R  203   4.648   5.885   6.026 -0.3081 -0.7835  3.0128
    2DOPE  H16S  204   4.610   6.020   6.123  0.4002 -0.4136  0.3438
    2DOPE  C217  205   4.660   6.073   5.917  0.2674  0.0314 -0.6766
    2DOPE  H17R  206   4.657   6.034   5.813 -1.5932 -1.6301 -0.0796
    2DOPE  H17S  207   4.764   6.075   5.954  0.4893 -0.0257 -1.2818
    2DOPE  C218  208   4.611   6.215   5.922  0.8911  0.1689  0.2836
    2DOPE  H18R  209   4.638   6.263   6.018 -0.2889 -1.1008  1.3086
    2DOPE  H18S  210   4.502   6.228   5.906  0.6538 -0.3710  1.3541
    2DOPE  H18T  211   4.664   6.274   5.844 -1.2886  1.4070 -0.3463
    2DOPE   C33  212   3.872   4.871   6.370 -0.0902 -0.5188  0.0821
    2DOPE   H3X  213   3.939   4.892   6.284  0.2241 -1.7745  0.0090
    2DOPE   H3Y  214   3.870   4.968   6.425  3.8509 -0.8076  1.0453
    2DOPE   C34  215   3.731   4.838   6.318  0.1553 -0.2710 -0.0241
    2DOPE   H4X  216   3.688   4.755   6.378  1.5904 -1.9050 -1.1617
    2DOPE   H4Y  217   3.669   4.929   6.330  1.6636  0.5931  1.7870
    2DOPE   C35  218   3.723   4.803   6.169 -0.4196 -0.2329  0.0773
    2DOPE   H5X  219   3.759   4.698   6.157 -1.4046 -0.4822 -0.8450
    2DOPE   H5Y  220   3.806   4.855   6.116  1.8965 -4.1516 -0.5955
    2DOPE   C36  221   3.596   4.836   6.108  0.7050 -0.8687  0.2271
    2DOPE   H6X  222   3.578   4.944   6.129  2.0876 -0.5345 -0.1721
    2DOPE   H6Y  223   3.508   4.794   6.162  0.8033 -0.7573  0.4769
    2DOPE   C37  224   3.580   4.804   5.958  0.1407  0.6250  0.3941
    2DOPE   H7X  225   3.671   4.833   5.902  0.1064  1.6312  0.8404
    2DOPE   H7Y  226   3.571   4.693   5.956 -0.9276  0.7108 -0.3695
    2DOPE   C38  227   3.471   4.883   5.882  0.2973 -0.3442  0.4934
    2DOPE   H8X  228   3.461   4.849   5.777  1.4332 -0.3419  0.3692
    2DOPE   H8Y  229   3.495   4.990   5.866 -0.8943 -0.0511  0.5658
    2DOPE   C39  230   3.336   4.874   5.949 -1.0339  0.4259  0.0633
    2DOPE   H9X  231   3.342   4.839   6.053 -1.7986  1.0377  0.3170
    2DOPE  C310  232   3.216   4.903   5.910 -0.4022  0.0767  0.3283
    2DOPE  H10X  233   3.136   4.886   5.983 -0.4487 -0.1737  0.2192
    2DOPE  C311  234   3.176   4.950   5.773 -0.0089  0.0984  0.4081
    2DOPE  H11X  235   3.111   5.040   5.777 -0.5065 -0.1809 -0.9279
    2DOPE  H11Y  236   3.258   4.967   5.699 -0.5548 -1.0377 -0.4818
    2DOPE  C312  237   3.083   4.844   5.709 -0.0255  0.4059 -0.0645
    2DOPE  H12X  238   3.005   4.815   5.783 -1.5269 -0.0785 -1.7504
    2DOPE  H12Y  239   3.149   4.756   5.693  1.1810  1.0274  1.3027
    2DOPE  C313  240   3.030   4.899   5.576  0.0664  0.7215 -0.2283
    2DOPE  H13X  241   2.996   5.000   5.609 -0.5299 -0.2415  2.3567
    2DOPE  H13Y  242   3.126   4.901   5.520  1.3141  0.7515  1.8166
    2DOPE  C314  243   2.909   4.814   5.523 -0.2530  0.6992 -0.4081
    2DOPE  H14X  244   2.823   4.815   5.594  0.4470  1.8041  0.4647
    2DOPE  H14Y  245   2.934   4.706   5.534  0.5230  0.7699 -1.3535
    2DOPE  C315  246   2.864   4.852   5.381  0.8110 -0.2080 -0.3858
    2DOPE  H15X  247   2.937   4.927   5.343 -0.7325  0.9476 -1.1936
    2DOPE  H15Y  248   2.763   4.898   5.381  0.6735 -0.4326  1.5298
    2DOPE  C316  249   2.852   4.729   5.291 -0.2168 -0.1816 -0.3987
    2DOPE  H16X  250   2.773   4.668   5.340  0.7268 -1.5815 -0.5575
    2DOPE  H16Y  251   2.937   4.658   5.298 -0.8303 -0.7959  1.5454
    2DOPE  C317  252   2.822   4.759   5.142  0.3862 -0.2214 -0.1838
    2DOPE  H17X  253   2.903   4.827   5.112  0.0093 -0.2588 -1.3351
    2DOPE  H17Y  254   2.839   4.667   5.081 -0.3190  0.4280 -1.4042
    2DOPE  C318  255   2.690   4.835   5.122  0.0893  0.2000 -0.0340
    2DOPE  H18X  256   2.601   4.798   5.178 -0.5312  2.4208  0.5845
    2DOPE  H18Y  257   2.710   4.936   5.163  1.5404  0.7542 -1.9799
    2DOPE  H18Z  258   2.675   4.855   5.014  0.4049  1.6917  0.1813
    3DOPE     N  259   2.730   5.725   6.660  0.3082  0.5353  0.0646
    3DOPE   HN1  260   2.810   5.765   6.713  0.9978 -0.7976  0.0795
    3DOPE   HN2  261   2.643   5.772   6.694 -0.9597 -1.7136  0.1320
    3DOPE   HN3  262   2.717   5.625   6.685  1.0127  0.3816 -0.1639
    3DOPE   C12  263   2.763   5.740   6.513 -0.8119 -0.1391  0.4916
    3DOPE  H12A  264   2.676   5.691   6.465 -2.1424  2.6286 -0.1524
    3DOPE  H12B  265   2.854   5.689   6.476 -1.1525  0.1271 -0.7941
    3DOPE   C11  266   2.773   5.887   6.479  0.0949 -0.2436 -0.1866
    3DOPE  H11A  267   2.770   5.894   6.368 -2.9152 -0.9889 -0.2283
    3DOPE  H11B  268   2.870   5.923   6.519 -0.0072  2.8035 -2.3791
    3DOPE     P  269   2.649   6.116   6.528 -0.1264 -0.2879 -0.5000
    3DOPE   O13  270   2.769   6.169   6.596  0.3101  0.0764  0.5499
    3DOPE   O14  271   2.515   6.148   6.585 -0.0364  0.4102 -0.0147
    3DOPE   O11  272   2.660   6.157   6.379  0.6880  0.5258 -0.2135
    3DOPE   O12  273   2.661   5.958   6.531  0.7389  0.8555 -0.3227
    3DOPE    C1  274   2.764   6.184   6.296  0.1534  0.5931 -0.0660
    3DOPE    HA  275   2.846   6.113   6.318 -1.5605 -1.1762  0.9500
    3DOPE    HB  276   2.809   6.281   6.328 -3.5695  2.0734  1.2573
    3DOPE    C2  277   2.728   6.179   6.153  0.0115 -0.0580  0.2527
    3DOPE    HS  278   2.632   6.230   6.129  0.1100 -0.1422 -0.3208
    3DOPE   O21  279   2.713   6.041   6.123 -0.3030  0.6640 -0.1076
    3DOPE   C21  280   2.629   6.004   6.028 -0.1997 -0.7512  0.0163
    3DOPE   O22  281   2.564   6.079   5.958 -0.4226 -0.3146  0.3437
    3DOPE   C22  282   2.641   5.852   6.007  0.1077  0.2969 -0.4746
    3DOPE   H2R  283   2.621   5.787   6.094  0.3698  0.5961 -0.1883
    3DOPE   H2S  284   2.741   5.827   5.967  0.5043 -0.0913  0.7111
    3DOPE    C3  285   2.831   6.253   6.057  0.3597 -0.0665 -0.6426
    3DOPE    HX  286   2.924   6.191   6.060  0.6517  0.3868  1.8317
    3DOPE    HY  287   2.850   6.345   6.117  0.4185 -0.3908 -0.1632
    3DOPE   O31  288   2.776   6.274   5.924  0.3738  0.7244 -0.1961
    3DOPE   C31  289   2.814   6.184   5.829  0.0189  0.0174  0.0105
    3DOPE   O32  290   2.895   6.094   5.844 -0.1574  0.1174 -0.2569
    3DOPE   C32  291   2.729   6.209   5.700  0.0708 -0.0252 -0.3323
    3DOPE   H2X  292   2.666   6.118   5.699  2.1556 -1.5648  0.3073
    3DOPE   H2Y  293   2.662   6.295   5.719  0.6257  0.7035 -1.5127
    3DOPE   C23  294   2.542   5.802   5.894  0.6657 -0.8794 -0.3147
    3DOPE   H3R  295   2.569   5.855   5.800 -2.2120  2.3876  0.5013
    3DOPE   H3S  296   2.437   5.835   5.905  0.6560 -0.6601 -1.0181
    3DOPE   C24  297   2.560   5.655   5.888 -0.3238  0.4621 -0.1070
    3DOPE   H4R  298   2.576   5.607   5.986  0.4285  0.0103 -0.4440
    3DOPE   H4S  299   2.656   5.632   5.836 -0.5934  0.6382 -0.6921
    3DOPE   C25  300   2.446   5.585   5.806 -0.4190 -0.5831  0.1104
    3DOPE   H5R  301   2.464   5.600   5.698 -2.2741  0.0565 -0.1431
    3DOPE   H5S  302   2.352   5.638   5.832 -0.7145  0.0479 -2.1170
    3DOPE   C26  303   2.444   5.434   5.834  0.1343  0.2446  0.2575
    3DOPE   H6R  304   2.391   5.417   5.930  1.2840 -0.0940  0.8566
    3DOPE   H6S  305   2.551   5.410   5.854  0.5672 -0.2670 -2.2805
    3DOPE   C27  306   2.388   5.344   5.719 -0.0127 -0.1653 -0.0436
    3DOPE   H7R  307   2.419   5.383   5.620 -0.2195 -0.8861 -0.4011
    3DOPE   H7S  308   2.278   5.362   5.717 -0.2084 -1.1557  0.9729
    3DOPE   C28  309   2.409   5.198   5.736 -0.6588  1.0789 -0.2483
    3DOPE   H8R  310   2.338   5.154   5.662 -1.1841  2.0979 -0.3667
    3DOPE   H8S  311   2.384   5.161   5.838 -0.2764  0.4033 -0.3911
    3DOPE   C29  312   2.547   5.155   5.692  0.0361 -0.0780  0.5881
    3DOPE   H9R  313   2.633   5.210   5.734  0.2187 -0.4167  0.6660
    3DOPE  C210  314   2.579   5.063   5.601  0.2428 -0.5744  0.2587
    3DOPE  H10R  315   2.686   5.048   5.582  0.1517 -0.5756 -0.2735
    3DOPE  C211  316   2.488   4.962   5.531  0.3059 -0.1757 -0.6484
    3DOPE  H11R  317   2.391   4.966   5.585  0.7210  0.3420  0.0704
    3DOPE  H11S  318   2.523   4.858   5.551  0.7702  0.0706 -0.1478
    3DOPE  C212  319   2.468   4.978   5.381 -0.4838 -0.4378 -0.1504
    3DOPE  H12R  320   2.400   4.899   5.342 -1.6696  0.4741 -0.0089
    3DOPE  H12S  321   2.557   4.969   5.317 -0.0537  0.5222  0.2855
    3DOPE  C213  322   2.401   5.119   5.354  0.2887  0.5766  0.5611
    3DOPE  H13R  323   2.440   5.201   5.417  0.4845 -0.6029  2.0202
    3DOPE  H13S  324   2.292   5.122   5.374 -0.2086  2.0334 -1.8813
    3DOPE  C214  325   2.417   5.172   5.214  0.4137  0.2264 -0.9747
    3DOPE  H14R  326   2.522   5.203   5.194  0.3186  0.5275 -1.0222
    3DOPE  H14S  327   2.366   5.270   5.201  1.0845  0.4454 -2.1412
    3DOPE  C215  328   2.387   5.063   5.110 -0.0734 -0.1447 -0.4342
    3DOPE  H15R  329   2.280   5.036   5.127 -0.0969  0.8924  1.3631
    3DOPE  H15S  330   2.449   4.972   5.120 -0.2179 -0.0577  2.0316
    3DOPE  C216  331   2.407   5.115   4.960  0.1652  0.5015  0.0713
    3DOPE  H16R  332   2.392   5.028   4.893 -1.5799  0.5459  0.3596
    3DOPE  H16S  333   2.510   5.148   4.932  1.3525 -2.2308  0.8631
    3DOPE  C217  334   2.319   5.226   4.917  0.2598 -0.2565  0.7706
    3DOPE  H17R  335   2.344   5.315   4.979  0.3245  0.7494 -0.6362
    3DOPE  H17S  336   2.214   5.206   4.946 -0.2247  2.1175  0.9119
    3DOPE  C218  337   2.318   5.251   4.765 -0.5372 -0.1430  0.0816
    3DOPE  H18R  338   2.318   5.153   4.711  2.8897 -1.4216  2.0964
    3DOPE  H18S  339   2.406   5.311   4.732 -1.8850  2.2283  0.5942
    3DOPE  H18T  340   2.226   5.307   4.736 -0.7137 -0.1429  0.6280
    3DOPE   C33  341   2.810   6.210   5.568 -0.0737  0.5094  0.2595
    3DOPE   H3X  342   2.875   6.121   5.574 -0.2636  0.4349  1.7300
    3DOPE   H3Y  343   2.866   6.306   5.570  1.7959 -0.5444  0.0224
    3DOPE   C34  344   2.724   6.210   5.441 -0.4103  0.5723 -0.0040
    3DOPE   H4X  345   2.652   6.131   5.470  0.5609  0.0527  1.0917
    3DOPE   H4Y  346   2.663   6.303   5.445 -2.2666 -0.5452 -1.1447
    3DOPE   C35  347   2.817   6.204   5.322  0.3509 -0.0816  0.2035
    3DOPE   H5X  348   2.864   6.104   5.311 -0.4769 -0.3712 -0.9417
    3DOPE   H5Y  349   2.893   6.285   5.328  0.2114  0.2932 -2.2022
    3DOPE   C36  350   2.746   6.228   5.189  0.3260 -0.7129  0.0675
    3DOPE   H6X  351   2.659   6.160   5.177 -2.2855  2.7212 -2.0125
    3DOPE   H6Y  352   2.824   6.224   5.110  1.5408  2.5390  0.9573
    3DOPE   C37  353   2.702   6.376   5.170  0.3394  0.3668  0.3750
    3DOPE   H7X  354   2.624   6.384   5.248  0.8875 -0.5626  1.0345
    3DOPE   H7Y  355   2.794   6.436   5.186 -0.5705  2.1295 -0.6291
    3DOPE   C38  356   2.662   6.422   5.028 -0.1423 -0.0036  0.8189
    3DOPE   H8X  357   2.587   6.348   4.994 -0.1781  0.2603  0.3178
    3DOPE   H8Y  358   2.747   6.411   4.957 -1.3022  2.6718 -1.1933
    3DOPE   C39  359   2.607   6.560   5.017 -0.0729  0.6670  0.9589
    3DOPE   H9X  360   2.565   6.597   5.111  0.8707 -0.2441  1.7746
    3DOPE  C310  361   2.604   6.631   4.902  0.3174  0.1607 -0.0728
    3DOPE  H10X  362   2.575   6.737   4.903  2.9007  0.9437  0.2288
    3DOPE  C311  363   2.648   6.592   4.761  0.3078  0.1150  0.1168
    3DOPE  H11X  364   2.669   6.483   4.754  0.4858  0.0661  1.2656
    3DOPE  H11Y  365   2.583   6.627   4.678  0.0120 -1.7880 -0.4985
    3DOPE  C312  366   2.778   6.660   4.722 -0.5824  0.6512 -0.6447
    3DOPE  H12X  367   2.864   6.606   4.767 -1.5486  0.6100  1.2716
    3DOPE  H12Y  368   2.787   6.762   4.766 -0.2934  1.1656 -1.8736
    3DOPE  C313  369   2.805   6.686   4.568 -0.5420 -0.4207  0.2724
    3DOPE  H13X  370   2.789   6.594   4.507 -2.9601  1.1863 -1.6886
    3DOPE  H13Y  371   2.736   6.766   4.536  0.8543  0.8985  0.4395
    3DOPE  C314  372   2.951   6.740   4.551  0.7159 -0.5862  0.1198
    3DOPE  H14X  373   3.016   6.652   4.570  1.6766  0.6354  2.9259
    3DOPE  H14Y  374   2.971   6.817   4.628  0.1591  0.4951 -0.7881
    3DOPE  C315  375   2.974   6.795   4.405 -0.0601  0.3883 -0.5315
    3DOPE  H15X  376   2.916   6.890   4.405  1.9735  1.7139 -1.9815
    3DOPE  H15Y  377   2.933   6.721   4.333  0.8493 -0.6348 -0.0142
    3DOPE  C316  378   3.121   6.830   4.387  0.1303 -0.0117 -0.6786
    3DOPE  H16X  379   3.181   6.744   4.424 -0.4207  0.0957  0.5357
    3DOPE  H16Y  380   3.153   6.904   4.464  0.8844 -1.4140  0.3881
    3DOPE  C317  381   3.157   6.878   4.245  0.1386  0.5177  0.1656
    3DOPE  H17X  382   3.114   6.807   4.172 -2.1006 -0.4577  2.3147
    3DOPE  H17Y  383   3.119   6.981   4.228  0.0724  0.6613  1.1344
    3DOPE  C318  384   3.308   6.867   4.227 -0.0368 -0.0419 -0.1656
    3DOPE  H18X  385   3.345   6.764   4.246 -0.2733 -0.2353 -0.7475
    3DOPE  H18Y  386   3.332   6.908   4.127  2.7467  0.4485  0.6063
    3DOPE  H18Z  387   3.357   6.944   4.291  0.9541  0.5200 -1.5563
    4DOPE     N  388   3.352   4.188   7.136  0.3051  0.0745 -0.5671
    4DOPE   HN1  389   3.437   4.237   7.102  1.9654 -1.8224  0.5851
    4DOPE   HN2  390   3.265   4.208   7.083  0.0623  0.4147 -0.0375
    4DOPE   HN3  391   3.330   4.234   7.226  3.3452 -1.0127  0.8618
    4DOPE   C12  392   3.376   4.043   7.164 -0.0948  0.3017 -0.2738
    4DOPE  H12A  393   3.289   4.001   7.220  2.3397 -2.1088  1.9686
    4DOPE  H12B  394   3.469   4.040   7.224 -1.7677 -2.4230  2.4876
    4DOPE   C11  395   3.379   3.968   7.029  0.0103  0.1683 -0.4262
    4DOPE  H11A  396   3.407   3.862   7.043 -2.0211 -0.1617  1.7154
    4DOPE  H11B  397   3.457   4.020   6.970  0.0563 -1.2665 -1.6867
    4DOPE     P  398   3.171   3.877   6.889  0.1609 -0.0817  0.2555
    4DOPE   O13  399   3.034   3.920   6.866  0.1277 -0.3987  0.2932
    4DOPE   O14  400   3.193   3.738   6.946 -0.3139  0.0331 -0.4261
    4DOPE   O11  401   3.243   3.884   6.748  0.6679  0.4017  0.1329
    4DOPE   O12  402   3.249   3.983   6.972 -0.2295  0.0968 -0.2978
    4DOPE    C1  403   3.244   4.016   6.685 -1.0700  0.0108 -0.0174
    4DOPE    HA  404   3.346   4.027   6.643 -0.2173 -1.0506  1.6890
    4DOPE    HB  405   3.242   4.102   6.756  1.5827  0.1814 -0.0585
    4DOPE    C2  406   3.145   4.041   6.569  0.0800  0.2390 -0.5712
    4DOPE    HS  407   3.045   4.015   6.608  1.8925 -2.2855  2.9757
    4DOPE   O21  408   3.178   3.953   6.456  0.1817  0.1163 -1.0147
    4DOPE   C21  409   3.081   3.898   6.385 -0.3766 -0.1413 -0.4222
    4DOPE   O22  410   2.961   3.930   6.399 -0.0541 -0.1752 -0.2944
    4DOPE   C22  411   3.138   3.820   6.273  0.3103  0.3389  0.2882
    4DOPE   H2R  412   3.225   3.756   6.302  1.2439  1.3015 -0.3267
    4DOPE   H2S  413   3.164   3.887   6.189 -1.5423  0.6388 -0.0882
    4DOPE    C3  414   3.139   4.190   6.524  0.7162  0.5080 -0.1129
    4DOPE    HX  415   3.111   4.252   6.612 -0.5522 -0.4625  0.1897
    4DOPE    HY  416   3.061   4.215   6.449  2.2218  1.6268 -1.3799
    4DOPE   O31  417   3.267   4.226   6.468  0.0764 -0.1912 -0.0899
    4DOPE   C31  418   3.286   4.350   6.430 -0.1129 -0.0774  0.0432
    4DOPE   O32  419   3.206   4.440   6.422 -0.3022 -0.2376 -0.0581
    4DOPE   C32  420   3.439   4.355   6.374  0.7433 -0.1263  0.2073
    4DOPE   H2X  421   3.497   4.344   6.468 -1.0576 -0.4566  1.3383
    4DOPE   H2Y  422   3.464   4.274   6.302  2.1661  0.6466 -0.1994
    4DOPE   C23  423   3.041   3.707   6.228  1.0654  0.2046 -0.0534
    4DOPE   H3R  424   2.972   3.746   6.150 -0.1389 -3.1163 -0.8079
    4DOPE   H3S  425   2.973   3.688   6.314  0.3555  1.8044 -0.2133
    4DOPE   C24  426   3.104   3.582   6.166 -0.6950 -0.2082  0.2909
    4DOPE   H4R  427   3.036   3.495   6.153  0.6234 -1.6677  2.3867
    4DOPE   H4S  428   3.171   3.540   6.244 -1.0203 -1.4803 -0.0796
    4DOPE   C25  429   3.174   3.604   6.029 -0.2216  0.0041 -0.0105
    4DOPE   H5R  430   3.268   3.546   6.021 -2.1266 -3.2737 -0.3286
    4DOPE   H5S  431   3.201   3.709   6.003 -2.8044  0.3133 -1.8276
    4DOPE   C26  432   3.082   3.559   5.911  0.6445 -0.4431  0.5455
    4DOPE   H6R  433   2.975   3.582   5.929  0.5519  0.3198 -0.8175
    4DOPE   H6S  434   3.082   3.448   5.901  1.7653 -0.6033  2.0712
    4DOPE   C27  435   3.118   3.635   5.782  0.4817  0.2582  1.0743
    4DOPE   H7R  436   3.218   3.608   5.744  0.3432  0.6299  0.4348
    4DOPE   H7S  437   3.132   3.740   5.816 -0.9517  0.6965  0.4048
    4DOPE   C28  438   3.011   3.615   5.670  0.5147 -0.1753  0.2798
    4DOPE   H8R  439   3.026   3.704   5.605 -0.3839 -1.0703 -1.1797
    4DOPE   H8S  440   2.911   3.632   5.714  0.6102  1.9823 -0.2574
    4DOPE   C29  441   3.016   3.487   5.593  0.0444 -0.2873 -0.4324
    4DOPE   H9R  442   3.010   3.399   5.658 -0.8424 -1.4376 -1.9835
    4DOPE  C210  443   3.028   3.478   5.458 -0.4917  0.6255  0.4842
    4DOPE  H10R  444   3.022   3.378   5.412 -0.1319  0.6565  0.3642
    4DOPE  C211  445   3.038   3.592   5.365 -0.0596 -0.1940 -0.8775
    4DOPE  H11R  446   2.999   3.686   5.409  0.6192 -0.3819  0.1410
    4DOPE  H11S  447   2.980   3.583   5.270 -1.1212  1.1620 -0.3910
    4DOPE  C212  448   3.190   3.617   5.336 -0.2833  0.4857 -0.0025
    4DOPE  H12R  449   3.232   3.535   5.273  0.8161  1.4957 -0.6075
    4DOPE  H12S  450   3.238   3.627   5.436 -1.7090  0.4669  0.7219
    4DOPE  C213  451   3.215   3.739   5.251 -0.1943 -0.3211  0.1868
    4DOPE  H13R  452   3.226   3.829   5.315  0.6743 -0.1917 -0.1301
    4DOPE  H13S  453   3.119   3.761   5.198 -0.2753 -0.6132  0.2101
    4DOPE  C214  454   3.335   3.731   5.153 -0.0416 -0.3073  0.4690
    4DOPE  H14R  455   3.340   3.633   5.102  0.7010  0.5975 -1.3047
    4DOPE  H14S  456   3.428   3.747   5.212  0.4367 -0.1584 -0.3108
    4DOPE  C215  457   3.324   3.845   5.054  0.6732  0.3308  0.2380
    4DOPE  H15R  458   3.247   3.915   5.094 -1.5363 -2.2252  0.7205
    4DOPE  H15S  459   3.293   3.795   4.959  0.8454 -1.9899  1.3353
    4DOPE  C216  460   3.454   3.932   5.047 -0.3462  0.3847  0.1390
    4DOPE  H16R  461   3.545   3.871   5.032 -0.2569  0.8365 -1.3225
    4DOPE  H16S  462   3.454   3.979   5.148 -2.6656 -0.9503  0.8491
    4DOPE  C217  463   3.441   4.056   4.955 -0.4832 -0.5666 -0.2859
    4DOPE  H17R  464   3.529   4.123   4.965 -0.9556  0.0112  0.0452
    4DOPE  H17S  465   3.359   4.112   5.003 -0.5704  1.9244 -3.0318
    4DOPE  C218  466   3.419   4.035   4.807  0.5650 -0.0194 -0.0058
    4DOPE  H18R  467   3.313   4.003   4.796  0.0671  1.9035 -1.2612
    4DOPE  H18S  468   3.486   3.960   4.760 -2.4031 -2.6767 -0.3363
    4DOPE  H18T  469   3.426   4.135   4.759  0.4682 -0.7053 -1.4774
    4DOPE   C33  470   3.463   4.490   6.306 -0.4993  0.0602  0.2661
    4DOPE   H3X  471   3.568   4.522   6.324 -0.4109 -0.7631  1.3640
    4DOPE   H3Y  472   3.402   4.572   6.350 -0.4352  0.2571 -0.0117
    4DOPE   C34  473   3.446   4.488   6.144  0.0486  0.4389 -0.1967
    4DOPE   H4X  474   3.447   4.596   6.118 -2.3943  0.1159 -2.0322
    4DOPE   H4Y  475   3.540   4.455   6.097  0.2407  1.0290 -0.2361
    4DOPE   C35  476   3.332   4.409   6.078  0.4840  0.2518  0.0595
    4DOPE   H5X  477   3.237   4.452   6.116  1.2023  0.9753  1.0889
    4DOPE   H5Y  478   3.340   4.300   6.101 -0.4121 -0.4882 -2.6658
    4DOPE   C36  479   3.333   4.407   5.917  1.0889  0.2496  0.5914
    4DOPE   H6X  480   3.313   4.511   5.881  1.3084  0.2164  0.3720
    4DOPE   H6Y  481   3.242   4.352   5.885  0.2342  2.0803 -0.3103
    4DOPE   C37  482   3.459   4.349   5.844  0.5610  0.0340  0.5165
    4DOPE   H7X  483   3.543   4.400   5.896  1.2055 -0.6587  0.1696
    4DOPE   H7Y  484   3.465   4.239   5.856  1.7630 -0.3899 -3.0014
    4DOPE   C38  485   3.461   4.372   5.695 -0.4407 -0.2305  0.7391
    4DOPE   H8X  486   3.565   4.350   5.663 -0.9379 -1.8400  0.1523
    4DOPE   H8Y  487   3.456   4.482   5.677  1.0858 -0.5285 -2.1062
    4DOPE   C39  488   3.371   4.294   5.602  0.3584 -0.3496 -0.1099
    4DOPE   H9X  489   3.272   4.339   5.588  0.4593  0.5957  1.8710
    4DOPE  C310  490   3.404   4.179   5.541 -0.5062  1.0950 -0.1489
    4DOPE  H10X  491   3.344   4.143   5.456  0.4226  0.8044 -0.6980
    4DOPE  C311  492   3.539   4.117   5.546 -0.2502  0.1682  0.0718
    4DOPE  H11X  493   3.586   4.147   5.642  0.5372  0.3227 -0.3518
    4DOPE  H11Y  494   3.524   4.007   5.543  0.6753  0.0575 -0.8342
    4DOPE  C312  495   3.627   4.158   5.423 -0.2884 -0.1106 -0.9934
    4DOPE  H12X  496   3.643   4.268   5.433  4.5696 -0.6923  0.2616
    4DOPE  H12Y  497   3.577   4.140   5.326 -0.8069  0.4034 -0.8286
    4DOPE  C313  498   3.771   4.094   5.427  0.0319 -0.5453  0.4577
    4DOPE  H13X  499   3.791   4.047   5.525 -2.7766  0.6198  1.6891
    4DOPE  H13Y  500   3.769   4.009   5.356  0.9033  0.8496 -1.3403
    4DOPE  C314  501   3.886   4.207   5.396  0.0309  0.1648 -0.7081
    4DOPE  H14X  502   3.883   4.289   5.472  0.6105 -0.6915  0.2643
    4DOPE  H14Y  503   3.867   4.244   5.293  0.8865 -0.1074 -0.9736
    4DOPE  C315  504   4.025   4.144   5.406 -0.4701  0.6473  1.0342
    4DOPE  H15X  505   4.028   4.065   5.327 -0.0274  0.9665  0.7243
    4DOPE  H15Y  506   4.030   4.088   5.501 -0.8354 -0.3657  0.4799
    4DOPE  C316  507   4.138   4.243   5.379  0.3730 -0.2797  0.1580
    4DOPE  H16X  508   4.102   4.341   5.415 -0.2172  0.4281 -2.1710
    4DOPE  H16Y  509   4.142   4.256   5.268 -0.6558 -0.9752  0.0228
    4DOPE  C317  510   4.275   4.200   5.425 -0.2166 -0.7395 -0.3240
    4DOPE  H17X  511   4.350   4.276   5.392  0.3433 -0.3690  1.6750
    4DOPE  H17Y  512   4.280   4.200   5.536 -3.7598  2.2280  0.0590
    4DOPE  C318  513   4.318   4.061   5.374 -0.2380 -0.5646 -0.0382
    4DOPE  H18X  514   4.421   4.030   5.400  0.3924 -1.0352 -2.8066
    4DOPE  H18Y  515   4.248   3.991   5.426 -0.4289  0.3269  0.9440
    4DOPE  H18Z  516   4.306   4.054   5.264  4.0403  0.2530 -0.7037
    5DOPE     N  517   1.947   4.754   6.399  0.0799 -0.0111 -0.0106
    5DOPE   HN1  518   1.942   4.812   6.313 -0.4511 -0.5363 -0.3365
    5DOPE   HN2  519   2.043   4.743   6.439  0.1933  1.7346  0.2614
    5DOPE   HN3  520   1.905   4.664   6.370  0.1281  0.3913 -1.4010
    5DOPE   C12  521   1.869   4.822   6.509  0.0516  0.2475  0.2172
    5DOPE  H12A  522   1.886   4.930   6.492  3.1265 -0.1810 -0.0044
    5DOPE  H12B  523   1.913   4.806   6.610  0.9251  2.2595  0.2047
    5DOPE   C11  524   1.723   4.773   6.491 -0.0982  0.1044  0.8025
    5DOPE  H11A  525   1.681   4.795   6.390  2.1880 -1.8655 -0.6925
    5DOPE  H11B  526   1.659   4.840   6.552  0.4834  1.4061  0.0040
    5DOPE     P  527   1.691   4.526   6.393 -0.4745 -0.3102 -0.4112
    5DOPE   O13  528   1.669   4.392   6.451 -0.1819 -0.2844 -0.9333
    5DOPE   O14  529   1.812   4.541   6.301 -0.2749  0.2622  0.2359
    5DOPE   O11  530   1.567   4.587   6.321  0.1501  0.1912 -0.1110
    5DOPE   O12  531   1.701   4.634   6.514 -0.3079 -0.2396  0.3359
    5DOPE    C1  532   1.527   4.511   6.205 -0.0158  0.4651  0.4534
    5DOPE    HA  533   1.417   4.521   6.189  0.2025  1.9100 -0.3001
    5DOPE    HB  534   1.547   4.402   6.211 -1.7308  0.0390 -0.6114
    5DOPE    C2  535   1.590   4.576   6.079  0.4653 -0.6393 -0.6705
    5DOPE    HS  536   1.698   4.600   6.086  0.3510  1.6025 -4.1108
    5DOPE   O21  537   1.515   4.701   6.066 -0.6359 -0.3048  0.6724
    5DOPE   C21  538   1.586   4.812   6.041  0.0271 -0.1569  0.0257
    5DOPE   O22  539   1.707   4.816   6.033  0.7114 -0.3045  0.3351
    5DOPE   C22  540   1.494   4.931   6.008  0.2829  0.8747  0.6192
    5DOPE   H2R  541   1.455   4.963   6.107  0.2498  3.1396 -0.0624
    5DOPE   H2S  542   1.414   4.890   5.942  1.1380  0.5962 -0.2656
    5DOPE    C3  543   1.568   4.496   5.945  0.1145  0.2805 -0.0080
    5DOPE    HX  544   1.459   4.474   5.935  0.1405 -0.3675  1.0144
    5DOPE    HY  545   1.622   4.399   5.945  1.9949  1.1635 -3.4951
    5DOPE   O31  546   1.620   4.571   5.835  0.1044 -0.2155  0.1032
    5DOPE   C31  547   1.748   4.558   5.811  0.5892  0.1875 -0.2743
    5DOPE   O32  548   1.831   4.516   5.885  0.5529 -0.8598  0.5890
    5DOPE   C32  549   1.770   4.641   5.680  0.0619  0.0363  0.4854
    5DOPE   H2X  550   1.684   4.618   5.614 -1.1284  2.4838  1.0490
    5DOPE   H2Y  551   1.764   4.746   5.717  0.7556  1.7852 -3.8463
    5DOPE   C23  552   1.574   5.047   5.941 -0.0097 -0.0532 -0.0239
    5DOPE   H3R  553   1.669   5.072   5.993  0.4840  1.7070 -1.6319
    5DOPE   H3S  554   1.514   5.140   5.941  1.4733  0.9509  1.7483
    5DOPE   C24  555   1.600   5.020   5.792  0.0091 -0.1155  0.2354
    5DOPE   H4R  556   1.696   4.963   5.794  0.8052  1.1020 -1.2943
    5DOPE   H4S  557   1.627   5.118   5.749 -0.2091 -1.1948 -2.5472
    5DOPE   C25  558   1.490   4.951   5.709 -0.2675  0.4539 -0.8021
    5DOPE   H5R  559   1.491   4.849   5.752 -0.2980 -0.1664 -2.1950
    5DOPE   H5S  560   1.524   4.932   5.605  1.1556 -2.4783  0.0902
    5DOPE   C26  561   1.357   5.022   5.708  0.0351  0.0901 -0.3912
    5DOPE   H6R  562   1.365   5.117   5.651  0.4343  0.1871 -0.1789
    5DOPE   H6S  563   1.323   5.043   5.812 -0.8327 -0.4545 -0.5607
    5DOPE   C27  564   1.251   4.937   5.646 -0.5494 -0.7352 -0.0217
    5DOPE   H7R  565   1.150   4.970   5.677 -0.6113  0.2541 -1.1659
    5DOPE   H7S  566   1.253   4.839   5.698  3.2935 -0.6942  0.2039
    5DOPE   C28  567   1.259   4.896   5.493  0.1997 -0.4295 -0.0181
    5DOPE   H8R  568   1.192   4.812   5.463  1.6082 -0.1546 -4.5267
    5DOPE   H8S  569   1.360   4.859   5.467  0.3911  0.8370 -1.1207
    5DOPE   C29  570   1.219   5.016   5.401 -0.4575  0.7881 -0.3533
    5DOPE   H9R  571   1.285   5.104   5.412 -0.6481  0.7409  1.4094
    5DOPE  C210  572   1.120   5.031   5.319  0.5878 -0.6206 -0.0179
    5DOPE  H10R  573   1.110   5.125   5.263 -0.7398  0.1700  1.4749
    5DOPE  C211  574   1.013   4.926   5.303 -1.2690  0.1968 -0.0071
    5DOPE  H11R  575   0.950   4.905   5.392  2.1955 -1.6464  2.2517
    5DOPE  H11S  576   1.072   4.836   5.277 -0.1813  1.0937 -0.7392
    5DOPE  C212  577   0.913   4.960   5.186  0.0249  0.3821 -0.0522
    5DOPE  H12R  578   0.852   5.048   5.216 -0.6619  0.0931 -0.5769
    5DOPE  H12S  579   0.836   4.880   5.193 -1.1436  1.2181 -2.1990
    5DOPE  C213  580   0.969   4.963   5.037 -0.9628  0.2993 -0.3242
    5DOPE  H13R  581   1.035   4.874   5.027 -1.3677 -0.1099  0.5558
    5DOPE  H13S  582   1.038   5.050   5.032  1.8176 -1.7746 -0.4815
    5DOPE  C214  583   0.864   4.963   4.924  0.2471 -0.2854  0.0125
    5DOPE  H14R  584   0.922   4.947   4.830  2.1070 -0.6578  1.1748
    5DOPE  H14S  585   0.815   5.063   4.925 -1.5328 -1.1025  2.2622
    5DOPE  C215  586   0.758   4.864   4.944 -0.0243  0.5839 -0.1264
    5DOPE  H15R  587   0.708   4.873   5.043 -0.3671 -0.2579 -0.2164
    5DOPE  H15S  588   0.800   4.761   4.940 -1.6655 -0.0868 -1.0829
    5DOPE  C216  589   0.654   4.865   4.824 -0.2947  0.0039  0.3825
    5DOPE  H16R  590   0.600   4.768   4.818 -0.4635  0.1890 -1.5788
    5DOPE  H16S  591   0.719   4.863   4.734 -0.6490 -0.6099  0.1282
    5DOPE  C217  592   0.570   4.983   4.829  0.3423 -1.2334  0.3089
    5DOPE  H17R  593   0.612   5.072   4.881  0.9369 -0.5519 -1.2741
    5DOPE  H17S  594   0.486   4.955   4.896  0.8359 -1.1901  0.9526
    5DOPE  C218  595   0.524   5.043   4.696 -0.2531 -0.1014  0.4372
    5DOPE  H18R  596   0.439   5.114   4.686  1.5861  1.8846 -3.4229
    5DOPE  H18S  597   0.517   4.967   4.616  1.3606  2.2387 -2.1333
    5DOPE  H18T  598   0.614   5.106   4.678 -0.7976  0.6661  0.3344
    5DOPE   C33  599   1.897   4.625   5.596 -0.7031 -0.0061  0.3439
    5DOPE   H3X  600   1.979   4.622   5.671 -0.7222 -0.3902  0.3498
    5DOPE   H3Y  601   1.904   4.704   5.518 -1.3463 -1.9626 -1.7871
    5DOPE   C34  602   1.892   4.491   5.517  0.3397  0.2286  0.3241
    5DOPE   H4X  603   1.995   4.467   5.484  0.2587  0.2213  0.0724
    5DOPE   H4Y  604   1.849   4.406   5.575  1.7284 -1.1426 -0.5537
    5DOPE   C35  605   1.805   4.497   5.386 -0.0999 -0.6438  0.1417
    5DOPE   H5X  606   1.726   4.575   5.393  1.6873  1.3465 -0.7228
    5DOPE   H5Y  607   1.754   4.401   5.363 -1.6894  0.9138 -3.5457
    5DOPE   C36  608   1.893   4.530   5.249  0.4463 -0.2491  0.5041
    5DOPE   H6X  609   1.997   4.491   5.249  1.0701  1.2197 -1.7061
    5DOPE   H6Y  610   1.912   4.639   5.242 -0.3221 -0.1493 -0.2837
    5DOPE   C37  611   1.824   4.495   5.111  0.0098 -0.1365 -0.0181
    5DOPE   H7X  612   1.727   4.548   5.101  0.5247  0.8141 -0.0655
    5DOPE   H7Y  613   1.897   4.531   5.036  1.2414 -0.8636  0.7807
    5DOPE   C38  614   1.804   4.345   5.101 -0.3004  0.4578  0.0599
    5DOPE   H8X  615   1.739   4.313   5.186 -0.8212  3.0442  0.7568
    5DOPE   H8Y  616   1.902   4.294   5.101  0.0436  1.0544 -1.6649
    5DOPE   C39  617   1.735   4.322   4.973  0.1018  0.2588  0.2760
    5DOPE   H9X  618   1.628   4.346   4.974  0.5852  2.9377 -1.9874
    5DOPE  C310  619   1.780   4.286   4.847 -0.5770  0.7671  0.3304
    5DOPE  H10X  620   1.711   4.287   4.761 -0.5062 -2.0432  0.1707
    5DOPE  C311  621   1.924   4.240   4.804  0.4805  0.3247 -0.2407
    5DOPE  H11X  622   1.957   4.280   4.706  1.2319 -0.0601 -0.1498
    5DOPE  H11Y  623   2.006   4.265   4.875  1.7802 -2.6449 -0.5609
    5DOPE  C312  624   1.938   4.086   4.794 -0.0277 -0.1396 -0.4618
    5DOPE  H12X  625   2.044   4.064   4.768  0.6754  1.3290  1.0554
    5DOPE  H12Y  626   1.872   4.040   4.716  1.5357 -1.0698 -1.2913
    5DOPE  C313  627   1.909   4.004   4.917  0.2344  0.9249  0.0071
    5DOPE  H13X  628   1.962   4.061   4.996  2.1433 -0.2821 -0.3168
    5DOPE  H13Y  629   1.802   4.003   4.946  0.2495 -0.2969  0.0984
    5DOPE  C314  630   1.954   3.856   4.911  0.8419 -0.4685  0.0258
    5DOPE  H14X  631   1.918   3.803   5.001  0.9847  0.0320  0.3796
    5DOPE  H14Y  632   2.065   3.850   4.916  1.0430  2.2807  0.3648
    5DOPE  C315  633   1.899   3.788   4.786  0.5208  0.0015  0.7524
    5DOPE  H15X  634   1.929   3.681   4.785  0.7598  0.0437  1.9665
    5DOPE  H15Y  635   1.934   3.841   4.695 -1.4299  0.8531  0.4482
    5DOPE  C316  636   1.744   3.777   4.793 -0.1550 -0.5983  0.0167
    5DOPE  H16X  637   1.717   3.885   4.798  0.9013 -0.1748 -2.1830
    5DOPE  H16Y  638   1.728   3.718   4.886  2.0865  0.0452  0.8703
    5DOPE  C317  639   1.687   3.718   4.665 -0.6684  0.2348 -0.7385
    5DOPE  H17X  640   1.723   3.615   4.647  1.3060  0.6108  0.7852
    5DOPE  H17Y  641   1.576   3.715   4.671 -0.6425  0.2547 -0.2564
    5DOPE  C318  642   1.706   3.800   4.540  0.3505  0.1878 -0.3685
    5DOPE  H18X  643   1.674   3.906   4.548  1.7188  0.7057 -1.3263
    5DOPE  H18Y  644   1.811   3.799   4.503  0.1423  2.2868 -1.1382
    5DOPE  H18Z  645   1.650   3.752   4.457  1.6783 -0.4230 -0.9415
    6DOPE     N  646   0.701   5.046   7.016  0.4629 -0.2264  0.3282
    6DOPE   HN1  647   0.625   5.034   6.946  0.8359  2.8357 -0.7903
    6DOPE   HN2  648   0.694   4.972   7.088  0.4566 -0.8555 -0.3092
    6DOPE   HN3  649   0.694   5.143   7.053  0.0854 -0.8008  1.7867
    6DOPE   C12  650   0.823   5.015   6.934 -0.0847 -0.2169  0.4263
    6DOPE  H12A  651   0.815   4.917   6.882 -1.9573 -0.2986  0.7741
    6DOPE  H12B  652   0.913   5.036   6.995 -1.3650 -0.9429  2.6726
    6DOPE   C11  653   0.841   5.109   6.811  0.5111 -0.2222  0.8252
    6DOPE  H11A  654   0.768   5.090   6.729  1.2958 -1.4200  0.3719
    6DOPE  H11B  655   0.945   5.086   6.782 -0.2248 -3.3281  0.2540
    6DOPE     P  656   0.936   5.340   6.802  0.0438  0.1063 -0.2350
    6DOPE   O13  657   1.053   5.331   6.893 -0.2933  0.0790 -0.7003
    6DOPE   O14  658   0.869   5.469   6.795 -0.0858  0.0737 -0.0847
    6DOPE   O11  659   0.980   5.286   6.662 -0.3737 -0.2470 -0.0036
    6DOPE   O12  660   0.828   5.243   6.850 -0.2694 -0.8832  0.3179
    6DOPE    C1  661   0.902   5.327   6.545  0.1103 -0.6703 -0.4306
    6DOPE    HA  662   0.911   5.435   6.522  1.0695 -0.2049  1.8428
    6DOPE    HB  663   0.793   5.308   6.559 -0.2139 -0.1863 -2.0792
    6DOPE    C2  664   0.948   5.252   6.418 -0.7651  0.0560  0.3955
    6DOPE    HS  665   0.951   5.142   6.429 -0.4217  0.1008  0.7638
    6DOPE   O21  666   1.076   5.317   6.390  0.2352 -0.1405 -0.0112
    6DOPE   C21  667   1.175   5.234   6.340  0.3889  0.6828  0.0672
    6DOPE   O22  668   1.147   5.122   6.301 -0.4925 -0.0362  0.1386
    6DOPE   C22  669   1.310   5.304   6.340  0.5155  0.0005 -0.3156
    6DOPE   H2R  670   1.357   5.282   6.438 -0.3157  1.8676  0.5549
    6DOPE   H2S  671   1.296   5.414   6.340  1.4382  0.1410 -1.6414
    6DOPE    C3  672   0.847   5.290   6.303 -0.5338 -0.6256 -0.4098
    6DOPE    HX  673   0.824   5.399   6.310 -3.1737 -1.1297 -0.5260
    6DOPE    HY  674   0.749   5.241   6.313 -1.0044 -0.0258 -1.8353
    6DOPE   O31  675   0.903   5.271   6.172 -0.2508  0.6018  0.4859
    6DOPE   C31  676   0.917   5.137   6.128 -0.2889 -0.6871 -0.6542
    6DOPE   O32  677   0.873   5.042   6.189 -0.4013  0.6789  0.0003
    6DOPE   C32  678   0.977   5.130   5.987 -0.3064  0.8288 -0.7287
    6DOPE   H2X  679   1.087   5.126   5.995 -0.4340 -0.1539  0.8091
    6DOPE   H2Y  680   0.942   5.035   5.942 -0.4918 -1.5673  3.9897
    6DOPE   C23  681   1.400   5.256   6.222  0.3275  0.6854 -0.1847
    6DOPE   H3R  682   1.395   5.149   6.193 -1.6412  1.2243 -2.0839
    6DOPE   H3S  683   1.502   5.273   6.262  0.0654  1.4144  0.2012
    6DOPE   C24  684   1.395   5.357   6.106  0.3296 -1.0108 -0.5595
    6DOPE   H4R  685   1.486   5.336   6.045  0.4267 -0.8994 -0.4537
    6DOPE   H4S  686   1.402   5.456   6.156 -0.2169 -1.4755  0.4478
    6DOPE   C25  687   1.274   5.352   6.014  0.2803 -0.1794 -0.2427
    6DOPE   H5R  688   1.178   5.381   6.062  0.0991  0.7817 -1.1554
    6DOPE   H5S  689   1.254   5.252   5.970 -2.9233  0.0672  0.4173
    6DOPE   C26  690   1.286   5.467   5.907  0.5855 -0.6303 -0.3955
    6DOPE   H6R  691   1.295   5.563   5.962 -2.1589  0.2985 -1.4020
    6DOPE   H6S  692   1.188   5.460   5.855 -1.2136 -1.2394  2.8033
    6DOPE   C27  693   1.399   5.454   5.804 -0.6683  0.3628  0.2592
    6DOPE   H7R  694   1.376   5.354   5.760 -1.5017  0.3906  0.6224
    6DOPE   H7S  695   1.497   5.455   5.856 -0.5278  2.2142  0.0332
    6DOPE   C28  696   1.401   5.558   5.687  0.9905 -0.1366  0.4490
    6DOPE   H8R  697   1.442   5.650   5.732 -0.7499 -0.3780  2.7323
    6DOPE   H8S  698   1.297   5.589   5.664  0.8310 -1.1938 -0.3626
    6DOPE   C29  699   1.471   5.519   5.562  0.2775 -0.2596 -0.5419
    6DOPE   H9R  700   1.497   5.413   5.557  2.3266  0.2765 -2.3285
    6DOPE  C210  701   1.496   5.606   5.458 -0.1956 -0.0623  0.0966
    6DOPE  H10R  702   1.559   5.561   5.380  0.1296  1.4947 -0.5658
    6DOPE  C211  703   1.474   5.759   5.453  0.1441  0.0358  0.4272
    6DOPE  H11R  704   1.404   5.788   5.535  2.4666  0.4256  2.4130
    6DOPE  H11S  705   1.420   5.784   5.360 -1.7728 -0.3077  1.3997
    6DOPE  C212  706   1.607   5.843   5.452 -0.5342  0.0988  0.1703
    6DOPE  H12R  707   1.657   5.826   5.550  1.9260  1.4743 -0.7673
    6DOPE  H12S  708   1.592   5.952   5.443  1.3649  0.2519 -1.6363
    6DOPE  C213  709   1.717   5.805   5.352  0.0810  0.0281 -0.3590
    6DOPE  H13R  710   1.707   5.700   5.318  1.0752  0.6493 -2.7085
    6DOPE  H13S  711   1.808   5.810   5.416 -0.0558  1.7283 -0.2511
    6DOPE  C214  712   1.731   5.879   5.220  0.0859 -0.0379  0.5687
    6DOPE  H14R  713   1.649   5.871   5.144  1.9165 -0.6248 -1.4556
    6DOPE  H14S  714   1.818   5.838   5.164 -1.8741 -0.3667 -2.4934
    6DOPE  C215  715   1.772   6.026   5.231 -0.3500 -1.2503 -1.0116
    6DOPE  H15R  716   1.856   6.020   5.304  0.1135  2.3104 -1.0976
    6DOPE  H15S  717   1.685   6.077   5.277 -1.4086 -1.3820 -2.7816
    6DOPE  C216  718   1.838   6.095   5.119 -0.6496 -0.4621  0.3009
    6DOPE  H16R  719   1.928   6.042   5.081 -0.8039  0.5981 -1.6536
    6DOPE  H16S  720   1.875   6.195   5.150  1.9644 -1.3306  0.2012
    6DOPE  C217  721   1.745   6.131   5.005  0.8329 -0.0054 -0.1413
    6DOPE  H17R  722   1.667   6.186   5.062 -0.5160 -1.8186 -0.1510
    6DOPE  H17S  723   1.699   6.037   4.966 -0.0602  0.4493 -0.2143
    6DOPE  C218  724   1.807   6.219   4.893  0.3446 -0.1638 -0.7751
    6DOPE  H18R  725   1.867   6.150   4.830  2.5422  2.0945 -1.2681
    6DOPE  H18S  726   1.877   6.298   4.928  0.7230 -0.9508  0.3154
    6DOPE  H18T  727   1.725   6.265   4.834 -1.5917 -3.4845 -0.9513
    6DOPE   C33  728   0.929   5.249   5.898 -0.2077  0.0559 -0.1177
    6DOPE   H3X  729   0.981   5.341   5.934  0.3809 -0.0247 -0.7483
    6DOPE   H3Y  730   0.818   5.256   5.888 -0.3805 -1.6820  0.2523
    6DOPE   C34  731   0.989   5.233   5.751 -0.6581  0.1751  0.0250
    6DOPE   H4X  732   1.098   5.253   5.754 -0.2305 -1.6132  4.3264
    6DOPE   H4Y  733   0.973   5.128   5.717  0.9194 -0.0609 -0.0294
    6DOPE   C35  734   0.925   5.340   5.665  0.2016  0.3954  0.3895
    6DOPE   H5X  735   0.943   5.443   5.702 -0.1319  0.0845  1.4718
    6DOPE   H5Y  736   0.815   5.322   5.657  0.4733 -1.0122 -0.5571
    6DOPE   C36  737   0.976   5.327   5.520  0.4149 -0.6198 -0.4034
    6DOPE   H6X  738   0.930   5.238   5.473 -1.9345 -0.6550  1.7894
    6DOPE   H6Y  739   1.087   5.317   5.517  0.4143 -1.2853  1.2214
    6DOPE   C37  740   0.918   5.436   5.428 -0.0039 -1.1641  0.3172
    6DOPE   H7X  741   0.807   5.432   5.434 -0.0063 -0.1749  1.6992
    6DOPE   H7Y  742   0.941   5.535   5.474  2.6384 -0.5717 -2.0510
    6DOPE   C38  743   0.970   5.428   5.284  0.0077  0.1784  0.4716
    6DOPE   H8X  744   0.921   5.495   5.211  2.5215 -0.3955 -1.9217
    6DOPE   H8Y  745   0.955   5.326   5.242 -0.0720  1.1940 -2.1592
    6DOPE   C39  746   1.119   5.468   5.284 -0.3078 -0.3337 -0.2987
    6DOPE   H9X  747   1.167   5.489   5.381 -0.7276  3.5074 -0.7638
    6DOPE  C310  748   1.215   5.466   5.189  0.0643 -0.4496  0.3597
    6DOPE  H10X  749   1.317   5.499   5.214  0.2707  0.0075 -0.9890
    6DOPE  C311  750   1.203   5.438   5.044  0.1728 -0.3839  0.6651
    6DOPE  H11X  751   1.240   5.337   5.016 -0.4874 -0.1318 -1.2548
    6DOPE  H11Y  752   1.095   5.448   5.017  0.4864  1.0980 -0.0972
    6DOPE  C312  753   1.282   5.539   4.951 -0.2188  0.5124 -0.2052
    6DOPE  H12X  754   1.275   5.522   4.842 -0.6836  0.2898 -0.1422
    6DOPE  H12Y  755   1.389   5.525   4.976 -0.2979 -0.2192 -0.2728
    6DOPE  C313  756   1.245   5.686   4.974  0.1101  0.3313 -0.3418
    6DOPE  H13X  757   1.136   5.699   4.961  0.0198  0.5266  0.5732
    6DOPE  H13Y  758   1.284   5.723   5.071  3.1017 -0.3659 -1.1677
    6DOPE  C314  759   1.299   5.778   4.863 -0.9027 -0.0683  0.2114
    6DOPE  H14X  760   1.254   5.751   4.765 -0.2685  0.8129 -0.3326
    6DOPE  H14Y  761   1.404   5.763   4.831  0.0095  1.4115  2.3064
    6DOPE  C315  762   1.284   5.929   4.900 -0.0059  0.4867 -0.6798
    6DOPE  H15X  763   1.326   5.942   5.002  0.4686 -0.1666 -0.7819
    6DOPE  H15Y  764   1.181   5.968   4.906  0.2206  1.1342 -0.9628
    6DOPE  C316  765   1.363   6.021   4.806  0.1697 -0.4671 -0.7517
    6DOPE  H16X  766   1.312   6.007   4.708 -3.2049  0.6122  0.6965
    6DOPE  H16Y  767   1.469   5.989   4.796  0.2397  0.3348 -3.2582
    6DOPE  C317  768   1.356   6.172   4.832  0.6593 -0.4608  0.2130
    6DOPE  H17X  769   1.250   6.202   4.838  1.1633  1.0899  2.5933
    6DOPE  H17Y  770   1.390   6.185   4.937  0.5932 -2.5429  0.5285
    6DOPE  C318  771   1.417   6.257   4.724 -0.1081  0.2949  0.2571
    6DOPE  H18X  772   1.418   6.365   4.751  2.7719  1.1808 -2.8258
    6DOPE  H18Y  773   1.520   6.218   4.711  0.1861  0.7419  1.1707
    6DOPE  H18Z  774   1.362   6.260   4.628  0.4592  0.9903 -0.0521
    7DOPE     N  775   4.156   7.177   7.520 -0.2823  0.0839 -0.0521
    7DOPE   HN1  776   4.088   7.099   7.531  0.1704 -0.3162 -0.0413
    7DOPE   HN2  777   4.139   7.218   7.427 -2.4514 -0.4027  0.0912
    7DOPE   HN3  778   4.247   7.129   7.504 -1.0570 -1.3077 -0.4240
    7DOPE   C12  779   4.156   7.274   7.638 -0.3733  0.3401 -0.9651
    7DOPE  H12A  780   4.217   7.361   7.605  2.7999 -0.8254  1.3811
    7DOPE  H12B  781   4.205   7.221   7.723 -0.1907  1.6018 -0.2709
    7DOPE   C11  782   4.019   7.325   7.677 -0.4848 -0.1238 -0.1201
    7DOPE  H11A  783   4.027   7.415   7.741  0.5458 -0.1317 -0.2288
    7DOPE  H11B  784   3.976   7.248   7.745  1.1256 -0.1741  0.8871
    7DOPE     P  785   3.796   7.298   7.537 -0.0472  0.2633 -0.0307
    7DOPE   O13  786   3.701   7.407   7.529  0.9118 -0.2107  0.3409
    7DOPE   O14  787   3.772   7.197   7.643  0.3216  0.2050 -0.3705
    7DOPE   O11  788   3.800   7.235   7.390  0.2619  0.0826 -0.4744
    7DOPE   O12  789   3.939   7.360   7.561  0.3246  0.1136 -0.0525
    7DOPE    C1  790   3.871   7.304   7.283  0.0618  0.2707  0.0913
    7DOPE    HA  791   3.970   7.339   7.321 -0.7932  0.5094  2.2790
    7DOPE    HB  792   3.830   7.405   7.261  0.2427 -0.1092 -2.2188
    7DOPE    C2  793   3.895   7.211   7.162 -0.0717 -0.0175  0.2667
    7DOPE    HS  794   3.796   7.176   7.126  0.0971 -0.1259 -0.0972
    7DOPE   O21  795   3.979   7.100   7.210 -0.2268 -0.8565  0.1335
    7DOPE   C21  796   3.974   6.998   7.121 -0.5190  0.1450  0.2088
    7DOPE   O22  797   3.915   7.007   7.014 -0.0236  0.2961  0.3336
    7DOPE   C22  798   4.040   6.872   7.182  0.7468 -0.0182 -0.3428
    7DOPE   H2R  799   4.001   6.848   7.284  3.5985 -1.6371  0.4750
    7DOPE   H2S  800   4.147   6.897   7.195  0.9430 -1.3936  1.0543
    7DOPE    C3  801   3.962   7.296   7.050  0.1397  0.7060 -0.3152
    7DOPE    HX  802   4.000   7.232   6.967  1.8332  0.1610  0.8395
    7DOPE    HY  803   4.051   7.344   7.095  1.3014  0.1090 -1.8616
    7DOPE   O31  804   3.879   7.406   7.001 -0.1164  0.1972 -0.3212
    7DOPE   C31  805   3.780   7.373   6.924 -0.3374  0.9481  0.2744
    7DOPE   O32  806   3.739   7.261   6.901 -0.3436 -0.2746 -0.5369
    7DOPE   C32  807   3.741   7.504   6.856 -0.6576 -0.1112  0.3368
    7DOPE   H2X  808   3.755   7.590   6.925 -1.5417  0.4743 -0.1870
    7DOPE   H2Y  809   3.826   7.529   6.789 -0.6429  1.2294  0.8293
    7DOPE   C23  810   4.046   6.745   7.102 -0.2306 -0.2614  0.3419
    7DOPE   H3R  811   4.111   6.748   7.013 -0.2577 -1.5247  0.2726
    7DOPE   H3S  812   3.951   6.713   7.055 -0.9228 -0.0390  1.5290
    7DOPE   C24  813   4.108   6.631   7.186 -0.5958 -0.5583 -0.0921
    7DOPE   H4R  814   4.054   6.633   7.283 -4.0178  0.7886 -1.8412
    7DOPE   H4S  815   4.212   6.663   7.206 -0.2607  0.4770 -3.0185
    7DOPE   C25  816   4.117   6.497   7.121 -0.2050  0.5089  0.2257
    7DOPE   H5R  817   4.017   6.448   7.111  0.4300 -0.4277 -1.9269
    7DOPE   H5S  818   4.162   6.433   7.200 -1.4480 -1.9486 -0.9152
    7DOPE   C26  819   4.186   6.499   6.989  0.5513 -0.7405  0.3117
    7DOPE   H6R  820   4.281   6.551   7.014 -0.5095  1.3046  0.3014
    7DOPE   H6S  821   4.134   6.561   6.913 -1.0148  0.2822  2.1217
    7DOPE   C27  822   4.221   6.351   6.946 -0.4720 -0.2778  0.8971
    7DOPE   H7R  823   4.121   6.306   6.930 -0.1840  0.1045 -2.7782
    7DOPE   H7S  824   4.276   6.323   7.038 -0.0258  1.1655  1.1019
    7DOPE   C28  825   4.316   6.337   6.818  0.3744  0.7920  0.3967
    7DOPE   H8R  826   4.354   6.233   6.814  1.1408  1.1060 -2.6759
    7DOPE   H8S  827   4.408   6.397   6.837  0.8558  0.4377 -0.7540
    7DOPE   C29  828   4.260   6.376   6.682 -0.0535 -0.1751 -0.1162
    7DOPE   H9R  829   4.168   6.436   6.689  0.3168  0.2233  1.6821
    7DOPE  C210  830   4.275   6.308   6.567  0.5162 -0.5062  0.2882
    7DOPE  H10R  831   4.227   6.344   6.475 -0.4688  0.1915  1.0395
    7DOPE  C211  832   4.360   6.186   6.547  0.1779 -0.1554 -0.0955
    7DOPE  H11R  833   4.311   6.114   6.478  0.6971 -0.8036  0.1929
    7DOPE  H11S  834   4.372   6.139   6.647 -1.3531 -0.5401 -0.0742
    7DOPE  C212  835   4.497   6.207   6.492 -0.9111  0.0361  0.0448
    7DOPE  H12R  836   4.559   6.270   6.558 -3.1337  1.7973  0.5847
    7DOPE  H12S  837   4.504   6.272   6.401  1.3826  0.3265  0.3695
    7DOPE  C213  838   4.561   6.073   6.465 -0.4708  0.0157  0.5961
    7DOPE  H13R  839   4.492   6.018   6.397 -0.9540  0.2976  0.8465
    7DOPE  H13S  840   4.581   6.018   6.559  0.0511 -1.3085 -0.2654
    7DOPE  C214  841   4.702   6.089   6.402  0.3269  0.1188 -0.1515
    7DOPE  H14R  842   4.762   6.166   6.454 -1.5225  0.3462  1.7842
    7DOPE  H14S  843   4.692   6.133   6.300  0.8694  3.7563  1.2350
    7DOPE  C215  844   4.779   5.962   6.391 -0.2599  0.1337  0.4562
    7DOPE  H15R  845   4.735   5.911   6.303  0.7401 -1.0168  0.5893
    7DOPE  H15S  846   4.765   5.901   6.483 -1.0924  2.0890  1.6816
    7DOPE  C216  847   4.926   5.989   6.363 -0.0338  0.0233  0.2492
    7DOPE  H16R  848   4.978   6.038   6.448  1.0505  1.3057 -1.0982
    7DOPE  H16S  849   4.936   6.056   6.276 -0.3310 -1.9457 -1.3735
    7DOPE  C217  850   5.000   5.859   6.342  0.4662  0.3113  0.1774
    7DOPE  H17R  851   4.935   5.798   6.275  0.2238  2.1552 -1.3517
    7DOPE  H17S  852   5.006   5.812   6.442  0.2684 -0.2926 -0.0829
    7DOPE  C218  853   5.142   5.871   6.285  0.1932 -0.3468 -0.0584
    7DOPE  H18R  854   5.163   5.927   6.191  5.0282 -0.4455  0.7111
    7DOPE  H18S  855   5.192   5.773   6.268  1.3238  0.3614 -1.0274
    7DOPE  H18T  856   5.213   5.913   6.360 -0.6752 -0.4621  0.8430
    7DOPE   C33  857   3.600   7.504   6.791  0.0687  0.8570  0.3504
    7DOPE   H3X  858   3.571   7.611   6.792  1.2171  1.1712  0.7486
    7DOPE   H3Y  859   3.535   7.454   6.866  1.2614 -2.0274 -0.3910
    7DOPE   C34  860   3.583   7.452   6.647 -0.0223 -0.2693 -0.7113
    7DOPE   H4X  861   3.663   7.496   6.584  2.9027 -1.8069  1.6610
    7DOPE   H4Y  862   3.608   7.344   6.639  4.5155  0.4113  1.1563
    7DOPE   C35  863   3.442   7.480   6.603 -0.0563 -0.2134  0.3679
    7DOPE   H5X  864   3.423   7.586   6.631  1.1987  0.6671 -1.7977
    7DOPE   H5Y  865   3.372   7.410   6.654 -1.0160 -2.3539 -3.4823
    7DOPE   C36  866   3.421   7.463   6.454 -0.2924  0.4824 -0.2960
    7DOPE   H6X  867   3.490   7.537   6.408  0.2062  0.4169  0.3260
    7DOPE   H6Y  868   3.318   7.486   6.421 -0.8105 -0.5925  0.5266
    7DOPE   C37  869   3.455   7.321   6.389 -0.1224 -0.5340 -0.1237
    7DOPE   H7X  870   3.556   7.298   6.430 -0.5278  0.7491  1.7304
    7DOPE   H7Y  871   3.395   7.244   6.441  2.3911 -1.3705  1.7637
    7DOPE   C38  872   3.446   7.327   6.231 -0.0127 -0.5902 -0.0000
    7DOPE   H8X  873   3.526   7.391   6.187  0.5526 -0.8351  0.6605
    7DOPE   H8Y  874   3.356   7.382   6.194  0.3731 -0.9128 -1.5117
    7DOPE   C39  875   3.463   7.188   6.175 -0.5418 -0.6819  0.3407
    7DOPE   H9X  876   3.531   7.120   6.227 -0.9817 -2.0465 -0.8204
    7DOPE  C310  877   3.393   7.143   6.071  0.3638  0.3494 -0.3059
    7DOPE  H10X  878   3.401   7.038   6.042 -1.1702 -0.6199  2.3943
    7DOPE  C311  879   3.286   7.222   5.990  0.7543 -0.6018  0.4884
    7DOPE  H11X  880   3.184   7.180   6.007 -1.6800  4.5881  0.6801
    7DOPE  H11Y  881   3.280   7.328   6.022  0.3776  0.0864 -1.6834
    7DOPE  C312  882   3.309   7.233   5.838 -0.1395  0.2049  0.3071
    7DOPE  H12X  883   3.411   7.273   5.819 -0.3869  1.3461  1.2611
    7DOPE  H12Y  884   3.229   7.299   5.798  0.8443  1.6976  0.7016
    7DOPE  C313  885   3.289   7.104   5.758  0.4023 -0.2997 -0.3500
    7DOPE  H13X  886   3.357   7.029   5.803  0.2341  0.3586  1.0315
    7DOPE  H13Y  887   3.184   7.072   5.778  0.2455 -0.2375 -1.0193
    7DOPE  C314  888   3.304   7.109   5.605  0.5201  0.2079  0.6190
    7DOPE  H14X  889   3.412   7.126   5.582  0.0165  2.1189 -0.5820
    7DOPE  H14Y  890   3.260   7.191   5.543 -0.4725 -1.0614 -0.4176
    7DOPE  C315  891   3.257   6.976   5.533  0.2719  0.4059 -0.5314
    7DOPE  H15X  892   3.146   6.973   5.536  0.3001 -1.4604 -0.0445
    7DOPE  H15Y  893   3.292   6.904   5.610  1.7179  1.7403  0.1157
    7DOPE  C316  894   3.317   6.941   5.405 -0.2419  0.5102  0.6847
    7DOPE  H16X  895   3.426   6.960   5.413 -0.1691 -0.2435  1.8345
    7DOPE  H16Y  896   3.282   7.004   5.321  0.9721 -2.1094 -1.9516
    7DOPE  C317  897   3.296   6.790   5.366 -0.5244 -0.1201  0.0048
    7DOPE  H17X  898   3.345   6.725   5.442  0.1665 -1.7043 -1.7320
    7DOPE  H17Y  899   3.190   6.766   5.343 -0.1295 -0.0036 -2.1038
    7DOPE  C318  900   3.375   6.749   5.238 -0.4031 -0.2007  0.5103
    7DOPE  H18X  901   3.478   6.789   5.234 -0.5851  0.1797 -1.9186
    7DOPE  H18Y  902   3.379   6.642   5.211  0.3055  0.2957 -1.5787
    7DOPE  H18Z  903   3.326   6.806   5.156  0.3487 -0.1017  0.1219
    8DOPE     N  904   6.532   5.864   8.034 -0.1255 -0.5073 -0.5532
    8DOPE   HN1  905   6.441   5.897   8.073  0.5382 -1.0178  1.5521
    8DOPE   HN2  906   6.573   5.789   8.094  0.7925  1.4014  1.3557
    8DOPE   HN3  907   6.596   5.946   8.037  0.4370 -0.9617  0.1357
    8DOPE   C12  908   6.524   5.807   7.894 -0.9432 -0.0065 -0.3026
    8DOPE  H12A  909   6.504   5.891   7.824  0.5278  0.4142 -0.2470
    8DOPE  H12B  910   6.433   5.743   7.885 -0.7183 -0.1967 -1.3206
    8DOPE   C11  911   6.651   5.732   7.862 -0.7998 -0.3167 -0.2175
    8DOPE  H11A  912   6.729   5.806   7.889  1.1789 -2.6160  0.6866
    8DOPE  H11B  913   6.664   5.704   7.755  0.8367 -0.2287 -0.0639
    8DOPE     P  914   6.811   5.543   7.930  0.4845 -0.5208  0.3228
    8DOPE   O13  915   6.821   5.440   8.041  0.0154  0.0747  0.4630
    8DOPE   O14  916   6.921   5.638   7.914 -0.2570  0.8575 -0.1031
    8DOPE   O11  917   6.790   5.477   7.789  0.0893  0.2699  0.6761
    8DOPE   O12  918   6.669   5.613   7.943  0.4557 -0.2404  0.3227
    8DOPE    C1  919   6.720   5.354   7.764  0.5198  0.1121  0.1936
    8DOPE    HA  920   6.634   5.341   7.833 -0.7540  0.1346 -1.3321
    8DOPE    HB  921   6.783   5.263   7.774 -0.5268 -0.7467 -0.7640
    8DOPE    C2  922   6.656   5.338   7.627 -0.3358  0.2207 -0.2348
    8DOPE    HS  923   6.744   5.324   7.561  0.0509 -2.1417  0.6814
    8DOPE   O21  924   6.592   5.462   7.590 -0.7143 -0.0443 -0.1342
    8DOPE   C21  925   6.639   5.526   7.478  0.8215  0.3547 -0.2307
    8DOPE   O22  926   6.745   5.511   7.427 -0.0539 -0.3287 -0.4441
    8DOPE   C22  927   6.551   5.645   7.453  0.1273 -0.7311 -0.2650
    8DOPE   H2R  928   6.537   5.698   7.549  1.5764 -0.9181  0.0780
    8DOPE   H2S  929   6.449   5.613   7.422 -0.0388  0.6682 -1.2606
    8DOPE    C3  930   6.569   5.214   7.618 -0.2074  0.1403 -0.0004
    8DOPE    HX  931   6.480   5.224   7.685  1.6105 -0.8046  2.7407
    8DOPE    HY  932   6.631   5.127   7.649  0.2965  0.5926  0.2710
    8DOPE   O31  933   6.536   5.180   7.483 -0.0961 -0.2303 -0.4613
    8DOPE   C31  934   6.424   5.224   7.429 -0.5606  0.2272 -0.4307
    8DOPE   O32  935   6.342   5.291   7.485  0.1277  0.4269 -0.5995
    8DOPE   C32  936   6.430   5.197   7.282 -0.5833 -0.3747 -0.0049
    8DOPE   H2X  937   6.537   5.217   7.260  0.3907 -1.0679  3.4868
    8DOPE   H2Y  938   6.422   5.087   7.271  2.6991 -0.7058 -0.1256
    8DOPE   C23  939   6.611   5.740   7.347 -0.6143 -0.0526 -0.1357
    8DOPE   H3R  940   6.618   5.686   7.251  3.9568 -1.8557  0.9451
    8DOPE   H3S  941   6.718   5.746   7.377 -0.0193 -1.8023 -1.7329
    8DOPE   C24  942   6.558   5.881   7.337 -0.0987 -0.5137 -0.2330
    8DOPE   H4R  943   6.587   5.937   7.429  0.5921 -0.2982 -0.5808
    8DOPE   H4S  944   6.447   5.877   7.337 -0.0929 -0.7311 -0.1401
    8DOPE   C25  945   6.618   5.957   7.217 -0.2158 -0.1012 -0.5384
    8DOPE   H5R  946   6.728   5.966   7.226 -0.1120 -1.5922  0.0434
    8DOPE   H5S  947   6.573   6.058   7.221  1.0234  0.4565 -0.1973
    8DOPE   C26  948   6.593   5.901   7.082 -0.0245 -0.1365  0.6544
    8DOPE   H6R  949   6.487   5.902   7.047  0.2145 -0.2619 -0.0826
    8DOPE   H6S  950   6.605   5.790   7.079  0.4186 -0.0737 -1.0910
    8DOPE   C27  951   6.673   5.970   6.980 -0.5704 -0.5195  0.2094
    8DOPE   H7R  952   6.770   6.004   7.021 -1.1142  1.9566 -0.3426
    8DOPE   H7S  953   6.618   6.059   6.941  0.1257 -0.7542 -1.3606
    8DOPE   C28  954   6.722   5.879   6.861 -0.1666  0.2707 -0.8627
    8DOPE   H8R  955   6.783   5.941   6.793 -1.8569 -0.8944 -3.5868
    8DOPE   H8S  956   6.622   5.856   6.820 -1.7090 -0.1707  2.7639
    8DOPE   C29  957   6.798   5.754   6.900 -0.8770  0.5792 -0.0445
    8DOPE   H9R  958   6.745   5.661   6.926 -1.5795  0.3102 -2.1894
    8DOPE  C210  959   6.938   5.753   6.921 -0.1500  0.3662  0.1844
    8DOPE  H10R  960   6.997   5.669   6.964 -0.9164 -0.3979 -0.2262
    8DOPE  C211  961   7.020   5.877   6.896 -0.3135 -0.5948  0.3272
    8DOPE  H11R  962   7.088   5.907   6.979 -0.3366  2.2635 -0.5852
    8DOPE  H11S  963   6.965   5.972   6.883  2.1324  1.1205  1.6086
    8DOPE  C212  964   7.105   5.851   6.772  0.2023 -0.5591 -0.0559
    8DOPE  H12R  965   7.041   5.827   6.685 -0.9420 -1.1205  0.9288
    8DOPE  H12S  966   7.181   5.771   6.787  1.7550  0.6307 -1.1383
    8DOPE  C213  967   7.199   5.968   6.725 -0.2062 -0.2284 -0.5551
    8DOPE  H13R  968   7.285   5.982   6.794  0.7726 -1.5168 -1.4617
    8DOPE  H13S  969   7.139   6.062   6.725  1.1009  0.6456 -1.2102
    8DOPE  C214  970   7.256   5.931   6.588 -0.6822 -0.1987  0.0387
    8DOPE  H14R  971   7.285   6.028   6.543  0.8552 -0.2434  0.8795
    8DOPE  H14S  972   7.175   5.894   6.521 -0.0701  0.9754 -1.4004
    8DOPE  C215  973   7.361   5.825   6.595 -0.0914 -0.2586  0.2401
    8DOPE  H15R  974   7.314   5.733   6.637  0.7675 -0.8188  0.0165
    8DOPE  H15S  975   7.445   5.845   6.666  0.3732 -1.1256 -0.0528
    8DOPE  C216  976   7.407   5.764   6.462 -0.2505 -0.0728  0.1831
    8DOPE  H16R  977   7.321   5.724   6.405  0.6750 -0.7469 -0.7795
    8DOPE  H16S  978   7.476   5.676   6.468 -2.4020 -1.7933  1.6103
    8DOPE  C217  979   7.471   5.865   6.362  0.3042  0.4176  0.5990
    8DOPE  H17R  980   7.393   5.927   6.313 -0.1632 -0.4952  0.1672
    8DOPE  H17S  981   7.529   5.820   6.279  1.0236  2.7207 -0.2384
    8DOPE  C218  982   7.584   5.942   6.422  0.5096  0.9587 -0.0772
    8DOPE  H18R  983   7.643   5.886   6.497  2.0747  0.9509 -1.2561
    8DOPE  H18S  984   7.541   6.034   6.466  3.0533  3.2976 -2.0681
    8DOPE  H18T  985   7.659   5.974   6.346  0.1326  1.6517 -0.1626
    8DOPE   C33  986   6.337   5.278   7.181 -0.4347 -0.7326  0.5909
    8DOPE   H3X  987   6.232   5.243   7.187 -0.8907 -0.3047 -2.7405
    8DOPE   H3Y  988   6.367   5.263   7.075  1.6309 -0.1273  1.0398
    8DOPE   C34  989   6.332   5.431   7.202 -0.1722 -0.6750 -0.1487
    8DOPE   H4X  990   6.267   5.455   7.289  0.6474 -1.8388  0.8133
    8DOPE   H4Y  991   6.435   5.469   7.217 -0.5920  0.7730 -0.6959
    8DOPE   C35  992   6.278   5.491   7.073  0.3393 -0.0772 -0.0140
    8DOPE   H5X  993   6.178   5.453   7.045  0.6189 -0.0226 -1.1310
    8DOPE   H5Y  994   6.340   5.477   6.982 -0.4164 -1.0041 -0.4042
    8DOPE   C36  995   6.275   5.642   7.096  0.1566  0.1362 -0.1779
    8DOPE   H6X  996   6.380   5.675   7.112 -0.0798 -0.0110  2.0919
    8DOPE   H6Y  997   6.222   5.667   7.191  0.9096  2.2066 -0.2555
    8DOPE   C37  998   6.207   5.719   6.982 -0.5284  0.6226 -0.5326
    8DOPE   H7X  999   6.110   5.668   6.962 -0.3789 -0.2097  0.7775
    8DOPE   H7Y 1000   6.193   5.823   7.020  2.5309  1.0895 -0.4788
    8DOPE   C38 1001   6.291   5.717   6.850  0.3152 -0.3509  0.0967
    8DOPE   H8X 1002   6.314   5.612   6.822  2.6369 -0.0562  0.7003
    8DOPE   H8Y 1003   6.385   5.773   6.867 -0.5763  1.1060  0.3926
    8DOPE   C39 1004   6.209   5.794   6.746  0.3216  0.2393 -0.0897
    8DOPE   H9X 1005   6.099   5.792   6.749  0.3093  1.5685  1.2634
    8DOPE  C310 1006   6.266   5.881   6.660 -0.4772 -0.3823  0.1649
    8DOPE  H10X 1007   6.210   5.937   6.584  1.3824 -1.6386 -2.2718
    8DOPE  C311 1008   6.413   5.914   6.651 -0.2638 -0.3071 -0.4601
    8DOPE  H11X 1009   6.449   5.995   6.718  1.1351 -1.8222  0.7089
    8DOPE  H11Y 1010   6.485   5.830   6.669  2.3752  1.2360 -2.9036
    8DOPE  C312 1011   6.446   5.955   6.509  0.1011  0.5826 -0.3980
    8DOPE  H12X 1012   6.548   6.000   6.508  1.0442 -1.2654  1.7572
    8DOPE  H12Y 1013   6.385   6.041   6.476  0.9535  0.8827 -1.2685
    8DOPE  C313 1014   6.431   5.844   6.406 -0.0914  0.2417  0.2307
    8DOPE  H13X 1015   6.484   5.755   6.445 -0.5839 -0.4504 -0.6512
    8DOPE  H13Y 1016   6.322   5.823   6.403  0.1841 -1.3669  0.7963
    8DOPE  C314 1017   6.473   5.879   6.272  0.5280 -0.7176 -0.4211
    8DOPE  H14X 1018   6.583   5.865   6.259  0.6971 -1.9417  1.6649
    8DOPE  H14Y 1019   6.429   5.976   6.243 -1.6975 -1.1614  1.1610
    8DOPE  C315 1020   6.407   5.794   6.166 -0.1303  0.9133 -0.1789
    8DOPE  H15X 1021   6.431   5.686   6.173  1.4298  1.2301 -0.3411
    8DOPE  H15Y 1022   6.456   5.826   6.071 -0.8503 -0.3741 -1.0152
    8DOPE  C316 1023   6.249   5.810   6.148 -0.4546  0.4329  0.6535
    8DOPE  H16X 1024   6.233   5.919   6.134  2.4920  0.5786 -3.2332
    8DOPE  H16Y 1025   6.200   5.781   6.244 -0.0409  0.8647  0.9976
    8DOPE  C317 1026   6.184   5.732   6.034  0.2200  0.7902 -0.5449
    8DOPE  H17X 1027   6.077   5.761   6.034 -0.3408 -1.0575 -1.4070
    8DOPE  H17Y 1028   6.226   5.765   5.937  2.2548 -0.0337 -0.0086
    8DOPE  C318 1029   6.196   5.576   6.044 -0.6388  0.3524  0.3280
    8DOPE  H18X 1030   6.183   5.540   6.148 -0.9450 -1.5353 -0.3160
    8DOPE  H18Y 1031   6.292   5.533   6.007 -0.5917 -0.0041  0.8599
    8DOPE  H18Z 1032   6.109   5.520   6.004 -0.2959 -0.7844  1.1035
    9DOPE     N 1033   0.092   5.253   7.242  0.2094  0.5863  0.4355
    9DOPE   HN1 1034  -0.009   5.254   7.217 -0.1519 -0.7681  1.7434
    9DOPE   HN2 1035   0.094   5.218   7.339  1.3133 -1.5546 -0.3100
    9DOPE   HN3 1036   0.133   5.349   7.238  1.4262  0.0625 -2.5677
    9DOPE   C12 1037   0.167   5.168   7.143  0.3997 -0.3768  0.2981
    9DOPE  H12A 1038   0.212   5.236   7.069 -1.0780 -0.1396 -0.4063
    9DOPE  H12B 1039   0.107   5.092   7.089 -0.3908 -0.9786  1.9360
    9DOPE   C11 1040   0.282   5.092   7.204 -0.4063 -0.5471  0.0037
    9DOPE  H11A 1041   0.366   5.164   7.214  0.3750 -1.5157  0.7132
    9DOPE  H11B 1042   0.320   5.018   7.130 -0.6144  0.1978 -0.8651
    9DOPE     P 1043   0.373   4.980   7.422 -0.1083  0.3082  0.0036
    9DOPE   O13 1044   0.328   4.905   7.539 -0.0211  0.3270 -0.0169
    9DOPE   O14 1045   0.469   5.088   7.442  0.1441 -0.2748 -0.3344
    9DOPE   O11 1046   0.458   4.878   7.340 -1.0523 -0.1754 -0.0757
    9DOPE   O12 1047   0.249   5.023   7.324  0.4967  0.2907 -0.0004
    9DOPE    C1 1048   0.421   4.741   7.314  0.3726 -0.2605  0.7559
    9DOPE    HA 1049   0.342   4.701   7.381 -0.8738  0.0821 -0.4647
    9DOPE    HB 1050   0.520   4.696   7.336  0.4286 -0.4374  0.1329
    9DOPE    C2 1051   0.396   4.714   7.166  0.4621  0.1138  0.4508
    9DOPE    HS 1052   0.458   4.786   7.109  0.6091 -1.0656 -0.9258
    9DOPE   O21 1053   0.255   4.740   7.154 -0.3714 -0.3120  0.3908
    9DOPE   C21 1054   0.218   4.767   7.022 -0.2326  0.4065 -0.7596
    9DOPE   O22 1055   0.297   4.772   6.926  0.3700 -0.4040 -0.3615
    9DOPE   C22 1056   0.067   4.797   7.025 -0.0755  0.3077 -0.3328
    9DOPE   H2R 1057   0.050   4.886   7.089 -0.1836  0.8800 -1.1402
    9DOPE   H2S 1058   0.017   4.712   7.076 -0.2613 -0.2138 -1.3491
    9DOPE    C3 1059   0.429   4.565   7.131 -0.1084 -0.8814 -0.3235
    9DOPE    HX 1060   0.379   4.512   7.215  2.5347 -0.6389  1.5449
    9DOPE    HY 1061   0.536   4.560   7.161 -0.4559  0.0117  1.1914
    9DOPE   O31 1062   0.400   4.520   7.000  0.1690  0.1116  0.5819
    9DOPE   C31 1063   0.497   4.526   6.905  0.2820  0.3249 -0.0182
    9DOPE   O32 1064   0.615   4.557   6.927 -0.0628  0.1733  0.3379
    9DOPE   C32 1065   0.441   4.507   6.763 -0.3477  0.1620 -1.0535
    9DOPE   H2X 1066   0.370   4.422   6.773 -0.9176  0.8457  1.1636
    9DOPE   H2Y 1067   0.384   4.599   6.739 -1.2478 -0.2903 -0.7070
    9DOPE   C23 1068   0.005   4.850   6.895  0.2037 -0.0923  0.8309
    9DOPE   H3R 1069   0.052   4.947   6.870 -0.6504  0.0872 -0.1659
    9DOPE   H3S 1070  -0.105   4.858   6.907  0.1354 -0.1493  0.2634
    9DOPE   C24 1071   0.023   4.753   6.782 -0.3495  0.4208  0.3023
    9DOPE   H4R 1072   0.025   4.647   6.816 -0.0050  0.0682 -0.7750
    9DOPE   H4S 1073   0.122   4.772   6.737  0.7737 -0.8339  2.1150
    9DOPE   C25 1074  -0.083   4.772   6.676 -0.3662  0.3914  0.2323
    9DOPE   H5R 1075  -0.107   4.880   6.674  0.6493  0.6176 -0.6333
    9DOPE   H5S 1076  -0.167   4.702   6.697  0.1043 -0.9543 -2.0083
    9DOPE   C26 1077  -0.034   4.742   6.533  0.9235  0.5351  0.0800
    9DOPE   H6R 1078   0.070   4.778   6.516  1.1994 -0.8906 -1.5942
    9DOPE   H6S 1079  -0.099   4.788   6.455  0.5401  1.7417  1.0779
    9DOPE   C27 1080  -0.026   4.586   6.506 -0.2926  0.5741 -0.1742
    9DOPE   H7R 1081  -0.134   4.561   6.502 -0.5573  1.5735  0.2718
    9DOPE   H7S 1082   0.038   4.534   6.580  0.1226 -0.8622 -1.4902
    9DOPE   C28 1083   0.029   4.561   6.359  0.3283  0.2940 -0.3889
    9DOPE   H8R 1084   0.139   4.569   6.344  0.4404  1.6373  0.9109
    9DOPE   H8S 1085  -0.031   4.631   6.296 -0.5033 -0.7809 -0.8182
    9DOPE   C29 1086   0.004   4.423   6.312 -0.2875 -0.5973  0.0728
    9DOPE   H9R 1087   0.034   4.334   6.370 -2.5618 -0.7251  1.1845
    9DOPE  C210 1088  -0.089   4.397   6.217  0.8326 -0.7372 -0.2779
    9DOPE  H10R 1089  -0.110   4.293   6.188 -0.6719 -1.3213  2.5649
    9DOPE  C211 1090  -0.175   4.495   6.139  0.0741  0.0030 -0.3523
    9DOPE  H11R 1091  -0.183   4.459   6.035  1.0073 -0.7408 -0.1802
    9DOPE  H11S 1092  -0.148   4.603   6.141 -0.9636  0.2651 -0.0904
    9DOPE  C212 1093  -0.318   4.494   6.190 -0.0834  0.5170 -0.7372
    9DOPE  H12R 1094  -0.321   4.530   6.295  1.3757 -0.7514 -0.2126
    9DOPE  H12S 1095  -0.358   4.390   6.193 -2.1252  1.2060 -1.9970
    9DOPE  C213 1096  -0.416   4.572   6.101 -0.0436  0.0096  0.1209
    9DOPE  H13R 1097  -0.403   4.551   5.993 -0.4039 -0.8694  0.2412
    9DOPE  H13S 1098  -0.405   4.682   6.117 -1.4443  0.4908 -1.8914
    9DOPE  C214 1099  -0.567   4.537   6.121  0.1043 -0.6678 -0.1617
    9DOPE  H14R 1100  -0.586   4.427   6.122 -0.4469 -0.5875 -0.9509
    9DOPE  H14S 1101  -0.619   4.576   6.031 -1.2486 -0.8242  0.5169
    9DOPE  C215 1102  -0.626   4.585   6.252 -0.2039  0.8718 -0.3049
    9DOPE  H15R 1103  -0.581   4.681   6.286  2.3160 -1.3822  3.4173
    9DOPE  H15S 1104  -0.586   4.510   6.323 -1.8920  0.1311 -0.0970
    9DOPE  C216 1105  -0.777   4.580   6.255 -0.2535 -0.5344 -0.4550
    9DOPE  H16R 1106  -0.808   4.478   6.222  0.5805 -1.6250  1.9046
    9DOPE  H16S 1107  -0.817   4.649   6.178  2.1973  0.7079 -0.7248
    9DOPE  C217 1108  -0.836   4.616   6.393  0.4567  0.4707 -0.0352
    9DOPE  H17R 1109  -0.946   4.611   6.383  0.5187 -1.2191 -0.0884
    9DOPE  H17S 1110  -0.805   4.722   6.410  1.2325  0.4420 -1.1428
    9DOPE  C218 1111  -0.800   4.519   6.504 -0.2956 -0.3531  0.0777
    9DOPE  H18R 1112  -0.868   4.539   6.590 -0.6938 -0.8718 -0.1109
    9DOPE  H18S 1113  -0.692   4.527   6.529  0.1295 -2.5522 -0.8199
    9DOPE  H18T 1114  -0.816   4.416   6.465  3.4794 -1.1672  0.3355
    9DOPE   C33 1115   0.542   4.462   6.658  0.7915 -0.1100  1.1006
    9DOPE   H3X 1116   0.579   4.358   6.672  1.2427 -0.3852 -1.6605
    9DOPE   H3Y 1117   0.630   4.527   6.641 -0.0138  1.2607  1.9291
    9DOPE   C34 1118   0.476   4.452   6.519  0.0591 -0.2436 -0.1653
    9DOPE   H4X 1119   0.386   4.390   6.541 -2.2535  2.3144 -1.7654
    9DOPE   H4Y 1120   0.440   4.552   6.487  0.9517  0.2348  0.2963
    9DOPE   C35 1121   0.559   4.388   6.413  0.3933  0.0865  0.5587
    9DOPE   H5X 1122   0.589   4.284   6.438 -0.9554 -0.5478 -0.3214
    9DOPE   H5Y 1123   0.652   4.447   6.401 -0.3073  0.9566 -0.9376
    9DOPE   C36 1124   0.487   4.386   6.281 -0.4981 -0.3567 -0.5813
    9DOPE   H6X 1125   0.423   4.477   6.281  0.8434  0.8149 -4.6252
    9DOPE   H6Y 1126   0.427   4.293   6.280 -0.7691 -0.2711  1.9702
    9DOPE   C37 1127   0.584   4.387   6.160 -0.3706  0.5055 -0.8121
    9DOPE   H7X 1128   0.627   4.489   6.149  1.9169 -0.5144 -1.9932
    9DOPE   H7Y 1129   0.670   4.320   6.184  2.3150  3.2110 -2.1401
    9DOPE   C38 1130   0.519   4.337   6.028  0.0849 -0.4911  0.0434
    9DOPE   H8X 1131   0.481   4.236   6.054 -1.0378  0.2741  1.5041
    9DOPE   H8Y 1132   0.589   4.326   5.942 -0.1234 -2.9405  0.1237
    9DOPE   C39 1133   0.406   4.434   5.989  0.4109  0.5101 -0.4901
    9DOPE   H9X 1134   0.390   4.514   6.063  0.7019 -0.1123  0.2480
    9DOPE  C310 1135   0.329   4.431   5.876 -0.9890  0.4289 -0.9132
    9DOPE  H10X 1136   0.243   4.499   5.864  0.2026  2.3453  0.7337
    9DOPE  C311 1137   0.345   4.332   5.760  0.2381  0.8762  0.1384
    9DOPE  H11X 1138   0.428   4.261   5.776  0.2843  0.4854 -1.6244
    9DOPE  H11Y 1139   0.252   4.274   5.746 -0.5675  2.5323 -1.9219
    9DOPE  C312 1140   0.382   4.403   5.628  0.2850  0.2041  0.6713
    9DOPE  H12X 1141   0.325   4.497   5.612  1.9149  1.1893  0.4555
    9DOPE  H12Y 1142   0.369   4.325   5.550  0.7561  0.0956  0.6981
    9DOPE  C313 1143   0.529   4.451   5.636 -0.1786  0.6215 -0.2386
    9DOPE  H13X 1144   0.526   4.547   5.691 -1.4488  0.5782 -0.2089
    9DOPE  H13Y 1145   0.591   4.374   5.688  1.9194  0.5564 -2.6848
    9DOPE  C314 1146   0.582   4.480   5.495 -0.0458 -0.3076 -0.2143
    9DOPE  H14X 1147   0.573   4.388   5.434 -1.2999  1.2651 -2.5353
    9DOPE  H14Y 1148   0.689   4.511   5.496 -0.1184 -0.0394  0.7801
    9DOPE  C315 1149   0.506   4.593   5.428  0.8803 -0.0748  0.0937
    9DOPE  H15X 1150   0.507   4.684   5.492 -1.2838  0.1352 -0.0959
    9DOPE  H15Y 1151   0.400   4.563   5.419  1.0841 -0.4278 -1.2826
    9DOPE  C316 1152   0.562   4.625   5.287 -0.2721 -0.2912 -0.2447
    9DOPE  H16X 1153   0.558   4.536   5.221  0.7847 -0.3590 -0.2337
    9DOPE  H16Y 1154   0.669   4.646   5.305  0.3697 -3.4746  0.2988
    9DOPE  C317 1155   0.501   4.750   5.215 -0.4890  0.8750 -0.0834
    9DOPE  H17X 1156   0.550   4.838   5.263  2.5657 -0.5070 -0.4187
    9DOPE  H17Y 1157   0.550   4.737   5.116 -0.3054  0.6916  0.0339
    9DOPE  C318 1158   0.350   4.753   5.215  0.0732 -0.7393 -0.6728
    9DOPE  H18X 1159   0.312   4.844   5.163 -1.8438 -1.4573 -0.6117
    9DOPE  H18Y 1160   0.302   4.660   5.179  0.0896 -0.8530 -0.4038
    9DOPE  H18Z 1161   0.328   4.771   5.322 -0.1356  1.4135 -1.0289
   10DOPE     N 1162   1.305   5.225   6.817  0.1778 -0.6168  0.0152
   10DOPE   HN1 1163   1.209   5.259   6.839  0.2782  0.6146 -1.3322
   10DOPE   HN2 1164   1.317   5.279   6.729 -2.6802 -0.9515 -0.6885
   10DOPE   HN3 1165   1.299   5.124   6.791 -0.0985 -0.6939  0.3641
   10DOPE   C12 1166   1.410   5.277   6.907 -0.5589 -0.1251 -0.1147
   10DOPE  H12A 1167   1.400   5.236   7.010 -1.4140  0.5009  0.0561
   10DOPE  H12B 1168   1.391   5.386   6.916 -0.6181 -0.1511  0.0931
   10DOPE   C11 1169   1.550   5.254   6.846 -0.3669  0.6091 -0.3382
   10DOPE  H11A 1170   1.569   5.145   6.835  0.7905  0.8040 -0.3428
   10DOPE  H11B 1171   1.621   5.287   6.924  1.3972 -0.3449 -1.4728
   10DOPE     P 1172   1.707   5.389   6.694  0.0381 -0.2067  0.0601
   10DOPE   O13 1173   1.816   5.290   6.671  0.4839  0.2665 -0.3141
   10DOPE   O14 1174   1.731   5.491   6.796 -0.5192  0.1828 -0.2218
   10DOPE   O11 1175   1.670   5.468   6.561 -0.1412 -0.1140  0.3453
   10DOPE   O12 1176   1.571   5.319   6.722 -0.1218 -0.2720  0.3220
   10DOPE    C1 1177   1.550   5.541   6.533  0.3169 -0.5981  0.8503
   10DOPE    HA 1178   1.513   5.588   6.627  0.7048  0.4066  0.5159
   10DOPE    HB 1179   1.476   5.470   6.490  1.6529 -1.9887  0.7664
   10DOPE    C2 1180   1.573   5.661   6.442  0.1713 -1.1665  0.1164
   10DOPE    HS 1181   1.468   5.684   6.412  0.3010 -0.5303  0.1364
   10DOPE   O21 1182   1.649   5.613   6.329 -0.0596  0.4340 -0.1736
   10DOPE   C21 1183   1.628   5.680   6.216 -0.5310  0.3895  0.4347
   10DOPE   O22 1184   1.537   5.759   6.202 -0.3946  0.1276  0.4763
   10DOPE   C22 1185   1.730   5.643   6.111 -0.2431  0.4822 -0.5450
   10DOPE   H2R 1186   1.741   5.533   6.101 -0.0156  0.6393 -2.5124
   10DOPE   H2S 1187   1.826   5.685   6.147  0.5011 -0.0243 -1.8755
   10DOPE    C3 1188   1.652   5.771   6.525  0.1621  0.8637 -0.1918
   10DOPE    HX 1189   1.741   5.723   6.572 -1.2997 -0.4535  1.3694
   10DOPE    HY 1190   1.579   5.793   6.605 -0.5096 -0.3788 -0.4425
   10DOPE   O31 1191   1.690   5.883   6.444 -0.0491  0.0214 -0.4231
   10DOPE   C31 1192   1.611   5.988   6.449  0.1810  0.1599 -0.7342
   10DOPE   O32 1193   1.519   6.004   6.529 -0.0217  0.4839  0.4627
   10DOPE   C32 1194   1.657   6.080   6.331 -0.6600 -0.8097  0.4350
   10DOPE   H2X 1195   1.767   6.079   6.346 -0.7753 -1.3789  1.3168
   10DOPE   H2Y 1196   1.632   6.030   6.235 -0.5719  0.8651 -0.5101
   10DOPE   C23 1197   1.714   5.700   5.972  0.3048 -0.3518 -0.6003
   10DOPE   H3R 1198   1.690   5.808   5.978 -1.3846 -0.7866  1.6968
   10DOPE   H3S 1199   1.634   5.653   5.911  1.7596  0.0928 -2.9754
   10DOPE   C24 1200   1.842   5.676   5.901 -0.7747 -0.1008  0.2839
   10DOPE   H4R 1201   1.873   5.572   5.926 -0.3469 -0.5867 -2.0176
   10DOPE   H4S 1202   1.919   5.743   5.943 -1.6901  1.8459 -0.9765
   10DOPE   C25 1203   1.821   5.688   5.746  0.1282  0.4322 -0.2007
   10DOPE   H5R 1204   1.804   5.796   5.722 -1.5564  0.1200 -0.5120
   10DOPE   H5S 1205   1.743   5.618   5.711  0.6036 -0.8512  1.2148
   10DOPE   C26 1206   1.950   5.656   5.666 -0.0060 -0.0747 -0.4571
   10DOPE   H6R 1207   1.916   5.637   5.562 -1.3824  0.5402 -0.1322
   10DOPE   H6S 1208   1.996   5.565   5.711 -0.3873  0.0249  0.1456
   10DOPE   C27 1209   2.055   5.763   5.660 -0.1269 -0.0085  0.1094
   10DOPE   H7R 1210   2.104   5.777   5.759  0.7615 -1.1091 -0.1651
   10DOPE   H7S 1211   1.993   5.849   5.627  0.0046  0.3542  0.7957
   10DOPE   C28 1212   2.174   5.732   5.569 -0.0413 -0.0966  0.1989
   10DOPE   H8R 1213   2.148   5.701   5.466  0.3535 -0.3088  0.1588
   10DOPE   H8S 1214   2.221   5.643   5.616  2.4197  0.2993 -1.3059
   10DOPE   C29 1215   2.275   5.847   5.574  0.2102  0.3403  0.7464
   10DOPE   H9R 1216   2.343   5.838   5.660  2.3563  0.7640 -0.8067
   10DOPE  C210 1217   2.300   5.933   5.475  0.0432  0.1912 -0.3675
   10DOPE  H10R 1218   2.386   5.999   5.490 -0.3997  0.8555 -0.7015
   10DOPE  C211 1219   2.228   5.956   5.340 -0.8306 -0.0141 -0.2762
   10DOPE  H11R 1220   2.163   6.045   5.350 -1.0745 -0.4265  2.8178
   10DOPE  H11S 1221   2.156   5.874   5.317 -2.2210  1.4197 -1.2398
   10DOPE  C212 1222   2.326   5.981   5.220  0.3200  0.3303 -0.2090
   10DOPE  H12R 1223   2.379   5.886   5.198  0.1567  0.3647 -0.7680
   10DOPE  H12S 1224   2.396   6.065   5.240  0.4656 -0.2609  1.9360
   10DOPE  C213 1225   2.242   6.011   5.093  0.2278 -0.4002 -0.0668
   10DOPE  H13R 1226   2.227   6.121   5.090 -0.3993 -0.4604  0.5737
   10DOPE  H13S 1227   2.141   5.969   5.113 -1.4145  1.7368 -3.0828
   10DOPE  C214 1228   2.294   5.955   4.965  0.1278  0.3363 -0.3881
   10DOPE  H14R 1229   2.206   5.943   4.898 -0.0374  0.6594 -0.2338
   10DOPE  H14S 1230   2.319   5.850   4.992 -0.3518  0.3106 -0.0356
   10DOPE  C215 1231   2.423   6.013   4.900 -0.5524  0.0248 -0.0526
   10DOPE  H15R 1232   2.436   6.123   4.913  0.8012  0.0951 -1.6949
   10DOPE  H15S 1233   2.413   5.996   4.791 -0.7130 -3.4638  0.3770
   10DOPE  C216 1234   2.555   5.962   4.970 -0.4114 -0.3485  0.7510
   10DOPE  H16R 1235   2.530   5.917   5.069  1.2272 -0.5553  1.1004
   10DOPE  H16S 1236   2.619   6.051   4.987 -1.1042  0.7523 -1.9689
   10DOPE  C217 1237   2.630   5.863   4.881  0.2283 -0.3528  0.1417
   10DOPE  H17R 1238   2.652   5.916   4.786 -3.5941  2.9948  0.8612
   10DOPE  H17S 1239   2.555   5.784   4.859 -1.4160  1.9614 -3.2215
   10DOPE  C218 1240   2.770   5.812   4.935 -0.6751  0.5959  0.2577
   10DOPE  H18R 1241   2.829   5.749   4.865 -1.9472 -1.3481  0.8428
   10DOPE  H18S 1242   2.764   5.749   5.026 -3.8285  0.7143  0.2547
   10DOPE  H18T 1243   2.832   5.899   4.963  0.7018 -1.0718  2.7234
   10DOPE   C33 1244   1.610   6.225   6.354  0.9988 -0.2652  0.6837
   10DOPE   H3X 1245   1.666   6.297   6.291  0.5866  0.4994  1.1765
   10DOPE   H3Y 1246   1.633   6.259   6.457  1.4203 -1.2261  0.9157
   10DOPE   C34 1247   1.460   6.250   6.328 -0.3169 -0.0782 -0.3516
   10DOPE   H4X 1248   1.397   6.208   6.409 -0.0469 -1.6642 -0.9108
   10DOPE   H4Y 1249   1.443   6.359   6.341 -0.1982 -0.0134 -0.7139
   10DOPE   C35 1250   1.413   6.209   6.193 -0.3003 -0.8657  0.6231
   10DOPE   H5X 1251   1.302   6.214   6.193 -0.2989  4.5961  0.5650
   10DOPE   H5Y 1252   1.441   6.107   6.158  2.2919 -0.1919  0.5177
   10DOPE   C36 1253   1.459   6.311   6.088 -0.4392  0.9447  0.0600
   10DOPE   H6X 1254   1.568   6.308   6.069 -0.8284 -0.8368 -2.3468
   10DOPE   H6Y 1255   1.426   6.413   6.117 -0.7455  0.2393  2.4290
   10DOPE   C37 1256   1.396   6.285   5.943  0.7348  0.0132 -0.2808
   10DOPE   H7X 1257   1.437   6.347   5.860 -0.7295 -1.0816 -1.8818
   10DOPE   H7Y 1258   1.413   6.176   5.931  1.2906 -0.0575  0.9978
   10DOPE   C38 1259   1.241   6.299   5.940 -0.0174 -0.3599 -0.4634
   10DOPE   H8X 1260   1.207   6.212   5.999  3.9374 -1.5653  0.3931
   10DOPE   H8Y 1261   1.211   6.287   5.834 -1.1334 -0.8066 -0.1046
   10DOPE   C39 1262   1.168   6.426   5.993 -0.3542  0.4561 -0.2173
   10DOPE   H9X 1263   1.159   6.428   6.103  1.4733  0.7695 -0.0483
   10DOPE  C310 1264   1.097   6.514   5.930 -0.6675  0.0466  0.6730
   10DOPE  H10X 1265   1.053   6.594   5.991  3.3231  0.2475  3.6840
   10DOPE  C311 1266   1.084   6.526   5.777 -0.1396 -0.0317 -0.5251
   10DOPE  H11X 1267   1.106   6.631   5.748  1.1396 -0.3065 -0.6120
   10DOPE  H11Y 1268   1.163   6.467   5.726 -2.4164 -2.0143 -2.0029
   10DOPE  C312 1269   0.942   6.476   5.738  0.1332  0.2419 -0.6241
   10DOPE  H12X 1270   0.866   6.531   5.798 -0.3354  0.4284 -1.3717
   10DOPE  H12Y 1271   0.918   6.370   5.762 -3.0765  1.1059  0.5529
   10DOPE  C313 1272   0.904   6.503   5.589  0.2713  0.2615  0.3871
   10DOPE  H13X 1273   0.934   6.606   5.563  0.8804  0.2102  0.8663
   10DOPE  H13Y 1274   0.957   6.433   5.521  0.9789  0.2865  0.9069
   10DOPE  C314 1275   0.753   6.494   5.548  0.5032  0.4264  0.0468
   10DOPE  H14X 1276   0.743   6.525   5.442 -0.9040  0.0385  0.0450
   10DOPE  H14Y 1277   0.692   6.564   5.608 -1.5891 -1.7035  0.5587
   10DOPE  C315 1278   0.702   6.351   5.557  0.1890  0.8491  0.1904
   10DOPE  H15X 1279   0.712   6.304   5.657 -0.5342 -1.3968 -0.7353
   10DOPE  H15Y 1280   0.761   6.287   5.489  0.2130 -0.9413  1.8253
   10DOPE  C316 1281   0.548   6.321   5.518 -0.1466 -0.4794 -0.0325
   10DOPE  H16X 1282   0.538   6.364   5.416  1.7436  2.2184  0.7853
   10DOPE  H16Y 1283   0.467   6.368   5.578 -0.3533  0.7690 -1.2516
   10DOPE  C317 1284   0.515   6.168   5.507  0.9580  0.0948 -0.2933
   10DOPE  H17X 1285   0.585   6.117   5.437 -0.1571 -0.7468 -0.8305
   10DOPE  H17Y 1286   0.535   6.114   5.602 -0.3930 -0.7063 -0.4398
   10DOPE  C318 1287   0.369   6.140   5.473 -0.1824  0.8983 -0.6062
   10DOPE  H18X 1288   0.335   6.196   5.383  1.7463  2.8441 -0.2008
   10DOPE  H18Y 1289   0.339   6.033   5.464  0.2335  0.4982  1.9181
   10DOPE  H18Z 1290   0.296   6.177   5.548 -1.4804  0.8867 -1.8284
   11DOPE     N 1291   0.089   2.816   7.600 -0.7974  0.7281  0.5434
   11DOPE   HN1 1292   0.013   2.883   7.622 -0.8539  1.8310 -2.5256
   11DOPE   HN2 1293   0.074   2.730   7.657  0.8403 -0.2597 -0.4270
   11DOPE   HN3 1294   0.179   2.858   7.632 -0.8834  1.8978 -0.6537
   11DOPE   C12 1295   0.084   2.769   7.458 -0.0204 -0.2415 -0.0503
   11DOPE  H12A 1296   0.115   2.863   7.407 -1.9767  0.9455  0.8029
   11DOPE  H12B 1297  -0.022   2.741   7.437 -0.1081 -0.2042  0.3261
   11DOPE   C11 1298   0.170   2.644   7.439 -1.1067 -0.4756 -0.0458
   11DOPE  H11A 1299   0.143   2.593   7.344  0.0706 -1.9415  0.3662
   11DOPE  H11B 1300   0.141   2.572   7.519  1.2081 -0.1063  1.2143
   11DOPE     P 1301   0.399   2.729   7.350 -0.1067  0.1027 -0.1800
   11DOPE   O13 1302   0.524   2.656   7.339 -0.1265  0.4851  0.2920
   11DOPE   O14 1303   0.411   2.874   7.373  0.0278 -0.0586 -0.0819
   11DOPE   O11 1304   0.317   2.703   7.210  0.2775  0.4108 -0.2025
   11DOPE   O12 1305   0.313   2.676   7.463 -0.6644 -0.1687  0.2683
   11DOPE    C1 1306   0.370   2.623   7.106 -0.0634 -0.4702 -0.2668
   11DOPE    HA 1307   0.289   2.566   7.056 -3.0291  2.4064  0.9586
   11DOPE    HB 1308   0.431   2.540   7.149 -0.8956 -0.5557  0.7752
   11DOPE    C2 1309   0.441   2.705   6.998 -0.5960 -0.5038  0.0900
   11DOPE    HS 1310   0.537   2.744   7.039 -0.8957 -0.4305  0.7239
   11DOPE   O21 1311   0.364   2.820   6.962 -0.0778  0.1951  0.0758
   11DOPE   C21 1312   0.429   2.900   6.879  0.5978 -0.4095  0.2267
   11DOPE   O22 1313   0.549   2.915   6.866 -0.0888  0.6422 -0.0902
   11DOPE   C22 1314   0.319   2.979   6.804 -0.1326  0.3705  0.2597
   11DOPE   H2R 1315   0.363   3.073   6.765 -1.3141  0.6240 -0.5075
   11DOPE   H2S 1316   0.234   3.000   6.872 -0.1184 -2.5621  1.3079
   11DOPE    C3 1317   0.489   2.621   6.876  0.8813  0.0534  0.2576
   11DOPE    HX 1318   0.552   2.536   6.909  0.7781 -1.2171 -2.5579
   11DOPE    HY 1319   0.551   2.691   6.815 -0.1064  1.0555  0.3814
   11DOPE   O31 1320   0.377   2.577   6.796 -0.6492  0.0332 -1.1196
   11DOPE   C31 1321   0.350   2.451   6.801  0.5143 -0.0430 -0.3042
   11DOPE   O32 1322   0.412   2.368   6.868 -0.0724 -0.1971  0.0655
   11DOPE   C32 1323   0.239   2.416   6.706  0.1130 -0.4347 -0.5462
   11DOPE   H2X 1324   0.145   2.420   6.764  0.1176 -0.7826 -0.5175
   11DOPE   H2Y 1325   0.244   2.499   6.632 -0.6755 -0.3290 -0.4863
   11DOPE   C23 1326   0.280   2.901   6.670 -0.1189  0.4234 -0.5342
   11DOPE   H3R 1327   0.192   2.944   6.616 -0.3574 -1.5750 -1.8266
   11DOPE   H3S 1328   0.246   2.807   6.719 -1.1848  2.0359  2.0470
   11DOPE   C24 1329   0.399   2.867   6.584  0.0623 -0.2593  0.0148
   11DOPE   H4R 1330   0.365   2.818   6.490  0.3269 -0.3287 -0.0441
   11DOPE   H4S 1331   0.473   2.805   6.640  1.0089  0.9340  0.1141
   11DOPE   C25 1332   0.480   2.981   6.528 -0.3652 -0.1990 -0.1824
   11DOPE   H5R 1333   0.533   3.032   6.611  0.4305  0.6001 -1.1593
   11DOPE   H5S 1334   0.402   3.048   6.486 -1.1882 -1.5663 -0.8758
   11DOPE   C26 1335   0.581   2.947   6.416  0.0722 -0.5586  0.1015
   11DOPE   H6R 1336   0.641   3.040   6.407  2.4567 -1.8615  1.4361
   11DOPE   H6S 1337   0.525   2.937   6.321  2.3428 -0.7933 -1.2762
   11DOPE   C27 1338   0.664   2.824   6.439 -0.6044  0.3830 -0.4694
   11DOPE   H7R 1339   0.596   2.738   6.421  0.1320  0.2760 -3.1006
   11DOPE   H7S 1340   0.704   2.832   6.543  1.4713  3.3230 -1.3777
   11DOPE   C28 1341   0.777   2.813   6.337 -0.1825 -0.1235 -0.5599
   11DOPE   H8R 1342   0.731   2.836   6.238 -0.5009 -2.5789 -1.0580
   11DOPE   H8S 1343   0.822   2.711   6.342 -0.1824 -0.0459  2.8230
   11DOPE   C29 1344   0.897   2.898   6.358 -0.4478 -0.0895  0.2443
   11DOPE   H9R 1345   0.937   2.893   6.460 -0.1600  2.4411  0.3167
   11DOPE  C210 1346   0.960   2.981   6.270  0.2775 -0.1794 -0.0012
   11DOPE  H10R 1347   1.054   3.018   6.313 -1.8186  2.0999  3.0516
   11DOPE  C211 1348   0.927   2.989   6.119  0.6347  0.1625  0.3302
   11DOPE  H11R 1349   0.819   2.969   6.102  0.5874 -0.4465  1.2869
   11DOPE  H11S 1350   0.981   2.908   6.067 -1.5300 -0.7931 -0.5693
   11DOPE  C212 1351   0.971   3.118   6.053  0.3556  0.2215 -0.4381
   11DOPE  H12R 1352   0.968   3.206   6.121 -1.1464 -1.7768  2.2964
   11DOPE  H12S 1353   0.904   3.149   5.970 -1.3355 -1.5424  0.1946
   11DOPE  C213 1354   1.109   3.098   5.978 -0.2393 -0.3722 -0.3711
   11DOPE  H13R 1355   1.097   3.022   5.898  0.5695  1.3882 -2.2366
   11DOPE  H13S 1356   1.185   3.060   6.050 -1.5733 -1.3284  0.5900
   11DOPE  C214 1357   1.181   3.223   5.909 -0.8581 -0.7080  0.8034
   11DOPE  H14R 1358   1.261   3.178   5.846 -2.7087  2.2919 -4.3665
   11DOPE  H14S 1359   1.225   3.288   5.987 -1.8176  1.4915 -0.4032
   11DOPE  C215 1360   1.104   3.295   5.796  0.2288  0.2602 -0.0106
   11DOPE  H15R 1361   1.189   3.341   5.742  1.1056 -2.5002 -1.1337
   11DOPE  H15S 1362   1.035   3.378   5.824 -0.3505 -0.0224 -0.5770
   11DOPE  C216 1363   1.036   3.205   5.692 -0.0500 -0.3646  0.1181
   11DOPE  H16R 1364   0.945   3.163   5.741  0.5628 -0.2454  1.4007
   11DOPE  H16S 1365   1.107   3.122   5.673 -1.3936 -1.3367 -0.8346
   11DOPE  C217 1366   1.012   3.278   5.557 -0.0998  0.4098  0.1741
   11DOPE  H17R 1367   1.103   3.320   5.509 -0.8841  0.9439 -0.9102
   11DOPE  H17S 1368   0.951   3.366   5.586  0.1803  0.3393  0.9896
   11DOPE  C218 1369   0.937   3.201   5.452 -0.2292 -0.0731  0.1609
   11DOPE  H18R 1370   0.916   3.264   5.364 -0.9754  0.2576  0.5641
   11DOPE  H18S 1371   0.846   3.158   5.499 -2.1913  0.1167 -3.1736
   11DOPE  H18T 1372   0.995   3.119   5.403 -0.2097  0.0510 -0.0219
   11DOPE   C33 1373   0.248   2.281   6.643  0.2308 -0.2710 -0.4297
   11DOPE   H3X 1374   0.246   2.197   6.716 -3.0245  0.9929  1.1208
   11DOPE   H3Y 1375   0.329   2.275   6.567  1.1339  0.5470  0.4396
   11DOPE   C34 1376   0.120   2.264   6.553 -0.6787 -0.8920 -0.5351
   11DOPE   H4X 1377   0.023   2.288   6.601 -0.1410  0.2243  0.0559
   11DOPE   H4Y 1378   0.141   2.342   6.477 -0.4296  0.2363  0.6567
   11DOPE   C35 1379   0.115   2.127   6.482  0.5814 -0.2408 -0.1510
   11DOPE   H5X 1380   0.109   2.057   6.568 -2.0005  0.9234  0.7336
   11DOPE   H5Y 1381   0.204   2.113   6.418 -0.8365  1.2599 -2.6422
   11DOPE   C36 1382  -0.005   2.095   6.399  0.4745  0.0198 -0.0143
   11DOPE   H6X 1383   0.009   2.149   6.303  0.7420  1.0426  0.5842
   11DOPE   H6Y 1384  -0.104   2.127   6.438 -0.1934 -2.0660  0.1008
   11DOPE   C37 1385  -0.026   1.944   6.382  0.3878  0.1641 -0.1241
   11DOPE   H7X 1386   0.065   1.886   6.354 -0.8010 -1.9662  0.1415
   11DOPE   H7Y 1387  -0.055   1.908   6.483  1.0478  2.3443  0.8953
   11DOPE   C38 1388  -0.152   1.914   6.297  0.7888  0.0561  0.4710
   11DOPE   H8X 1389  -0.240   1.961   6.345  1.5113  2.6443 -0.5753
   11DOPE   H8Y 1390  -0.181   1.807   6.304 -1.3549  0.4411 -1.3277
   11DOPE   C39 1391  -0.136   1.939   6.151  0.5250 -0.0356  0.1137
   11DOPE   H9X 1392  -0.049   1.895   6.100  0.2171  0.4949 -0.9039
   11DOPE  C310 1393  -0.225   2.006   6.074 -0.4950  0.3653  0.5623
   11DOPE  H10X 1394  -0.199   2.039   5.972  0.5662  2.3725  1.4259
   11DOPE  C311 1395  -0.340   2.084   6.127  0.0791 -0.6702 -0.4478
   11DOPE  H11X 1396  -0.367   2.071   6.234 -1.6828  0.5392 -0.6950
   11DOPE  H11Y 1397  -0.338   2.193   6.106  0.0511 -0.3029  1.3370
   11DOPE  C312 1398  -0.463   2.031   6.045 -0.8443 -0.4481 -0.1635
   11DOPE  H12X 1399  -0.468   1.920   6.041  1.3496 -0.5605 -1.0428
   11DOPE  H12Y 1400  -0.459   2.070   5.941 -2.7652  1.3058  0.3348
   11DOPE  C313 1401  -0.589   2.083   6.107  0.0297 -0.4594 -0.2758
   11DOPE  H13X 1402  -0.576   2.079   6.217  0.1824  0.4903 -0.2479
   11DOPE  H13Y 1403  -0.606   2.192   6.092 -1.0966 -0.2022  2.2223
   11DOPE  C314 1404  -0.711   2.004   6.057  0.6725 -0.0275 -0.0149
   11DOPE  H14X 1405  -0.677   1.899   6.046  0.0710 -0.1074 -1.3460
   11DOPE  H14Y 1406  -0.734   2.044   5.956  0.7357 -0.9223 -0.3991
   11DOPE  C315 1407  -0.842   2.010   6.135 -0.0551  0.1946  0.5986
   11DOPE  H15X 1408  -0.878   2.115   6.129 -0.6233 -0.0746 -1.3883
   11DOPE  H15Y 1409  -0.822   1.985   6.242 -0.3028  0.0886  0.6206
   11DOPE  C316 1410  -0.944   1.903   6.081  0.4131 -0.5835  0.3571
   11DOPE  H16X 1411  -0.898   1.806   6.054 -0.2309 -0.9408  0.5399
   11DOPE  H16Y 1412  -0.985   1.957   5.992  0.7950 -0.4151  0.2826
   11DOPE  C317 1413  -1.059   1.874   6.184  0.2066 -0.0894 -0.1324
   11DOPE  H17X 1414  -1.009   1.807   6.258  0.5328  0.5633  0.2513
   11DOPE  H17Y 1415  -1.091   1.963   6.243  0.6008 -0.4178  0.5929
   11DOPE  C318 1416  -1.188   1.819   6.124 -0.0440  0.9765 -0.2178
   11DOPE  H18X 1417  -1.241   1.885   6.052  1.1033  1.2371 -0.8412
   11DOPE  H18Y 1418  -1.179   1.724   6.066 -2.9828  0.4156  0.0749
   11DOPE  H18Z 1419  -1.251   1.784   6.208 -0.0719 -0.4532 -0.8095
   12DOPE     N 1420   4.386   0.798   7.859  0.3505 -0.1445  0.3861
   12DOPE   HN1 1421   4.374   0.886   7.914  0.2210 -0.7480  1.3595
   12DOPE   HN2 1422   4.321   0.807   7.779  1.2001 -0.7738 -0.3975
   12DOPE   HN3 1423   4.346   0.716   7.910 -2.0432  0.5939 -0.2050
   12DOPE   C12 1424   4.520   0.772   7.801  0.1080  0.9395 -0.4881
   12DOPE  H12A 1425   4.587   0.767   7.890 -1.4047 -0.4127  0.6312
   12DOPE  H12B 1426   4.559   0.859   7.745  0.5133  2.8236  2.5112
   12DOPE   C11 1427   4.515   0.644   7.725 -0.3690 -0.1336  0.1561
   12DOPE  H11A 1428   4.622   0.620   7.706 -0.8404 -2.2845 -0.1106
   12DOPE  H11B 1429   4.455   0.653   7.632 -1.1189 -3.4643  0.1712
   12DOPE     P 1430   4.463   0.393   7.729  0.3248 -0.6082 -0.0618
   12DOPE   O13 1431   4.355   0.305   7.767 -0.3217  0.0850 -0.1991
   12DOPE   O14 1432   4.593   0.327   7.732  0.0548  0.0919  0.0455
   12DOPE   O11 1433   4.452   0.426   7.579 -0.2337  0.1639  0.6912
   12DOPE   O12 1434   4.458   0.534   7.797  0.8166 -0.1799 -0.0019
   12DOPE    C1 1435   4.323   0.450   7.518  0.1551 -0.1494  0.4232
   12DOPE    HA 1436   4.342   0.541   7.456  1.7666 -0.4354  0.4500
   12DOPE    HB 1437   4.243   0.479   7.589 -1.0240  2.7601 -1.8828
   12DOPE    C2 1438   4.279   0.344   7.411  1.0071  0.6984  0.2820
   12DOPE    HS 1439   4.255   0.250   7.466  1.1003  1.1992  1.1848
   12DOPE   O21 1440   4.387   0.342   7.318  0.2579 -0.0894 -0.0436
   12DOPE   C21 1441   4.421   0.223   7.280 -0.8122 -0.6074 -0.5702
   12DOPE   O22 1442   4.372   0.118   7.314  0.7748  0.1505 -0.8819
   12DOPE   C22 1443   4.535   0.227   7.179 -0.5253 -0.1102  0.4697
   12DOPE   H2R 1444   4.569   0.333   7.178  0.4854 -0.4182 -0.9629
   12DOPE   H2S 1445   4.489   0.215   7.079 -1.3308  0.9147  0.6954
   12DOPE    C3 1446   4.144   0.392   7.335  0.2802  0.5488 -0.1833
   12DOPE    HX 1447   4.174   0.491   7.295  1.6416  0.2035 -0.0741
   12DOPE    HY 1448   4.063   0.405   7.410  0.7110  0.7702  0.2483
   12DOPE   O31 1449   4.113   0.297   7.237  0.8640  0.3281 -0.4544
   12DOPE   C31 1450   3.998   0.220   7.256  0.5312  0.4568  0.0785
   12DOPE   O32 1451   3.923   0.225   7.353 -0.2263 -0.7299 -0.0645
   12DOPE   C32 1452   3.991   0.116   7.143  0.5184 -0.4303  0.3434
   12DOPE   H2X 1453   3.917   0.038   7.171 -1.1201  0.7335 -0.5077
   12DOPE   H2Y 1454   3.949   0.172   7.056  0.9094 -1.3299 -0.4360
   12DOPE   C23 1455   4.658   0.135   7.210 -0.3212  0.5185 -0.5476
   12DOPE   H3R 1456   4.628   0.031   7.183  0.0976 -0.4626  2.4281
   12DOPE   H3S 1457   4.673   0.123   7.319  1.1343 -3.0408 -1.0151
   12DOPE   C24 1458   4.790   0.182   7.154 -0.2139  0.1103  0.5761
   12DOPE   H4R 1459   4.871   0.112   7.182  0.1185  0.8549  1.5698
   12DOPE   H4S 1460   4.811   0.284   7.193 -2.2184  1.2733 -1.1340
   12DOPE   C25 1461   4.793   0.197   6.999  0.1680  0.2224 -0.2242
   12DOPE   H5R 1462   4.726   0.277   6.961 -1.3793  0.0962  2.0577
   12DOPE   H5S 1463   4.772   0.098   6.953 -1.0122  0.7281 -0.8220
   12DOPE   C26 1464   4.936   0.222   6.959 -0.0110  0.4219  0.2905
   12DOPE   H6R 1465   5.002   0.170   7.031 -1.2382  3.4283  3.8843
   12DOPE   H6S 1466   4.970   0.326   6.977  0.4171  0.4377 -0.5472
   12DOPE   C27 1467   4.957   0.201   6.810  0.0069  0.7735  0.2474
   12DOPE   H7R 1468   4.887   0.262   6.750  1.1310 -1.1572 -3.3624
   12DOPE   H7S 1469   4.936   0.097   6.777 -0.9633  0.5357  1.5382
   12DOPE   C28 1470   5.105   0.205   6.768  0.4101 -0.5282 -0.2775
   12DOPE   H8R 1471   5.123   0.161   6.668  0.2302 -0.6708 -0.2476
   12DOPE   H8S 1472   5.166   0.135   6.829 -0.1569 -2.2797 -1.6136
   12DOPE   C29 1473   5.173   0.343   6.773 -0.1019  0.5376  0.4094
   12DOPE   H9R 1474   5.138   0.401   6.861  3.4506  0.3275  2.1578
   12DOPE  C210 1475   5.258   0.381   6.674  0.1835 -0.3617 -0.5590
   12DOPE  H10R 1476   5.291   0.486   6.676  0.7683 -0.5354 -1.2346
   12DOPE  C211 1477   5.298   0.327   6.542 -0.1662  0.5654  0.3108
   12DOPE  H11R 1478   5.225   0.275   6.476  1.0618  2.7134 -3.0166
   12DOPE  H11S 1479   5.378   0.255   6.571 -2.0795 -0.7921  2.5042
   12DOPE  C212 1480   5.364   0.432   6.446  0.0424 -0.1565 -0.6747
   12DOPE  H12R 1481   5.433   0.502   6.497  0.5650 -0.1916 -1.3186
   12DOPE  H12S 1482   5.291   0.498   6.395  0.6175  0.6276 -0.5116
   12DOPE  C213 1483   5.457   0.348   6.347  0.1731 -0.0088  0.4510
   12DOPE  H13R 1484   5.403   0.266   6.296  1.6330 -0.0172 -1.1810
   12DOPE  H13S 1485   5.541   0.305   6.406  0.5192 -0.1549 -0.1355
   12DOPE  C214 1486   5.526   0.431   6.238 -0.8844 -0.1340  0.4139
   12DOPE  H14R 1487   5.601   0.495   6.290  0.2626 -2.2923  1.5670
   12DOPE  H14S 1488   5.458   0.498   6.182  0.1772 -0.7644 -1.7298
   12DOPE  C215 1489   5.592   0.339   6.138  0.4492  0.6097 -0.5531
   12DOPE  H15R 1490   5.518   0.259   6.121  0.0750  0.9712 -0.6375
   12DOPE  H15S 1491   5.683   0.295   6.185 -0.1292 -1.1416 -1.0286
   12DOPE  C216 1492   5.646   0.400   6.011  0.4608  0.2030  0.2080
   12DOPE  H16R 1493   5.561   0.434   5.948  0.3764  2.3946  1.4293
   12DOPE  H16S 1494   5.705   0.322   5.957  0.3791  0.9942 -1.0698
   12DOPE  C217 1495   5.744   0.511   6.037  0.5133 -0.8165 -0.4518
   12DOPE  H17R 1496   5.830   0.485   6.103  0.3822 -2.1367 -0.7645
   12DOPE  H17S 1497   5.688   0.587   6.096  2.9253  1.0960 -0.4725
   12DOPE  C218 1498   5.795   0.557   5.899  0.3353  0.0903 -0.0805
   12DOPE  H18R 1499   5.830   0.467   5.845  3.4381 -0.0234  1.8679
   12DOPE  H18S 1500   5.884   0.622   5.915  0.0360  0.0462  2.1762
   12DOPE  H18T 1501   5.718   0.618   5.848  0.4816 -0.2700 -0.7399
   12DOPE   C33 1502   4.128   0.079   7.095 -0.7548  0.6609  0.0619
   12DOPE   H3X 1503   4.199   0.038   7.169  1.6780  2.6393 -1.0336
   12DOPE   H3Y 1504   4.185   0.163   7.051 -0.4892  0.7592  0.5944
   12DOPE   C34 1505   4.120  -0.027   6.982 -0.1038  0.3174  0.1043
   12DOPE   H4X 1506   4.057  -0.109   7.023 -0.8896  0.9066  0.1030
   12DOPE   H4Y 1507   4.060   0.011   6.896 -1.8733 -0.0929  1.1124
   12DOPE   C35 1508   4.263  -0.068   6.930  0.5692  0.1446 -0.3904
   12DOPE   H5X 1509   4.310  -0.126   7.012 -1.3532 -0.2630  0.4680
   12DOPE   H5Y 1510   4.325   0.024   6.922 -0.6647  1.0559  0.1933
   12DOPE   C36 1511   4.254  -0.140   6.791 -0.4211 -0.2032 -0.4683
   12DOPE   H6X 1512   4.347  -0.137   6.732 -0.0796  1.1835  0.0895
   12DOPE   H6Y 1513   4.186  -0.083   6.724 -0.0854  0.2720 -0.4086
   12DOPE   C37 1514   4.205  -0.283   6.805  0.1798 -0.0215 -0.7740
   12DOPE   H7X 1515   4.287  -0.349   6.840 -1.7431 -3.4690 -2.3152
   12DOPE   H7Y 1516   4.119  -0.281   6.875  1.8922  0.4402  1.4581
   12DOPE   C38 1517   4.165  -0.346   6.669 -0.1550  0.5333 -0.3839
   12DOPE   H8X 1518   4.262  -0.350   6.614 -0.5843  0.9175 -1.1898
   12DOPE   H8Y 1519   4.112  -0.266   6.613 -0.3756  0.0646 -0.8590
   12DOPE   C39 1520   4.115  -0.488   6.692  0.3427  0.2104  0.6314
   12DOPE   H9X 1521   4.190  -0.544   6.750 -1.2519 -3.4976 -0.5880
   12DOPE  C310 1522   4.002  -0.552   6.657  0.1413  0.2520 -0.6406
   12DOPE  H10X 1523   3.981  -0.652   6.699  2.4981 -0.9798 -2.1768
   12DOPE  C311 1524   3.886  -0.474   6.599 -0.0970  0.3653 -0.5893
   12DOPE  H11X 1525   3.806  -0.456   6.674  0.8823  4.0766 -0.1972
   12DOPE  H11Y 1526   3.919  -0.372   6.568  0.0240  1.2751  2.2053
   12DOPE  C312 1527   3.806  -0.559   6.496 -0.1752  0.1762 -0.0275
   12DOPE  H12X 1528   3.718  -0.507   6.452  1.4471  2.1753 -1.0526
   12DOPE  H12Y 1529   3.773  -0.654   6.544 -2.1824  0.7589 -0.1720
   12DOPE  C313 1530   3.889  -0.598   6.375 -0.3613 -0.2460  0.2017
   12DOPE  H13X 1531   3.931  -0.500   6.345  0.1807 -0.1263  1.3058
   12DOPE  H13Y 1532   3.960  -0.671   6.420  0.7428  1.2721  0.9762
   12DOPE  C314 1533   3.821  -0.677   6.253 -0.0280 -0.1697 -0.3870
   12DOPE  H14X 1534   3.722  -0.698   6.299 -0.1479 -0.7774 -0.9198
   12DOPE  H14Y 1535   3.863  -0.775   6.221 -0.8158 -0.5447 -0.2867
   12DOPE  C315 1536   3.800  -0.591   6.128  0.0543  0.2493  0.1056
   12DOPE  H15X 1537   3.902  -0.556   6.101  0.8226 -2.6220 -1.0140
   12DOPE  H15Y 1538   3.735  -0.501   6.136  1.3085  1.3583 -1.5249
   12DOPE  C316 1539   3.724  -0.674   6.024 -0.2423 -0.0005  0.3316
   12DOPE  H16X 1540   3.618  -0.682   6.056 -0.4898  0.5339 -0.3528
   12DOPE  H16Y 1541   3.773  -0.768   5.992  1.9807  1.4964 -0.9002
   12DOPE  C317 1542   3.733  -0.594   5.893 -0.4818  0.4408  0.0089
   12DOPE  H17X 1543   3.684  -0.494   5.900 -0.9525  0.1459  1.1156
   12DOPE  H17Y 1544   3.841  -0.569   5.883 -0.3507 -0.5753 -1.2279
   12DOPE  C318 1545   3.689  -0.677   5.768  0.0160  0.6393 -0.6554
   12DOPE  H18X 1546   3.579  -0.695   5.758 -0.3033  1.3663  1.1402
   12DOPE  H18Y 1547   3.728  -0.620   5.680 -0.0215  1.1385 -0.3553
   12DOPE  H18Z 1548   3.733  -0.779   5.769 -0.9873  0.1056 -2.7984
   13DOPE     N 1549   3.175   1.687   7.110  0.8468  0.4267  0.0267
   13DOPE   HN1 1550   3.106   1.616   7.140 -0.5979  1.5682 -0.4622
   13DOPE   HN2 1551   3.241   1.648   7.040 -0.6577  1.3877 -2.0543
   13DOPE   HN3 1552   3.222   1.731   7.192  1.4045  0.6605 -0.4145
   13DOPE   C12 1553   3.097   1.788   7.033 -0.8484  0.4975  0.1786
   13DOPE  H12A 1554   3.043   1.858   7.101 -0.5695 -1.1190  2.1673
   13DOPE  H12B 1555   3.028   1.722   6.976 -1.3708 -1.2829  2.6859
   13DOPE   C11 1556   3.187   1.869   6.944 -0.4062 -0.1496  0.2441
   13DOPE  H11A 1557   3.109   1.931   6.895  0.5184  1.6478  0.9453
   13DOPE  H11B 1558   3.237   1.816   6.860  0.7439  1.4253 -0.1122
   13DOPE     P 1559   3.351   2.070   6.954  0.0571 -0.1615 -0.2470
   13DOPE   O13 1560   3.496   2.077   6.988  0.1003 -0.1106  0.1534
   13DOPE   O14 1561   3.273   2.190   6.993 -0.3454  0.1455  0.0695
   13DOPE   O11 1562   3.318   2.047   6.799  0.8657 -0.6272 -0.5121
   13DOPE   O12 1563   3.286   1.941   7.012  0.7078  0.2807  0.1135
   13DOPE    C1 1564   3.426   1.997   6.720 -0.1621 -0.1881  0.0508
   13DOPE    HA 1565   3.467   1.904   6.762  0.5342  0.5169  0.9733
   13DOPE    HB 1566   3.509   2.070   6.728 -0.8040  0.4743  0.9654
   13DOPE    C2 1567   3.389   1.999   6.574  0.8539 -0.2951 -0.5109
   13DOPE    HS 1568   3.294   1.945   6.558  1.1179 -0.6788 -0.8193
   13DOPE   O21 1569   3.500   1.944   6.494 -0.0813 -0.6598 -0.0553
   13DOPE   C21 1570   3.487   1.822   6.465 -0.4573 -0.0032  0.3025
   13DOPE   O22 1571   3.397   1.745   6.494  0.1587 -0.5033  0.0286
   13DOPE   C22 1572   3.614   1.773   6.396  0.0887  0.6441  0.4949
   13DOPE   H2R 1573   3.600   1.668   6.361  3.8462  0.0114  0.5081
   13DOPE   H2S 1574   3.697   1.770   6.470  1.1481  1.1218 -0.6496
   13DOPE    C3 1575   3.362   2.143   6.523  0.1475 -0.0121  0.2959
   13DOPE    HX 1576   3.433   2.213   6.572  0.9029 -0.1298 -0.5868
   13DOPE    HY 1577   3.261   2.174   6.558  0.3526 -0.2222  1.0956
   13DOPE   O31 1578   3.376   2.153   6.379 -0.1669 -0.6776  0.4352
   13DOPE   C31 1579   3.268   2.103   6.312  0.5479 -0.9335 -0.5399
   13DOPE   O32 1580   3.163   2.067   6.369  0.4416 -0.1709 -0.0350
   13DOPE   C32 1581   3.304   2.092   6.155  0.0724 -0.3393 -0.0075
   13DOPE   H2X 1582   3.413   2.110   6.143  0.0784  0.4491  1.1239
   13DOPE   H2Y 1583   3.289   1.988   6.118  3.7119 -1.0923  0.2680
   13DOPE   C23 1584   3.646   1.852   6.262  0.7169 -0.5222 -0.6540
   13DOPE   H3R 1585   3.751   1.835   6.230  1.5960  0.7413  1.3449
   13DOPE   H3S 1586   3.638   1.962   6.276  1.0434 -0.1117 -3.2016
   13DOPE   C24 1587   3.553   1.806   6.147 -0.1218  0.1785  0.0615
   13DOPE   H4R 1588   3.454   1.852   6.162  0.6531  1.7855  0.3920
   13DOPE   H4S 1589   3.549   1.695   6.150 -0.7767  0.2144  0.7210
   13DOPE   C25 1590   3.601   1.855   6.011  0.5575  0.1950  0.4127
   13DOPE   H5R 1591   3.699   1.807   5.989  0.1054 -0.3174 -0.5785
   13DOPE   H5S 1592   3.612   1.966   6.006  0.5726  0.1806  0.1113
   13DOPE   C26 1593   3.499   1.819   5.905 -0.4290 -0.0231 -0.0584
   13DOPE   H6R 1594   3.396   1.853   5.930  0.9279  1.9259  3.7537
   13DOPE   H6S 1595   3.506   1.708   5.910 -0.4132 -0.0002  0.4857
   13DOPE   C27 1596   3.546   1.852   5.759 -0.0392 -0.3735  0.7300
   13DOPE   H7R 1597   3.644   1.802   5.745  0.4156 -0.1380  2.7812
   13DOPE   H7S 1598   3.577   1.958   5.756 -0.6951 -0.2073 -1.1790
   13DOPE   C28 1599   3.438   1.835   5.656 -0.1849 -0.3694  0.3837
   13DOPE   H8R 1600   3.396   1.732   5.662 -1.2686  0.1444  3.9701
   13DOPE   H8S 1601   3.473   1.856   5.553 -2.4268 -0.1293 -0.3860
   13DOPE   C29 1602   3.325   1.939   5.672 -0.3244  0.4329 -0.1550
   13DOPE   H9R 1603   3.343   2.027   5.736  2.3066 -0.7554  0.8740
   13DOPE  C210 1604   3.212   1.930   5.606  0.2273 -0.1373  0.9289
   13DOPE  H10R 1605   3.128   1.995   5.634 -1.0442 -1.3303  0.0476
   13DOPE  C211 1606   3.171   1.821   5.510 -0.5110  0.1891 -0.9022
   13DOPE  H11R 1607   3.073   1.777   5.540  0.4358 -1.3261  0.1081
   13DOPE  H11S 1608   3.247   1.740   5.519 -0.3955  0.3558 -0.2670
   13DOPE  C212 1609   3.158   1.885   5.376  0.0329  0.3737  0.0321
   13DOPE  H12R 1610   3.151   1.797   5.308 -1.2649 -0.7011  1.4878
   13DOPE  H12S 1611   3.257   1.929   5.353  1.4575 -1.2416  2.5918
   13DOPE  C213 1612   3.045   1.978   5.349  0.3080  0.1037 -0.7273
   13DOPE  H13R 1613   3.045   2.060   5.424  1.5117 -1.5392  1.1496
   13DOPE  H13S 1614   2.950   1.923   5.365  0.7864 -0.6914 -0.5482
   13DOPE  C214 1615   3.042   2.033   5.204 -0.5036 -0.9206 -0.4123
   13DOPE  H14R 1616   3.023   1.954   5.128 -3.9742 -0.9729  0.3158
   13DOPE  H14S 1617   3.140   2.084   5.191 -0.9408  0.7519  2.0157
   13DOPE  C215 1618   2.929   2.134   5.199  0.0743 -0.6849  0.1105
   13DOPE  H15R 1619   2.945   2.203   5.284  3.1745  1.3039 -1.8519
   13DOPE  H15S 1620   2.823   2.101   5.190 -1.2804  2.3959  2.8704
   13DOPE  C216 1621   2.937   2.236   5.083 -0.0513 -0.3524  0.3624
   13DOPE  H16R 1622   2.910   2.202   4.982  0.3908 -0.5001  0.2917
   13DOPE  H16S 1623   3.042   2.275   5.079 -0.0400 -0.3625  0.5459
   13DOPE  C217 1624   2.828   2.350   5.104 -0.2703  0.3292 -0.4514
   13DOPE  H17R 1625   2.846   2.437   5.038  1.5923  1.6722  1.6561
   13DOPE  H17S 1626   2.846   2.385   5.208 -0.3957  0.2037 -0.3870
   13DOPE  C218 1627   2.684   2.311   5.086  0.4652 -0.1154  0.5238
   13DOPE  H18R 1628   2.643   2.282   5.186  0.7899 -2.0355  0.1372
   13DOPE  H18S 1629   2.685   2.226   5.015  0.2424 -0.1719  0.5854
   13DOPE  H18T 1630   2.629   2.402   5.053 -1.4669 -0.6703  1.9779
   13DOPE   C33 1631   3.220   2.202   6.087 -0.0493  0.1660  0.3450
   13DOPE   H3X 1632   3.260   2.226   5.985  0.8703 -3.0969 -0.1633
   13DOPE   H3Y 1633   3.228   2.299   6.140 -0.7372  0.6581 -0.4213
   13DOPE   C34 1634   3.070   2.167   6.071  0.6979  0.1339  0.4619
   13DOPE   H4X 1635   3.036   2.118   6.164 -0.6050 -0.5240 -0.3331
   13DOPE   H4Y 1636   3.007   2.259   6.064  1.4737  1.0409  3.8373
   13DOPE   C35 1637   3.042   2.066   5.954 -0.8359  0.0487 -0.0421
   13DOPE   H5X 1638   3.097   1.970   5.951 -1.8745 -0.5944  0.9504
   13DOPE   H5Y 1639   3.066   2.122   5.861 -3.0264  0.6185 -0.3052
   13DOPE   C36 1640   2.894   2.028   5.937 -0.3281 -0.0137  0.7619
   13DOPE   H6X 1641   2.844   2.127   5.946 -1.0470 -0.2763 -0.0847
   13DOPE   H6Y 1642   2.862   1.959   6.018  1.5922 -1.4188  0.3963
   13DOPE   C37 1643   2.869   1.950   5.803  0.3460 -0.1276 -0.0289
   13DOPE   H7X 1644   2.879   2.015   5.713 -2.6231  1.2321  0.5051
   13DOPE   H7Y 1645   2.957   1.886   5.784  1.8816  2.1497 -1.1229
   13DOPE   C38 1646   2.721   1.896   5.795 -0.2072 -0.2721  0.3961
   13DOPE   H8X 1647   2.638   1.968   5.811  0.1147  0.6681 -1.8218
   13DOPE   H8Y 1648   2.701   1.818   5.872  0.1208 -1.5375 -0.7571
   13DOPE   C39 1649   2.698   1.817   5.669  0.4661 -0.8483 -0.3115
   13DOPE   H9X 1650   2.795   1.788   5.627 -0.6699 -1.9387 -2.3403
   13DOPE  C310 1651   2.588   1.796   5.595 -0.4197 -0.4593 -0.0457
   13DOPE  H10X 1652   2.596   1.719   5.517  1.3342 -1.0636  0.6932
   13DOPE  C311 1653   2.454   1.845   5.627 -0.3374  0.5158  0.0878
   13DOPE  H11X 1654   2.443   1.896   5.725 -0.8123  1.3001 -0.3574
   13DOPE  H11Y 1655   2.438   1.924   5.550 -0.2799  1.8662  1.4227
   13DOPE  C312 1656   2.334   1.747   5.615 -0.1369  0.0605  0.0596
   13DOPE  H12X 1657   2.249   1.812   5.646 -0.1172 -0.0219  0.2832
   13DOPE  H12Y 1658   2.355   1.667   5.689  0.4124 -0.8012 -1.0086
   13DOPE  C313 1659   2.315   1.697   5.479  0.5063 -0.1277  0.8190
   13DOPE  H13X 1660   2.298   1.780   5.407  0.2437  0.1017  1.1484
   13DOPE  H13Y 1661   2.406   1.638   5.454  1.1552  0.9381  0.6307
   13DOPE  C314 1662   2.192   1.604   5.473  0.1895  0.4911  0.3392
   13DOPE  H14X 1663   2.098   1.661   5.483  0.2992  1.6462 -3.5945
   13DOPE  H14Y 1664   2.201   1.527   5.553  1.3300  0.2018 -0.0457
   13DOPE  C315 1665   2.171   1.506   5.346 -0.4168  0.3685  0.0971
   13DOPE  H15X 1666   2.166   1.560   5.249 -1.2796 -2.6065 -1.6547
   13DOPE  H15Y 1667   2.075   1.449   5.354 -0.8296  1.2408  1.6142
   13DOPE  C316 1668   2.285   1.402   5.323 -0.5898 -0.3652 -0.0404
   13DOPE  H16X 1669   2.298   1.348   5.419 -0.6049 -1.9684 -0.9048
   13DOPE  H16Y 1670   2.380   1.456   5.303 -1.0118  0.6711  0.6756
   13DOPE  C317 1671   2.265   1.308   5.215 -0.0518  0.1207 -0.4366
   13DOPE  H17X 1672   2.329   1.218   5.225 -0.2823 -0.0655 -0.6088
   13DOPE  H17Y 1673   2.161   1.269   5.220  0.4506 -1.1382  0.7214
   13DOPE  C318 1674   2.294   1.353   5.069 -0.5159 -0.1454  0.3789
   13DOPE  H18X 1675   2.390   1.319   5.023 -0.0509  0.7304  0.6907
   13DOPE  H18Y 1676   2.223   1.299   5.002  1.2960 -2.5820  0.2519
   13DOPE  H18Z 1677   2.294   1.462   5.052 -0.0444 -0.3254 -0.9467
   14DOPE     N 1678   6.259   4.107   7.703 -0.1241  0.3077  0.1124
   14DOPE   HN1 1679   6.172   4.060   7.734 -1.2076  2.0860 -0.0594
   14DOPE   HN2 1680   6.268   4.189   7.767  0.4535 -0.1584  0.6452
   14DOPE   HN3 1681   6.246   4.139   7.605  2.9916 -1.4104 -1.0088
   14DOPE   C12 1682   6.375   4.007   7.717 -0.2391 -0.1678 -0.3988
   14DOPE  H12A 1683   6.343   3.921   7.654  0.7751 -0.2147 -0.8727
   14DOPE  H12B 1684   6.386   3.987   7.826 -0.0796  0.6032 -0.2687
   14DOPE   C11 1685   6.512   4.080   7.669 -0.0337  0.5212  0.1563
   14DOPE  H11A 1686   6.495   4.094   7.560  0.1312  0.4752  0.1236
   14DOPE  H11B 1687   6.596   4.007   7.680 -1.7190 -1.5938 -0.3071
   14DOPE     P 1688   6.689   4.257   7.722 -0.2200  0.1303 -0.2621
   14DOPE   O13 1689   6.803   4.163   7.717 -0.5242  0.1464 -0.2941
   14DOPE   O14 1690   6.705   4.373   7.813  0.1828 -0.5588  0.1726
   14DOPE   O11 1691   6.679   4.298   7.567 -0.5258 -0.8419 -0.1922
   14DOPE   O12 1692   6.547   4.193   7.747  0.1789  0.1333  0.6345
   14DOPE    C1 1693   6.599   4.397   7.507 -0.0991 -0.6362  0.2411
   14DOPE    HA 1694   6.664   4.483   7.480 -0.0894 -0.4042  0.9882
   14DOPE    HB 1695   6.538   4.442   7.588  0.7293 -1.0163  1.0896
   14DOPE    C2 1696   6.516   4.360   7.387 -0.5377  0.0086  0.3421
   14DOPE    HS 1697   6.465   4.263   7.406 -0.6067 -0.3992 -1.7116
   14DOPE   O21 1698   6.605   4.355   7.273 -0.0871 -0.4524  0.0388
   14DOPE   C21 1699   6.595   4.256   7.190 -0.1023  0.6176  0.3218
   14DOPE   O22 1700   6.506   4.175   7.197  0.4380  0.0721  0.4749
   14DOPE   C22 1701   6.712   4.251   7.093 -0.2411 -0.2559 -0.5024
   14DOPE   H2R 1702   6.794   4.192   7.141  0.9063  1.9004  0.3052
   14DOPE   H2S 1703   6.747   4.353   7.070 -0.8539  0.1741  0.4171
   14DOPE    C3 1704   6.399   4.462   7.352  0.5885  0.4187  1.4550
   14DOPE    HX 1705   6.444   4.564   7.356  0.7042  0.3567  1.8026
   14DOPE    HY 1706   6.324   4.461   7.434 -0.6792  1.0654  0.3504
   14DOPE   O31 1707   6.349   4.437   7.212  0.6004 -0.3895  0.2409
   14DOPE   C31 1708   6.256   4.345   7.212  0.0037 -0.0194 -0.4610
   14DOPE   O32 1709   6.215   4.288   7.308 -0.3278  0.4461 -0.2253
   14DOPE   C32 1710   6.208   4.319   7.071  0.2179  0.0432 -0.4213
   14DOPE   H2X 1711   6.191   4.421   7.032 -0.7023  0.0960  0.0964
   14DOPE   H2Y 1712   6.288   4.255   7.027 -0.7177 -2.7690  1.6509
   14DOPE   C23 1713   6.679   4.175   6.968 -0.1608  0.2522  0.0039
   14DOPE   H3R 1714   6.599   4.223   6.907 -0.7633  3.2451  2.8894
   14DOPE   H3S 1715   6.631   4.080   6.999 -1.3391  1.0801  0.8050
   14DOPE   C24 1716   6.802   4.138   6.884  0.0801 -0.4749  0.7440
   14DOPE   H4R 1717   6.874   4.087   6.952  1.5691  0.5569 -0.0142
   14DOPE   H4S 1718   6.860   4.223   6.842 -2.1049  1.6980  1.8872
   14DOPE   C25 1719   6.772   4.025   6.781 -0.1590 -0.5580 -0.2355
   14DOPE   H5R 1720   6.685   4.050   6.717 -0.3553 -1.3640 -0.2992
   14DOPE   H5S 1721   6.755   3.930   6.836 -0.6540 -0.2427  0.1672
   14DOPE   C26 1722   6.898   3.989   6.706 -0.0922  0.4915 -0.0177
   14DOPE   H6R 1723   6.986   3.977   6.773  0.6738  0.7829 -0.9446
   14DOPE   H6S 1724   6.910   4.074   6.635 -1.6956 -0.2915 -1.2878
   14DOPE   C27 1725   6.891   3.857   6.622  0.7519 -0.0880  0.5842
   14DOPE   H7R 1726   6.796   3.865   6.566  1.1147  0.4167  0.0308
   14DOPE   H7S 1727   6.890   3.777   6.699 -4.1685  0.2041  1.1080
   14DOPE   C28 1728   7.006   3.840   6.522  0.0323  0.4910  0.6234
   14DOPE   H8R 1729   7.096   3.793   6.567  0.3107 -0.1781 -0.5768
   14DOPE   H8S 1730   7.033   3.945   6.498 -0.6119 -0.0435 -3.1834
   14DOPE   C29 1731   6.977   3.761   6.399  0.3175  0.5489  0.5194
   14DOPE   H9R 1732   6.970   3.652   6.409  2.5906  0.4027  1.0572
   14DOPE  C210 1733   6.964   3.818   6.279  0.3194  0.3168  0.3055
   14DOPE  H10R 1734   6.948   3.751   6.194 -2.0402  0.2483  0.7200
   14DOPE  C211 1735   6.962   3.965   6.241 -0.2664  0.1897  0.0368
   14DOPE  H11R 1736   7.068   3.994   6.221 -0.3326  1.4062  1.2736
   14DOPE  H11S 1737   6.916   4.010   6.331 -0.2689  0.5873 -0.1630
   14DOPE  C212 1738   6.864   3.990   6.125 -0.3124 -0.3857  0.1795
   14DOPE  H12R 1739   6.874   3.918   6.041 -0.1057 -0.7474  0.5125
   14DOPE  H12S 1740   6.871   4.093   6.084 -1.1444  0.1590  1.3239
   14DOPE  C213 1741   6.718   3.987   6.172 -0.0878 -0.0575  0.2835
   14DOPE  H13R 1742   6.699   4.072   6.240 -0.1248 -0.1271  0.3605
   14DOPE  H13S 1743   6.696   3.891   6.223  0.1486 -0.5987 -0.6030
   14DOPE  C214 1744   6.622   4.005   6.047 -0.4960 -0.0445 -0.1712
   14DOPE  H14R 1745   6.666   3.943   5.966  0.5836 -3.2429  2.6181
   14DOPE  H14S 1746   6.621   4.112   6.017  2.1216  0.1204  0.0303
   14DOPE  C215 1747   6.482   3.962   6.077  0.5172  0.1172 -0.1698
   14DOPE  H15R 1748   6.436   4.042   6.139  0.7057 -0.6583  1.0084
   14DOPE  H15S 1749   6.481   3.867   6.134 -0.3931 -0.3842 -0.9866
   14DOPE  C216 1750   6.402   3.955   5.941  0.6840 -0.1071 -0.0140
   14DOPE  H16R 1751   6.455   3.889   5.869  0.6951 -1.2703  1.0190
   14DOPE  H16S 1752   6.405   4.056   5.895 -0.0162  0.0277  0.2339
   14DOPE  C217 1753   6.253   3.924   5.962  0.4989 -1.2587 -0.3965
   14DOPE  H17R 1754   6.209   3.984   6.045 -0.2853 -1.9732 -0.2837
   14DOPE  H17S 1755   6.237   3.821   6.000 -1.8541 -1.0440 -0.6700
   14DOPE  C218 1756   6.153   3.939   5.843 -0.0564 -0.6726  0.4012
   14DOPE  H18R 1757   6.202   3.889   5.757  0.7887 -1.7221  1.4548
   14DOPE  H18S 1758   6.129   4.045   5.819 -0.1803 -0.6992  0.4118
   14DOPE  H18T 1759   6.061   3.882   5.869 -0.7428  0.4690  0.5318
   14DOPE   C33 1760   6.078   4.243   7.071  0.4624  0.8987  0.3833
   14DOPE   H3X 1761   5.994   4.308   7.106  0.6343  0.6086  1.3809
   14DOPE   H3Y 1762   6.088   4.164   7.149 -0.6299  1.4921  1.1571
   14DOPE   C34 1763   6.031   4.181   6.942 -0.5800  0.1809  0.2142
   14DOPE   H4X 1764   6.101   4.104   6.904  0.1971  0.9232  0.1294
   14DOPE   H4Y 1765   5.937   4.123   6.956  0.2369 -0.7385  2.2760
   14DOPE   C35 1766   5.987   4.284   6.828 -0.5083 -0.2875  0.2810
   14DOPE   H5X 1767   5.932   4.371   6.870 -0.6263 -0.6105  0.8066
   14DOPE   H5Y 1768   5.919   4.218   6.771 -0.5391  0.0591 -0.0916
   14DOPE   C36 1769   6.108   4.324   6.752  0.5642  0.6232 -0.4609
   14DOPE   H6X 1770   6.171   4.235   6.733 -0.0561  0.5188 -2.2169
   14DOPE   H6Y 1771   6.157   4.400   6.816 -1.0415  2.1520 -0.9717
   14DOPE   C37 1772   6.090   4.372   6.613  0.0539 -0.6350  0.4225
   14DOPE   H7X 1773   6.186   4.375   6.557  0.4662 -2.7242  0.9120
   14DOPE   H7Y 1774   6.027   4.303   6.553  0.2288 -1.4502  1.1445
   14DOPE   C38 1775   6.039   4.521   6.626 -0.2099  0.8407 -0.1933
   14DOPE   H8X 1776   6.123   4.582   6.669  0.8137 -0.3261 -0.4931
   14DOPE   H8Y 1777   5.952   4.520   6.695 -0.1770 -0.0322 -0.1616
   14DOPE   C39 1778   5.995   4.583   6.491 -0.1697  0.1420  1.2854
   14DOPE   H9X 1779   5.887   4.584   6.470  0.1162  0.0947 -0.3306
   14DOPE  C310 1780   6.080   4.628   6.393 -0.2380 -0.0708 -0.0245
   14DOPE  H10X 1781   6.029   4.649   6.298  1.8615  1.7294 -0.8308
   14DOPE  C311 1782   6.228   4.640   6.398 -0.2727  0.3239 -0.8767
   14DOPE  H11X 1783   6.248   4.663   6.505  1.2815  1.6576 -1.4233
   14DOPE  H11Y 1784   6.291   4.553   6.369  0.9708  0.7546  0.4136
   14DOPE  C312 1785   6.273   4.770   6.336 -0.1947 -0.3276  0.3719
   14DOPE  H12X 1786   6.373   4.792   6.379 -0.0118 -0.3827 -0.0169
   14DOPE  H12Y 1787   6.203   4.850   6.366 -0.9282 -1.4216  1.6898
   14DOPE  C313 1788   6.295   4.761   6.187  0.0985 -0.3116 -0.0005
   14DOPE  H13X 1789   6.361   4.673   6.172 -0.2426 -0.5374 -0.1678
   14DOPE  H13Y 1790   6.198   4.730   6.143 -0.5713  1.5106  0.0871
   14DOPE  C314 1791   6.321   4.896   6.127  0.2744 -0.6659 -0.4790
   14DOPE  H14X 1792   6.410   4.949   6.168  1.6452 -0.8222 -3.0679
   14DOPE  H14Y 1793   6.229   4.953   6.153  0.1548 -1.2017  0.3315
   14DOPE  C315 1794   6.331   4.899   5.974 -0.9306 -0.0509 -0.0741
   14DOPE  H15X 1795   6.235   4.867   5.928 -1.4056 -0.6678  1.2878
   14DOPE  H15Y 1796   6.403   4.819   5.949  0.5488  1.3931 -0.6251
   14DOPE  C316 1797   6.390   5.021   5.909  0.0934  0.0049  0.2463
   14DOPE  H16X 1798   6.429   4.987   5.810 -2.9738  1.9297 -1.8153
   14DOPE  H16Y 1799   6.468   5.070   5.971  1.0556 -0.6580 -0.3910
   14DOPE  C317 1800   6.284   5.121   5.880 -0.2831  0.2761  0.3433
   14DOPE  H17X 1801   6.205   5.069   5.821  0.7039 -0.1899 -0.5962
   14DOPE  H17Y 1802   6.248   5.153   5.980  1.3296  0.9569  0.7369
   14DOPE  C318 1803   6.335   5.232   5.797 -0.2063 -0.1097 -1.0762
   14DOPE  H18X 1804   6.249   5.299   5.777 -0.3355  0.6344  1.5626
   14DOPE  H18Y 1805   6.410   5.288   5.857  0.4341 -0.1847 -1.7940
   14DOPE  H18Z 1806   6.388   5.197   5.706 -0.8902  0.6631 -1.7885
   15DOPE     N 1807   1.675   1.906   7.081  0.0542  0.3582  0.0031
   15DOPE   HN1 1808   1.769   1.879   7.046 -0.5116 -1.7927  0.0366
   15DOPE   HN2 1809   1.686   2.000   7.124  0.4940  0.1304  0.3972
   15DOPE   HN3 1810   1.641   1.838   7.152 -2.2347 -0.7573 -2.0256
   15DOPE   C12 1811   1.576   1.900   6.968 -0.3090  0.0440 -0.1305
   15DOPE  H12A 1812   1.622   1.961   6.887  1.1044 -1.5648 -0.5988
   15DOPE  H12B 1813   1.485   1.949   7.008 -0.6707 -2.3574  2.2049
   15DOPE   C11 1814   1.552   1.760   6.919 -0.0792  0.2684  0.5471
   15DOPE  H11A 1815   1.486   1.755   6.830 -0.7702 -0.0795  1.0714
   15DOPE  H11B 1816   1.513   1.702   7.005 -0.8853 -1.5834 -0.9721
   15DOPE     P 1817   1.702   1.557   6.867  0.0471  0.3583 -0.2725
   15DOPE   O13 1818   1.609   1.488   6.775 -0.0707 -0.3868  0.5678
   15DOPE   O14 1819   1.721   1.489   7.001  0.3488 -0.3510 -0.2358
   15DOPE   O11 1820   1.844   1.559   6.797 -0.5011 -0.2457  0.3288
   15DOPE   O12 1821   1.678   1.705   6.885 -0.0336 -0.0733 -0.1700
   15DOPE    C1 1822   1.932   1.670   6.777 -0.1103  0.3556 -0.1550
   15DOPE    HA 1823   2.035   1.630   6.788  0.3609  1.2712 -1.0079
   15DOPE    HB 1824   1.920   1.760   6.841 -1.2612  1.3556 -1.6806
   15DOPE    C2 1825   1.919   1.729   6.629  0.3382 -0.5870 -0.1788
   15DOPE    HS 1826   1.991   1.811   6.609 -1.3444  0.5865 -1.7257
   15DOPE   O21 1827   1.792   1.776   6.591 -0.1373  0.6157  0.3262
   15DOPE   C21 1828   1.745   1.884   6.654 -0.5044  0.0270  0.5829
   15DOPE   O22 1829   1.808   1.949   6.739  0.2257 -0.6268 -0.5090
   15DOPE   C22 1830   1.607   1.926   6.605  0.3257  0.0503 -0.2401
   15DOPE   H2R 1831   1.562   1.974   6.694 -1.4286  1.9519 -2.0325
   15DOPE   H2S 1832   1.544   1.837   6.582 -1.2209  1.3849 -1.3693
   15DOPE    C3 1833   1.968   1.615   6.531  0.1377  0.0423 -0.1926
   15DOPE    HX 1834   1.889   1.537   6.530  1.0830 -0.9378 -2.0534
   15DOPE    HY 1835   2.065   1.580   6.572 -0.9311 -2.1071  0.6312
   15DOPE   O31 1836   2.004   1.666   6.399 -0.8310  0.1058  0.2408
   15DOPE   C31 1837   1.912   1.647   6.298  0.5292  0.2931  0.0907
   15DOPE   O32 1838   1.800   1.598   6.306 -0.6577 -0.1254  0.3291
   15DOPE   C32 1839   1.958   1.723   6.173 -0.2966  0.5453 -0.2652
   15DOPE   H2X 1840   1.939   1.830   6.196 -1.0551  0.3941 -0.1673
   15DOPE   H2Y 1841   2.065   1.711   6.148 -0.8401 -1.5374 -1.8732
   15DOPE   C23 1842   1.612   2.027   6.494 -0.3268  0.6975  0.0752
   15DOPE   H3R 1843   1.702   2.090   6.506  0.0479  0.4220 -1.1680
   15DOPE   H3S 1844   1.517   2.086   6.498 -1.1177 -0.6143  2.5499
   15DOPE   C24 1845   1.627   1.946   6.364  0.0774  0.3931 -0.2070
   15DOPE   H4R 1846   1.533   1.892   6.341 -0.1968  0.9279 -0.3603
   15DOPE   H4S 1847   1.713   1.878   6.381 -1.1566 -1.2155 -0.2359
   15DOPE   C25 1848   1.664   2.043   6.251  0.3624  0.2044  0.3687
   15DOPE   H5R 1849   1.697   1.979   6.166  0.4826 -0.6547  1.0535
   15DOPE   H5S 1850   1.729   2.130   6.278 -0.2201  0.4659  0.9655
   15DOPE   C26 1851   1.537   2.123   6.203  0.1411  0.4943  0.0783
   15DOPE   H6R 1852   1.516   2.205   6.275 -1.4819  0.3833 -0.2350
   15DOPE   H6S 1853   1.449   2.056   6.201  0.4320  0.0702  0.9749
   15DOPE   C27 1854   1.543   2.170   6.054 -0.2739 -0.3359 -0.0008
   15DOPE   H7R 1855   1.649   2.184   6.024 -0.0083 -0.1365  0.9962
   15DOPE   H7S 1856   1.491   2.266   6.036 -0.1030 -0.4252 -1.0110
   15DOPE   C28 1857   1.490   2.070   5.944  0.3973  0.1417 -0.2627
   15DOPE   H8R 1858   1.494   2.129   5.851  0.9221  0.8939  0.2187
   15DOPE   H8S 1859   1.383   2.056   5.971  1.1211 -2.4010  1.7756
   15DOPE   C29 1860   1.553   1.932   5.927  0.4075  0.0104 -0.0949
   15DOPE   H9R 1861   1.565   1.877   6.021 -2.7757  0.3666  0.6202
   15DOPE  C210 1862   1.572   1.877   5.802  0.3454 -0.1465 -0.8729
   15DOPE  H10R 1863   1.599   1.770   5.798  0.0071 -0.2608 -0.2161
   15DOPE  C211 1864   1.562   1.949   5.673  0.5418  0.0695  0.7773
   15DOPE  H11R 1865   1.656   2.007   5.660  0.1589  0.5477  0.1234
   15DOPE  H11S 1866   1.472   2.014   5.678  0.3255  0.0630 -1.7860
   15DOPE  C212 1867   1.541   1.870   5.545 -0.3743 -0.0082 -0.7538
   15DOPE  H12R 1868   1.618   1.791   5.534 -2.1562 -1.8002 -0.9167
   15DOPE  H12S 1869   1.544   1.938   5.457 -0.8598 -0.0306 -0.7900
   15DOPE  C213 1870   1.414   1.787   5.542  0.5092 -0.2827  0.1922
   15DOPE  H13R 1871   1.343   1.842   5.607 -0.0353  0.0938 -0.6997
   15DOPE  H13S 1872   1.422   1.683   5.580 -1.1166 -1.9056 -3.4497
   15DOPE  C214 1873   1.358   1.775   5.396 -0.2427  0.0328 -0.2445
   15DOPE  H14R 1874   1.402   1.683   5.353  1.7728  0.6113  0.5082
   15DOPE  H14S 1875   1.378   1.866   5.335 -1.0531  0.0440 -0.5168
   15DOPE  C215 1876   1.205   1.757   5.397  0.5637  0.4024  0.0446
   15DOPE  H15R 1877   1.156   1.854   5.418 -3.2429 -1.7549  2.3825
   15DOPE  H15S 1878   1.167   1.688   5.476 -0.1403  0.2954 -0.3821
   15DOPE  C216 1879   1.152   1.723   5.254 -0.0585  0.3354  0.3358
   15DOPE  H16R 1880   1.169   1.813   5.191  2.7899 -2.3332 -3.1378
   15DOPE  H16S 1881   1.043   1.704   5.260  0.3233 -1.8257  1.2846
   15DOPE  C217 1882   1.213   1.597   5.191 -0.2413  0.2300 -0.1445
   15DOPE  H17R 1883   1.243   1.526   5.272  1.6045 -0.8795 -1.7081
   15DOPE  H17S 1884   1.315   1.616   5.152 -1.5937  0.3613 -4.0331
   15DOPE  C218 1885   1.119   1.524   5.091  0.4451 -0.5926 -0.3543
   15DOPE  H18R 1886   1.159   1.421   5.084  1.6522 -0.2107  0.3778
   15DOPE  H18S 1887   1.107   1.575   4.993 -0.6018 -1.0870 -0.4836
   15DOPE  H18T 1888   1.019   1.523   5.138  0.7173 -1.7440  0.2309
   15DOPE   C33 1889   1.884   1.676   6.050 -0.4876  0.4457  0.1479
   15DOPE   H3X 1890   1.885   1.752   5.970  0.0676  1.4456  1.0825
   15DOPE   H3Y 1891   1.778   1.648   6.066 -0.1075 -0.4232  1.3200
   15DOPE   C34 1892   1.952   1.558   5.985 -0.6047  0.1735 -0.4078
   15DOPE   H4X 1893   2.061   1.555   6.009  0.0446  0.0760 -3.0642
   15DOPE   H4Y 1894   1.917   1.469   6.041 -0.2403  1.5229  2.1037
   15DOPE   C35 1895   1.938   1.543   5.834  0.2179  0.1544 -1.0383
   15DOPE   H5X 1896   2.009   1.617   5.791 -1.1638  1.3790 -1.2894
   15DOPE   H5Y 1897   1.834   1.571   5.805 -0.5406 -0.6789  0.7421
   15DOPE   C36 1898   1.982   1.404   5.779 -0.0838 -0.2553  0.0272
   15DOPE   H6X 1899   1.965   1.403   5.669  0.3785 -1.8575 -0.0534
   15DOPE   H6Y 1900   1.903   1.333   5.810 -0.1358  0.2668  1.1300
   15DOPE   C37 1901   2.127   1.368   5.802  0.6360 -0.7513  0.5163
   15DOPE   H7X 1902   2.191   1.440   5.747 -1.4889 -0.3600 -1.6134
   15DOPE   H7Y 1903   2.160   1.381   5.908  0.9700 -2.4997  0.6574
   15DOPE   C38 1904   2.165   1.228   5.753 -0.5869  0.1103  0.6713
   15DOPE   H8X 1905   2.168   1.225   5.642 -2.5634  2.3636  0.4559
   15DOPE   H8Y 1906   2.087   1.152   5.773 -1.5156  0.7457 -0.3849
   15DOPE   C39 1907   2.296   1.186   5.821  0.4522 -0.6216  0.4956
   15DOPE   H9X 1908   2.281   1.119   5.907  1.0977 -0.3600  0.8195
   15DOPE  C310 1909   2.421   1.218   5.791 -0.5451  0.1210 -0.1473
   15DOPE  H10X 1910   2.497   1.178   5.859 -0.3570  0.8202  0.0583
   15DOPE  C311 1911   2.485   1.312   5.692 -0.1590 -0.2067 -0.6691
   15DOPE  H11X 1912   2.570   1.262   5.640  0.7001  0.4338  0.0972
   15DOPE  H11Y 1913   2.417   1.362   5.619 -0.0353  0.6678 -0.1991
   15DOPE  C312 1914   2.543   1.441   5.763 -0.2348  0.1060  0.5648
   15DOPE  H12X 1915   2.464   1.476   5.832  0.5691 -1.0480  2.1354
   15DOPE  H12Y 1916   2.576   1.511   5.683  0.8473  0.3193  1.1749
   15DOPE  C313 1917   2.663   1.410   5.849  0.8903  0.3224 -0.1179
   15DOPE  H13X 1918   2.625   1.361   5.941  0.6383 -0.0563 -0.4230
   15DOPE  H13Y 1919   2.730   1.339   5.797 -0.7991 -0.2817 -1.5682
   15DOPE  C314 1920   2.725   1.538   5.903 -0.1039 -0.1644 -1.0185
   15DOPE  H14X 1921   2.649   1.612   5.934  1.4446  0.7305  0.9236
   15DOPE  H14Y 1922   2.788   1.591   5.828  1.0696  1.0286  0.6929
   15DOPE  C315 1923   2.818   1.516   6.023  0.3078 -0.1851 -0.1041
   15DOPE  H15X 1924   2.898   1.443   5.996  0.1983 -0.6186  0.7134
   15DOPE  H15Y 1925   2.756   1.478   6.107  0.3287 -3.9757 -1.5853
   15DOPE  C316 1926   2.891   1.646   6.055  0.1943  0.0062 -0.3742
   15DOPE  H16X 1927   2.822   1.708   6.116  0.7267 -0.2404  0.5040
   15DOPE  H16Y 1928   2.906   1.703   5.961  0.6587 -1.9897 -1.5561
   15DOPE  C317 1929   3.018   1.620   6.133 -0.0919 -0.1854  0.5186
   15DOPE  H17X 1930   2.981   1.552   6.212  1.9053 -0.5132  1.2411
   15DOPE  H17Y 1931   3.095   1.567   6.072  0.5815  0.9544  0.3506
   15DOPE  C318 1932   3.083   1.744   6.198  0.6037 -0.6520  0.1600
   15DOPE  H18X 1933   3.119   1.817   6.123 -1.1163  1.6377  1.4368
   15DOPE  H18Y 1934   3.005   1.801   6.253  1.0894 -0.6241  0.8421
   15DOPE  H18Z 1935   3.169   1.711   6.260  1.2175 -0.3260 -0.5033
   16DOPE     N 1936   1.094   3.201   7.662  0.2739  0.1048  0.1856
   16DOPE   HN1 1937   0.992   3.179   7.663 -0.0624  1.1855  3.4466
   16DOPE   HN2 1938   1.142   3.121   7.616 -0.3380  0.4271 -1.0546
   16DOPE   HN3 1939   1.118   3.205   7.763  0.6185  0.3245  0.0944
   16DOPE   C12 1940   1.115   3.338   7.606 -0.9471  0.3835 -0.5937
   16DOPE  H12A 1941   1.207   3.337   7.544 -0.6690 -0.5118 -0.1804
   16DOPE  H12B 1942   1.128   3.396   7.699  1.3567 -1.4066  0.3021
   16DOPE   C11 1943   0.990   3.372   7.521  0.6107  0.0149 -0.3658
   16DOPE  H11A 1944   0.997   3.466   7.463 -1.9897  0.3183 -0.3231
   16DOPE  H11B 1945   0.903   3.384   7.588  1.4004  0.7129  0.5475
   16DOPE     P 1946   0.847   3.263   7.328 -0.3186  0.4608 -0.1836
   16DOPE   O13 1947   0.719   3.259   7.408 -0.2818  0.2882 -0.3379
   16DOPE   O14 1948   0.869   3.164   7.221  0.2049  0.1700 -0.4559
   16DOPE   O11 1949   0.854   3.404   7.253 -0.3232 -0.3407 -0.0230
   16DOPE   O12 1950   0.974   3.269   7.421  0.6405 -0.1822  0.5048
   16DOPE    C1 1951   0.747   3.498   7.257  0.7124  0.4072  0.3856
   16DOPE    HA 1952   0.788   3.600   7.243  0.7293  0.0882 -2.5449
   16DOPE    HB 1953   0.702   3.503   7.359  1.0496 -0.7046  0.6108
   16DOPE    C2 1954   0.629   3.468   7.158 -0.3342  0.4802  0.5425
   16DOPE    HS 1955   0.605   3.362   7.183  0.1827 -0.4111 -2.2960
   16DOPE   O21 1956   0.680   3.473   7.022  0.2783 -0.2026  0.0703
   16DOPE   C21 1957   0.602   3.408   6.940 -0.3433 -0.0915 -0.2787
   16DOPE   O22 1958   0.503   3.343   6.971  0.1889  0.5987 -0.0721
   16DOPE   C22 1959   0.663   3.426   6.807  0.5358  0.3442  0.3213
   16DOPE   H2R 1960   0.771   3.406   6.827  0.6412  0.4177 -0.1656
   16DOPE   H2S 1961   0.653   3.530   6.768  3.0009  0.6027  0.2297
   16DOPE    C3 1962   0.503   3.548   7.186 -0.2221  0.1946  0.5982
   16DOPE    HX 1963   0.468   3.523   7.289 -0.5459 -0.9280  0.2302
   16DOPE    HY 1964   0.425   3.521   7.112 -1.3022  0.9824  1.4215
   16DOPE   O31 1965   0.544   3.683   7.181 -0.0408 -0.1231 -0.7861
   16DOPE   C31 1966   0.446   3.774   7.165  0.0212  0.4656 -1.0431
   16DOPE   O32 1967   0.329   3.745   7.175  0.1842  0.3128 -0.0532
   16DOPE   C32 1968   0.511   3.903   7.132  0.4764 -0.3862 -0.4356
   16DOPE   H2X 1969   0.439   3.980   7.096  1.2784 -0.5314 -2.5260
   16DOPE   H2Y 1970   0.568   3.935   7.221  0.7697 -0.1731 -0.7002
   16DOPE   C23 1971   0.616   3.336   6.695 -0.5282  0.3020 -0.3193
   16DOPE   H3R 1972   0.505   3.337   6.690 -0.5599 -1.9516 -0.7322
   16DOPE   H3S 1973   0.646   3.231   6.711 -0.4720 -0.2579 -3.4707
   16DOPE   C24 1974   0.660   3.372   6.552  0.0123  0.5080 -0.3111
   16DOPE   H4R 1975   0.608   3.460   6.508 -0.7751  0.3230  0.2227
   16DOPE   H4S 1976   0.622   3.292   6.485 -1.9904  2.3443 -1.4880
   16DOPE   C25 1977   0.813   3.369   6.524 -0.6458 -0.5430 -0.4599
   16DOPE   H5R 1978   0.857   3.282   6.577  0.9557 -0.3857 -1.4453
   16DOPE   H5S 1979   0.859   3.458   6.573 -0.3925  0.0483 -1.7253
   16DOPE   C26 1980   0.846   3.366   6.371  1.3219 -1.0439  0.0460
   16DOPE   H6R 1981   0.770   3.301   6.322 -1.9286  1.3902  1.5020
   16DOPE   H6S 1982   0.951   3.341   6.344  1.2913  0.9402 -2.2296
   16DOPE   C27 1983   0.813   3.510   6.315  0.1998  0.3171  0.2056
   16DOPE   H7R 1984   0.856   3.578   6.392  1.0552 -2.1491  2.0294
   16DOPE   H7S 1985   0.703   3.521   6.311  0.0322 -0.3624  2.0862
   16DOPE   C28 1986   0.872   3.519   6.175 -0.1493  0.0348 -0.0922
   16DOPE   H8R 1987   0.826   3.606   6.123  0.8567  0.0619 -0.9704
   16DOPE   H8S 1988   0.836   3.425   6.129 -1.9207 -0.0240  1.2979
   16DOPE   C29 1989   1.025   3.534   6.174  0.1883 -0.0270 -0.8803
   16DOPE   H9R 1990   1.082   3.458   6.228  0.2430  1.4902  1.3044
   16DOPE  C210 1991   1.095   3.620   6.108 -0.1481 -0.2112 -0.3932
   16DOPE  H10R 1992   1.203   3.601   6.101 -0.4421 -1.5897 -1.9709
   16DOPE  C211 1993   1.049   3.742   6.028 -1.0274  0.2864  0.8036
   16DOPE  H11R 1994   1.126   3.821   6.025  0.4511 -1.1449 -0.9387
   16DOPE  H11S 1995   0.967   3.799   6.077 -1.1038  1.4097 -0.5695
   16DOPE  C212 1996   0.998   3.710   5.885  0.0532 -0.6811 -0.9879
   16DOPE  H12R 1997   0.956   3.802   5.839  2.4587  1.7257  1.2641
   16DOPE  H12S 1998   0.913   3.638   5.893 -0.8098  0.3641 -0.5298
   16DOPE  C213 1999   1.101   3.657   5.785 -0.1933  0.2187 -0.1140
   16DOPE  H13R 2000   1.152   3.562   5.812  1.5235  0.6746 -1.5411
   16DOPE  H13S 2001   1.188   3.726   5.777 -1.5461  1.8505 -1.2915
   16DOPE  C214 2002   1.041   3.646   5.645  0.2262  0.7162 -0.2285
   16DOPE  H14R 2003   0.979   3.735   5.620  1.9719  2.3192  0.9247
   16DOPE  H14S 2004   0.969   3.562   5.658  1.7375 -0.7445 -0.9207
   16DOPE  C215 2005   1.157   3.621   5.544  0.3904 -0.1065  0.5038
   16DOPE  H15R 2006   1.200   3.520   5.559 -0.2895 -0.7291 -1.4113
   16DOPE  H15S 2007   1.234   3.701   5.551  1.0569 -0.8568  2.3697
   16DOPE  C216 2008   1.108   3.626   5.393 -0.1689 -0.1423 -0.5119
   16DOPE  H16R 2009   1.035   3.709   5.388 -2.1082 -1.6707  0.7257
   16DOPE  H16S 2010   1.053   3.534   5.364 -0.6557  0.7965 -2.8019
   16DOPE  C217 2011   1.226   3.654   5.292  0.6749  0.0280  0.5756
   16DOPE  H17R 2012   1.312   3.587   5.310  0.5820 -0.3233 -0.2467
   16DOPE  H17S 2013   1.258   3.758   5.314 -3.0886  1.6979 -0.8968
   16DOPE  C218 2014   1.186   3.645   5.141  0.2775  0.4473 -0.3140
   16DOPE  H18R 2015   1.271   3.642   5.069  0.3063 -2.4555 -0.2784
   16DOPE  H18S 2016   1.129   3.739   5.123  0.6645  1.2427  2.2304
   16DOPE  H18T 2017   1.107   3.568   5.128 -1.4375  2.0643  0.0313
   16DOPE   C33 2018   0.604   3.895   7.003  0.2279  0.4228 -0.7929
   16DOPE   H3X 2019   0.674   3.811   7.021  0.9321  0.9266 -1.1093
   16DOPE   H3Y 2020   0.660   3.991   7.009 -3.2332  2.8156 -2.6764
   16DOPE   C34 2021   0.535   3.886   6.867  0.3095  0.8214  0.3853
   16DOPE   H4X 2022   0.487   3.786   6.851 -0.7126  0.9690  2.2103
   16DOPE   H4Y 2023   0.459   3.966   6.859  0.3755  0.7398 -1.4615
   16DOPE   C35 2024   0.632   3.898   6.754 -0.3048  0.2074  0.5244
   16DOPE   H5X 2025   0.724   3.840   6.777 -2.0906 -2.0223  2.4779
   16DOPE   H5Y 2026   0.659   4.005   6.744  1.2813  0.1886  3.5710
   16DOPE   C36 2027   0.585   3.841   6.615 -0.5218 -0.3074  0.3856
   16DOPE   H6X 2028   0.478   3.866   6.601 -0.0735  0.5479 -1.9474
   16DOPE   H6Y 2029   0.589   3.731   6.602  0.6124 -0.1435 -0.8465
   16DOPE   C37 2030   0.661   3.890   6.491  0.0309  0.0072 -0.0261
   16DOPE   H7X 2031   0.641   3.998   6.477 -1.0519 -0.3412 -1.4833
   16DOPE   H7Y 2032   0.770   3.876   6.507 -0.2063 -0.8500  1.0174
   16DOPE   C38 2033   0.617   3.804   6.373  0.2377 -0.3734  0.4285
   16DOPE   H8X 2034   0.508   3.819   6.360  0.2587  1.8535  2.1813
   16DOPE   H8Y 2035   0.634   3.699   6.406  0.8515 -0.0963  1.0163
   16DOPE   C39 2036   0.698   3.832   6.252  0.4221  0.0085 -0.6539
   16DOPE   H9X 2037   0.805   3.821   6.273  0.0948  0.0399  1.1386
   16DOPE  C310 2038   0.661   3.858   6.127  0.5218 -0.3745 -0.1014
   16DOPE  H10X 2039   0.735   3.879   6.049 -0.4979  0.1770 -0.9514
   16DOPE  C311 2040   0.519   3.896   6.099  0.2381  0.4746  0.1883
   16DOPE  H11X 2041   0.444   3.814   6.109 -1.2867  1.9958  2.1857
   16DOPE  H11Y 2042   0.498   3.980   6.168 -0.3747  1.9309 -1.6722
   16DOPE  C312 2043   0.508   3.949   5.958 -0.1205  1.2092  0.0761
   16DOPE  H12X 2044   0.589   4.016   5.921 -1.2659  0.9123 -3.2921
   16DOPE  H12Y 2045   0.409   3.999   5.956 -1.5102 -1.2723  1.8711
   16DOPE  C313 2046   0.488   3.841   5.850  0.3679 -0.0256  0.4030
   16DOPE  H13X 2047   0.584   3.797   5.817  0.0721  0.4480 -1.1858
   16DOPE  H13Y 2048   0.421   3.763   5.892  0.2502 -0.3757 -0.4158
   16DOPE  C314 2049   0.414   3.893   5.725  0.0448 -0.1476  0.5140
   16DOPE  H14X 2050   0.318   3.933   5.763 -0.4131 -0.0833 -0.6644
   16DOPE  H14Y 2051   0.380   3.803   5.669  2.9031 -0.2330 -1.3527
   16DOPE  C315 2052   0.497   3.974   5.628  0.6235  0.7100  0.5679
   16DOPE  H15X 2053   0.595   3.928   5.606  0.0053 -0.3809  0.0688
   16DOPE  H15Y 2054   0.504   4.076   5.673 -0.3453  0.5980  0.9965
   16DOPE  C316 2055   0.428   3.984   5.491 -1.4880  0.1403  0.0695
   16DOPE  H16X 2056   0.328   4.030   5.503 -2.0343 -0.2246 -2.5233
   16DOPE  H16Y 2057   0.411   3.881   5.454  3.2846 -0.4656 -1.2106
   16DOPE  C317 2058   0.518   4.050   5.380 -0.3588  0.1700 -0.6922
   16DOPE  H17X 2059   0.562   4.143   5.422  1.6137 -1.9122  2.3002
   16DOPE  H17Y 2060   0.602   3.980   5.363 -0.1327  0.8598 -2.5438
   16DOPE  C318 2061   0.438   4.078   5.256  0.0028  0.7532  0.0926
   16DOPE  H18X 2062   0.364   3.996   5.248 -0.2217  1.0348 -0.7349
   16DOPE  H18Y 2063   0.383   4.174   5.269 -0.5212  0.4051  0.4431
   16DOPE  H18Z 2064   0.510   4.091   5.173  2.2209  0.7192  1.8911
   17DOPE     N 2065   3.473   7.465   7.646  0.7014 -0.3033  0.1560
   17DOPE   HN1 2066   3.429   7.372   7.658  0.9683 -0.3807  0.5414
   17DOPE   HN2 2067   3.573   7.454   7.616  0.5141  1.7813 -1.5635
   17DOPE   HN3 2068   3.471   7.526   7.730 -0.1284  0.2321 -0.2388
   17DOPE   C12 2069   3.393   7.548   7.540  0.3761 -0.2761 -0.4906
   17DOPE  H12A 2070   3.441   7.648   7.536  0.2624 -0.2548 -1.8284
   17DOPE  H12B 2071   3.292   7.559   7.585  0.7722 -2.6096  1.1704
   17DOPE   C11 2072   3.395   7.472   7.403  0.2322  0.3471  0.3807
   17DOPE  H11A 2073   3.495   7.491   7.357 -0.8233  2.7576 -1.0900
   17DOPE  H11B 2074   3.329   7.521   7.328  1.2881 -0.0158 -0.8217
   17DOPE     P 2075   3.238   7.264   7.379  0.3392  0.1345 -0.4358
   17DOPE   O13 2076   3.121   7.345   7.429 -0.7129  0.3643 -0.5623
   17DOPE   O14 2077   3.247   7.121   7.419 -0.1686 -0.0159 -0.5276
   17DOPE   O11 2078   3.235   7.281   7.220  0.3057 -0.4606  0.0381
   17DOPE   O12 2079   3.380   7.333   7.417  0.3474 -1.1271  0.5567
   17DOPE    C1 2080   3.355   7.245   7.150 -0.4031 -0.0427  0.1425
   17DOPE    HA 2081   3.398   7.148   7.182 -0.7751  0.0843  1.0654
   17DOPE    HB 2082   3.432   7.320   7.179 -1.6577  1.4800 -0.3366
   17DOPE    C2 2083   3.338   7.249   6.998  0.3366  0.0179  0.2825
   17DOPE    HS 2084   3.441   7.252   6.958  0.1832 -0.5615 -0.1803
   17DOPE   O21 2085   3.251   7.352   6.935  0.6926  0.3139 -0.0866
   17DOPE   C21 2086   3.267   7.472   6.986 -0.4827 -0.5382  0.2804
   17DOPE   O22 2087   3.357   7.509   7.058  0.0188 -0.0615 -0.5939
   17DOPE   C22 2088   3.143   7.554   6.945 -0.2403  0.4920  0.5666
   17DOPE   H2R 2089   3.048   7.503   6.970 -0.9134  1.0164 -0.8084
   17DOPE   H2S 2090   3.146   7.572   6.835  1.1213 -0.1356  0.4809
   17DOPE    C3 2091   3.285   7.117   6.944  0.1944 -0.1412  0.0522
   17DOPE    HX 2092   3.177   7.111   6.970 -0.2867 -2.3963 -2.1679
   17DOPE    HY 2093   3.331   7.033   7.000 -1.9024 -2.3907 -1.4160
   17DOPE   O31 2094   3.314   7.099   6.802  0.5439 -0.3167 -0.3122
   17DOPE   C31 2095   3.292   6.976   6.764  0.1683  0.5657 -0.3894
   17DOPE   O32 2096   3.249   6.891   6.843 -0.2281 -0.0462  0.1899
   17DOPE   C32 2097   3.351   6.947   6.627 -0.2968 -0.0501 -0.5346
   17DOPE   H2X 2098   3.359   7.042   6.570  1.4186  0.2673  0.1743
   17DOPE   H2Y 2099   3.452   6.902   6.641  0.1617  1.4889  1.6259
   17DOPE   C23 2100   3.125   7.688   7.020  0.6095  0.2249  0.1383
   17DOPE   H3R 2101   3.145   7.676   7.128 -0.3411  1.6957  0.5099
   17DOPE   H3S 2102   3.020   7.725   7.020  0.2127 -0.8470  0.5563
   17DOPE   C24 2103   3.216   7.794   6.965  0.1071 -0.1846  0.1256
   17DOPE   H4R 2104   3.322   7.762   6.963  0.4569  0.8313  1.4458
   17DOPE   H4S 2105   3.223   7.879   7.036  0.8220 -0.6606  0.6363
   17DOPE   C25 2106   3.183   7.855   6.824  0.2701  0.1133  0.1863
   17DOPE   H5R 2107   3.108   7.935   6.838 -1.9469 -1.3005 -2.4752
   17DOPE   H5S 2108   3.148   7.783   6.746 -0.8354  1.0212 -0.1918
   17DOPE   C26 2109   3.317   7.916   6.774 -0.5345 -0.3272 -0.3329
   17DOPE   H6R 2110   3.378   7.831   6.736  1.6214  0.9956  0.0464
   17DOPE   H6S 2111   3.379   7.948   6.860  2.8303 -0.3582 -2.5351
   17DOPE   C27 2112   3.328   8.023   6.669 -0.0025 -0.0999 -0.2906
   17DOPE   H7R 2113   3.271   8.110   6.707  2.3512  1.2157  0.4269
   17DOPE   H7S 2114   3.278   7.979   6.580  2.0950 -1.1159 -1.0311
   17DOPE   C28 2115   3.458   8.085   6.635  0.4585  0.1361  0.6345
   17DOPE   H8R 2116   3.519   8.100   6.727 -0.2421  0.0641  1.1102
   17DOPE   H8S 2117   3.434   8.184   6.590 -1.1164 -0.8690 -0.8717
   17DOPE   C29 2118   3.545   7.989   6.554 -0.0175  0.2647 -0.4237
   17DOPE   H9R 2119   3.597   7.917   6.619 -0.5788  1.0033  0.8927
   17DOPE  C210 2120   3.585   7.999   6.426 -0.4358 -0.5009 -0.2808
   17DOPE  H10R 2121   3.639   7.910   6.388  0.3402 -0.2040  0.1017
   17DOPE  C211 2122   3.539   8.108   6.335  0.2569  0.0508 -0.1863
   17DOPE  H11R 2123   3.481   8.182   6.395  1.0615 -1.2538  2.3403
   17DOPE  H11S 2124   3.464   8.068   6.264 -2.5483  1.9279  1.4905
   17DOPE  C212 2125   3.656   8.178   6.249  0.0239  0.3411 -0.5508
   17DOPE  H12R 2126   3.622   8.260   6.182  1.0486  0.8943 -0.4181
   17DOPE  H12S 2127   3.708   8.107   6.182  1.5132  1.6655 -0.8781
   17DOPE  C213 2128   3.766   8.225   6.348 -0.1435  0.0417  0.1539
   17DOPE  H13R 2129   3.798   8.144   6.418 -2.2687  0.6747  1.9832
   17DOPE  H13S 2130   3.730   8.308   6.413  1.0989  1.7421 -1.2315
   17DOPE  C214 2131   3.883   8.285   6.278  0.1638 -0.2595  0.0906
   17DOPE  H14R 2132   3.860   8.387   6.242  1.4862 -0.4480 -1.4021
   17DOPE  H14S 2133   3.901   8.223   6.187 -1.9325  0.0529 -0.5965
   17DOPE  C215 2134   4.011   8.296   6.362 -0.2338 -0.2265 -0.5537
   17DOPE  H15R 2135   4.017   8.198   6.414 -1.6428 -0.6525 -1.1454
   17DOPE  H15S 2136   3.988   8.368   6.444  0.8279 -2.8183  2.2135
   17DOPE  C216 2137   4.141   8.349   6.298  0.7240 -1.0719  0.5759
   17DOPE  H16R 2138   4.140   8.458   6.276  0.6790 -1.1035  0.4217
   17DOPE  H16S 2139   4.152   8.290   6.205 -0.8615  0.9133 -0.9600
   17DOPE  C217 2140   4.270   8.330   6.377  0.7576  0.0502 -0.4536
   17DOPE  H17R 2141   4.248   8.380   6.474  0.4552 -1.4303  0.2555
   17DOPE  H17S 2142   4.357   8.390   6.343  0.1903  1.3870  0.3609
   17DOPE  C218 2143   4.303   8.185   6.400 -0.3773 -0.2255 -0.0511
   17DOPE  H18R 2144   4.372   8.180   6.487  2.4816 -0.5331 -2.1866
   17DOPE  H18S 2145   4.357   8.134   6.317 -1.1942 -2.4440  0.7199
   17DOPE  H18T 2146   4.219   8.116   6.422  0.8069 -1.6054  0.2741
   17DOPE   C33 2147   3.260   6.854   6.543 -0.2664 -0.0791 -0.2743
   17DOPE   H3X 2148   3.176   6.916   6.504  1.3307  3.1984  1.0600
   17DOPE   H3Y 2149   3.221   6.772   6.606  1.0367  1.3454  2.5818
   17DOPE   C34 2150   3.336   6.803   6.422  0.1046 -0.0141  0.6083
   17DOPE   H4X 2151   3.262   6.757   6.352 -1.6756  0.6314  1.9833
   17DOPE   H4Y 2152   3.381   6.893   6.375 -1.7961  1.4014  1.3514
   17DOPE   C35 2153   3.441   6.696   6.449 -0.6755 -0.4898 -0.1785
   17DOPE   H5X 2154   3.385   6.617   6.504 -3.2637  1.5525  0.3136
   17DOPE   H5Y 2155   3.518   6.745   6.512  0.3351 -0.1287 -1.6383
   17DOPE   C36 2156   3.487   6.629   6.326 -0.1388  1.0114  1.2968
   17DOPE   H6X 2157   3.407   6.579   6.268  0.6731 -0.4522  1.3656
   17DOPE   H6Y 2158   3.555   6.548   6.360 -2.5518 -0.9723  1.7086
   17DOPE   C37 2159   3.566   6.710   6.228 -0.1724 -0.1523  0.2356
   17DOPE   H7X 2160   3.504   6.791   6.185  0.0381 -1.2778 -2.3318
   17DOPE   H7Y 2161   3.645   6.768   6.281  1.3246 -0.7938 -1.2078
   17DOPE   C38 2162   3.624   6.646   6.102  0.0473  0.2008  0.3593
   17DOPE   H8X 2163   3.682   6.556   6.133  0.7306  0.5758  0.1748
   17DOPE   H8Y 2164   3.702   6.710   6.056  2.3594 -2.2372  0.6633
   17DOPE   C39 2165   3.500   6.612   6.021 -0.4310 -0.3130  0.2139
   17DOPE   H9X 2166   3.405   6.633   6.073 -0.6597  0.2951 -0.4410
   17DOPE  C310 2167   3.495   6.596   5.884  0.4630  0.4296  0.2951
   17DOPE  H10X 2168   3.401   6.572   5.833  0.5693 -2.7234  1.3521
   17DOPE  C311 2169   3.615   6.561   5.796 -0.0900 -0.7273  0.2210
   17DOPE  H11X 2170   3.654   6.652   5.745  1.2052 -1.0260  0.6424
   17DOPE  H11Y 2171   3.701   6.532   5.860 -1.3521  1.0299  2.8569
   17DOPE  C312 2172   3.593   6.457   5.679  0.8276  0.1729 -0.6265
   17DOPE  H12X 2173   3.510   6.482   5.610 -0.2039  0.9192  0.8302
   17DOPE  H12Y 2174   3.571   6.361   5.730  1.2985 -0.0461 -0.8343
   17DOPE  C313 2175   3.721   6.435   5.596 -0.0524 -0.8501 -0.6659
   17DOPE  H13X 2176   3.766   6.534   5.574  2.2538 -1.9040 -0.8851
   17DOPE  H13Y 2177   3.792   6.376   5.657  0.2527  0.3174  0.1379
   17DOPE  C314 2178   3.703   6.360   5.466  0.1653 -0.0605 -0.4448
   17DOPE  H14X 2179   3.613   6.406   5.419  0.3883  0.1002 -0.7211
   17DOPE  H14Y 2180   3.689   6.254   5.496  1.1172  0.2266  1.1161
   17DOPE  C315 2181   3.822   6.368   5.374 -0.0961 -0.4479  0.3161
   17DOPE  H15X 2182   3.914   6.321   5.416  0.9160  1.0538 -0.1762
   17DOPE  H15Y 2183   3.861   6.472   5.372 -2.2463  0.4328  1.0934
   17DOPE  C316 2184   3.804   6.337   5.230  0.8920  0.2718  0.6207
   17DOPE  H16X 2185   3.897   6.358   5.173  1.2820 -1.5852  0.5069
   17DOPE  H16Y 2186   3.720   6.396   5.187 -1.3476 -0.2877  3.8913
   17DOPE  C317 2187   3.775   6.185   5.206 -0.1022 -0.3549  0.0066
   17DOPE  H17X 2188   3.849   6.140   5.276 -1.7688  0.1940  2.2283
   17DOPE  H17Y 2189   3.675   6.167   5.251 -0.7674  2.4111 -0.1733
   17DOPE  C318 2190   3.792   6.146   5.065 -0.4266 -0.0607 -0.7556
   17DOPE  H18X 2191   3.738   6.210   4.993 -0.4074  2.3289  1.2350
   17DOPE  H18Y 2192   3.899   6.134   5.038 -0.4133 -2.3710  0.1039
   17DOPE  H18Z 2193   3.751   6.046   5.041 -0.5893  0.2085 -1.6091
   18DOPE     N 2194   7.662   3.652   7.533  1.4448 -0.2780  0.0906
   18DOPE   HN1 2195   7.708   3.602   7.454  1.3117 -1.9849  1.0307
   18DOPE   HN2 2196   7.574   3.599   7.551  0.2284  1.6147 -0.0757
   18DOPE   HN3 2197   7.638   3.745   7.494  4.0568  0.0333 -1.0140
   18DOPE   C12 2198   7.754   3.662   7.647 -0.5648  0.6598 -0.4731
   18DOPE  H12A 2199   7.773   3.565   7.697  0.4810  1.6870  1.2419
   18DOPE  H12B 2200   7.704   3.717   7.730  1.7802 -0.3974  1.8109
   18DOPE   C11 2201   7.888   3.727   7.606  0.2366 -1.0321  0.1842
   18DOPE  H11A 2202   7.947   3.662   7.538  2.9292  1.4299 -0.0497
   18DOPE  H11B 2203   7.963   3.732   7.688 -1.1322 -1.4173  1.5179
   18DOPE     P 2204   7.906   3.993   7.580 -0.0504  0.2857  0.1336
   18DOPE   O13 2205   8.052   3.996   7.595  0.1695 -0.1977  0.3721
   18DOPE   O14 2206   7.823   4.026   7.697 -0.3363 -0.1953 -0.3004
   18DOPE   O11 2207   7.867   4.088   7.460 -1.1687  0.3267  0.1603
   18DOPE   O12 2208   7.867   3.850   7.533  0.1807 -0.2247  0.2545
   18DOPE    C1 2209   7.763   4.061   7.368 -0.4981 -1.0629  0.2601
   18DOPE    HA 2210   7.778   3.958   7.330  0.3361  0.0032 -2.5605
   18DOPE    HB 2211   7.780   4.128   7.281  1.5264 -0.8050  0.8143
   18DOPE    C2 2212   7.624   4.075   7.428  0.1002 -0.6687 -0.0595
   18DOPE    HS 2213   7.618   4.001   7.511  1.5069 -2.3000 -1.3272
   18DOPE   O21 2214   7.533   4.053   7.322  0.0314  0.1411 -0.5042
   18DOPE   C21 2215   7.504   3.926   7.299 -0.1492 -0.0154 -0.3828
   18DOPE   O22 2216   7.554   3.833   7.357 -0.3228  0.4197 -0.2497
   18DOPE   C22 2217   7.394   3.918   7.195  0.0610 -0.0949 -0.6239
   18DOPE   H2R 2218   7.319   3.843   7.228  0.6257 -0.6871 -0.6574
   18DOPE   H2S 2219   7.443   3.878   7.103  2.6663  2.5818 -0.5624
   18DOPE    C3 2220   7.602   4.218   7.493  0.0849  0.2018 -0.9160
   18DOPE    HX 2221   7.669   4.228   7.581 -0.1000 -0.7322 -0.6585
   18DOPE    HY 2222   7.497   4.224   7.528 -0.2725  1.4995 -2.1232
   18DOPE   O31 2223   7.638   4.317   7.399 -0.3456 -0.0971 -0.7670
   18DOPE   C31 2224   7.543   4.364   7.321 -0.4456 -0.8341 -1.0137
   18DOPE   O32 2225   7.432   4.317   7.308 -0.7070  0.3297 -0.0231
   18DOPE   C32 2226   7.615   4.465   7.229  0.2191 -0.6712 -0.5008
   18DOPE   H2X 2227   7.574   4.567   7.245 -0.3755 -1.0260  0.3287
   18DOPE   H2Y 2228   7.721   4.479   7.256 -0.9722  2.0144  3.7280
   18DOPE   C23 2229   7.324   4.059   7.173 -0.3847  0.1986 -0.3004
   18DOPE   H3R 2230   7.395   4.123   7.115 -0.9284 -0.0890 -1.3106
   18DOPE   H3S 2231   7.303   4.115   7.266  0.7286  3.3784 -1.7918
   18DOPE   C24 2232   7.191   4.049   7.092 -0.5132  0.0413  0.3119
   18DOPE   H4R 2233   7.121   4.014   7.170  0.6856 -2.5564  0.3281
   18DOPE   H4S 2234   7.193   3.970   7.013  0.7667  2.0381 -1.7979
   18DOPE   C25 2235   7.155   4.187   7.044 -0.0297 -0.6540  0.5513
   18DOPE   H5R 2236   7.193   4.266   7.113 -0.6997  0.0241  0.1644
   18DOPE   H5S 2237   7.045   4.198   7.041  0.1529  1.7012  0.7038
   18DOPE   C26 2238   7.216   4.206   6.906  0.5859  0.4206 -0.2086
   18DOPE   H6R 2239   7.178   4.130   6.835 -0.6223  1.1853 -0.4164
   18DOPE   H6S 2240   7.327   4.204   6.911  0.6098  0.6969 -0.5804
   18DOPE   C27 2241   7.184   4.337   6.839 -0.2419 -1.0889  0.1765
   18DOPE   H7R 2242   7.220   4.417   6.907  0.4795 -2.2841  1.2503
   18DOPE   H7S 2243   7.075   4.354   6.836 -0.2029 -0.9105 -0.5369
   18DOPE   C28 2244   7.240   4.356   6.692  0.5122 -0.2626 -0.0237
   18DOPE   H8R 2245   7.350   4.349   6.687  0.5049  0.3379 -2.8537
   18DOPE   H8S 2246   7.214   4.461   6.666  0.3803 -0.2340  0.2211
   18DOPE   C29 2247   7.176   4.266   6.593  0.2007  0.5917  0.2295
   18DOPE   H9R 2248   7.066   4.261   6.590  0.1905  1.0238 -0.9594
   18DOPE  C210 2249   7.232   4.202   6.487 -0.6675  0.1598  1.0253
   18DOPE  H10R 2250   7.168   4.135   6.428  0.3307 -0.6529  0.8351
   18DOPE  C211 2251   7.381   4.195   6.465  0.4541 -0.5536  0.3842
   18DOPE  H11R 2252   7.430   4.240   6.554 -0.8426  0.9507  0.3916
   18DOPE  H11S 2253   7.412   4.251   6.374  0.4403  0.4939  1.0133
   18DOPE  C212 2254   7.441   4.055   6.440 -0.6723  0.3580 -0.6291
   18DOPE  H12R 2255   7.422   3.998   6.533 -1.7391  0.9156 -0.4993
   18DOPE  H12S 2256   7.549   4.080   6.424 -0.4990  2.8951  3.2970
   18DOPE  C213 2257   7.391   3.981   6.316 -0.4106 -0.1002 -0.2296
   18DOPE  H13R 2258   7.418   4.037   6.224 -1.1152  0.3357 -0.1838
   18DOPE  H13S 2259   7.281   3.988   6.302 -0.0962  0.3787 -2.9873
   18DOPE  C214 2260   7.431   3.833   6.321 -0.5363  0.6422 -0.1889
   18DOPE  H14R 2261   7.410   3.788   6.420 -1.7394  0.4262 -0.5297
   18DOPE  H14S 2262   7.536   3.826   6.284 -0.8504 -1.6235 -0.7960
   18DOPE  C215 2263   7.341   3.751   6.223 -0.1733 -0.0741 -0.3382
   18DOPE  H15R 2264   7.330   3.798   6.123  1.7047  0.9514 -0.1207
   18DOPE  H15S 2265   7.243   3.730   6.271 -0.5950  0.7128 -0.8357
   18DOPE  C216 2266   7.402   3.612   6.205 -0.5414 -0.2678  0.4775
   18DOPE  H16R 2267   7.403   3.559   6.302 -0.9535  0.8384  1.1019
   18DOPE  H16S 2268   7.506   3.607   6.165 -0.5549 -1.8311  0.5734
   18DOPE  C217 2269   7.319   3.520   6.114  0.5794 -0.7882 -0.1705
   18DOPE  H17R 2270   7.320   3.563   6.011 -0.9712 -0.2072  0.0270
   18DOPE  H17S 2271   7.212   3.525   6.143  0.7141  3.8142  0.2180
   18DOPE  C218 2272   7.379   3.381   6.101  0.0561 -0.2680 -0.1187
   18DOPE  H18R 2273   7.484   3.397   6.069 -0.1697  1.9049  0.0800
   18DOPE  H18S 2274   7.329   3.317   6.025 -2.6741  1.3272  0.1871
   18DOPE  H18T 2275   7.382   3.332   6.201  0.8300  0.6227  0.3021
   18DOPE   C33 2276   7.583   4.422   7.084 -0.4487 -0.0520 -0.6143
   18DOPE   H3X 2277   7.613   4.504   7.014 -2.1689  0.9344 -0.2469
   18DOPE   H3Y 2278   7.476   4.397   7.068 -0.5949 -1.2545  1.8818
   18DOPE   C34 2279   7.670   4.307   7.043  0.2953 -0.7730 -0.1310
   18DOPE   H4X 2280   7.779   4.329   7.048  0.2730 -0.0676 -1.9185
   18DOPE   H4Y 2281   7.647   4.217   7.105  1.5959 -0.2901  1.1059
   18DOPE   C35 2282   7.639   4.277   6.895 -0.1111  0.7755 -0.1116
   18DOPE   H5X 2283   7.645   4.372   6.838  0.1706  0.6909 -0.2278
   18DOPE   H5Y 2284   7.535   4.241   6.886  0.2076  0.2495 -2.2998
   18DOPE   C36 2285   7.717   4.173   6.829  0.9441 -0.1865 -0.0253
   18DOPE   H6X 2286   7.700   4.075   6.879 -2.0657  0.1507 -0.1723
   18DOPE   H6Y 2287   7.823   4.203   6.839 -0.1771  4.4183 -0.0014
   18DOPE   C37 2288   7.690   4.163   6.674 -0.6741  0.5358 -0.2532
   18DOPE   H7X 2289   7.584   4.133   6.659 -0.3709 -0.3815 -0.6352
   18DOPE   H7Y 2290   7.713   4.259   6.625  2.3336  1.0238  1.8514
   18DOPE   C38 2291   7.784   4.046   6.611  0.6165  0.1283 -1.0322
   18DOPE   H8X 2292   7.711   4.005   6.538 -1.2422 -0.9099  1.2821
   18DOPE   H8Y 2293   7.780   3.954   6.673 -0.4804  0.9279  0.1234
   18DOPE   C39 2294   7.915   4.088   6.550 -0.6132  0.4279  0.5948
   18DOPE   H9X 2295   7.985   4.129   6.625  0.5431 -4.4994  2.6198
   18DOPE  C310 2296   7.961   4.059   6.427 -0.3963  0.2669 -0.4652
   18DOPE  H10X 2297   8.053   4.103   6.388 -1.3896  2.2762 -0.6569
   18DOPE  C311 2298   7.885   3.994   6.316  0.0173 -0.4545  0.6830
   18DOPE  H11X 2299   7.954   3.915   6.281  0.8307  0.6097 -0.2121
   18DOPE  H11Y 2300   7.790   3.943   6.340 -1.0286  0.7194 -0.7823
   18DOPE  C312 2301   7.851   4.071   6.192 -0.2378  0.2520  0.7363
   18DOPE  H12X 2302   7.934   4.100   6.124  0.8778  0.8813  2.2942
   18DOPE  H12Y 2303   7.802   4.169   6.213 -1.7125  0.1761 -1.9441
   18DOPE  C313 2304   7.753   3.997   6.104 -0.0614 -0.0703 -0.0946
   18DOPE  H13X 2305   7.787   3.902   6.059 -1.1584 -0.7946  0.5759
   18DOPE  H13Y 2306   7.656   3.974   6.153 -0.4341 -0.9842 -1.2024
   18DOPE  C314 2307   7.723   4.092   5.983 -0.7490 -0.4341  0.3410
   18DOPE  H14X 2308   7.813   4.153   5.959 -0.1859 -1.6291 -0.7204
   18DOPE  H14Y 2309   7.639   4.161   6.005 -0.0352  0.7233 -0.4098
   18DOPE  C315 2310   7.700   4.025   5.843  0.0636 -0.1612 -0.0687
   18DOPE  H15X 2311   7.611   3.961   5.858 -0.4140  0.7463  1.0347
   18DOPE  H15Y 2312   7.787   3.963   5.812 -0.5233 -0.3728 -1.3696
   18DOPE  C316 2313   7.672   4.119   5.729 -0.5310  0.2550  0.2540
   18DOPE  H16X 2314   7.633   4.057   5.646  1.2961 -0.5848 -0.0305
   18DOPE  H16Y 2315   7.754   4.182   5.688 -1.0333  0.4051 -0.5347
   18DOPE  C317 2316   7.571   4.224   5.765  0.6968 -0.1721  0.2654
   18DOPE  H17X 2317   7.616   4.284   5.847  0.3363 -0.3100  0.5668
   18DOPE  H17Y 2318   7.561   4.274   5.666 -2.3154 -1.6644 -0.2978
   18DOPE  C318 2319   7.436   4.157   5.803 -0.0462  0.1709 -0.3611
   18DOPE  H18X 2320   7.439   4.101   5.899 -3.3129  0.0432 -0.2187
   18DOPE  H18Y 2321   7.359   4.232   5.830 -0.3509 -0.2427 -0.0655
   18DOPE  H18Z 2322   7.407   4.095   5.716  1.2720 -0.2563 -0.5210
   19DOPE     N 2323   6.198   4.317   8.086 -0.2187  0.0813  0.1446
   19DOPE   HN1 2324   6.157   4.228   8.120 -1.8642  0.9569  0.5537
   19DOPE   HN2 2325   6.205   4.321   7.982  0.0368  0.3680  0.1722
   19DOPE   HN3 2326   6.299   4.321   8.112 -0.2156  0.9291  0.0144
   19DOPE   C12 2327   6.133   4.449   8.127 -0.0652 -0.4840  0.2604
   19DOPE  H12A 2328   6.148   4.454   8.237  2.3385 -0.4104  0.0038
   19DOPE  H12B 2329   6.026   4.436   8.102  0.0194 -0.5812 -0.0602
   19DOPE   C11 2330   6.188   4.569   8.044 -0.3061 -0.4013 -0.5477
   19DOPE  H11A 2331   6.296   4.588   8.055 -0.0989 -1.4774 -0.5718
   19DOPE  H11B 2332   6.139   4.654   8.097 -0.1274  0.3625 -1.5866
   19DOPE     P 2333   6.226   4.506   7.790 -0.2019  0.2205 -0.0704
   19DOPE   O13 2334   6.140   4.500   7.673 -0.6533 -0.1658 -0.1115
   19DOPE   O14 2335   6.284   4.376   7.832  0.0747  0.2657 -0.1528
   19DOPE   O11 2336   6.350   4.613   7.780 -0.2330 -0.1829  0.4537
   19DOPE   O12 2337   6.150   4.576   7.910  0.2553  0.4905 -0.0160
   19DOPE    C1 2338   6.319   4.754   7.772  0.4188  0.3150 -0.4531
   19DOPE    HA 2339   6.370   4.806   7.856  1.1398  0.4615 -0.9711
   19DOPE    HB 2340   6.210   4.766   7.792  0.4624 -1.9714  1.6774
   19DOPE    C2 2341   6.341   4.811   7.634 -0.2248 -0.9130 -0.4083
   19DOPE    HS 2342   6.315   4.919   7.643 -0.2749 -1.0607  1.7818
   19DOPE   O21 2343   6.277   4.744   7.529  0.7935 -0.0010 -0.4414
   19DOPE   C21 2344   6.148   4.778   7.514  0.1738 -0.2699 -0.4198
   19DOPE   O22 2345   6.086   4.859   7.582 -0.4158  0.0337 -0.1042
   19DOPE   C22 2346   6.077   4.700   7.398  0.3767 -0.1549  0.3600
   19DOPE   H2R 2347   5.968   4.720   7.406  0.3874 -0.1854  0.6071
   19DOPE   H2S 2348   6.081   4.590   7.413  0.9423 -0.2559 -0.5038
   19DOPE    C3 2349   6.495   4.806   7.610 -0.4773  0.7040 -0.4365
   19DOPE    HX 2350   6.535   4.705   7.633  1.8748  1.1954 -2.0182
   19DOPE    HY 2351   6.541   4.885   7.672  1.6505  0.7694 -1.9788
   19DOPE   O31 2352   6.524   4.839   7.475  0.6054  0.0260 -0.0344
   19DOPE   C31 2353   6.638   4.810   7.429 -0.0297 -0.7342  0.2816
   19DOPE   O32 2354   6.732   4.765   7.493  0.1954  0.1751 -0.1304
   19DOPE   C32 2355   6.650   4.848   7.281  0.0111 -0.0481  1.0118
   19DOPE   H2X 2356   6.588   4.939   7.265 -1.4339 -0.9141  1.4600
   19DOPE   H2Y 2357   6.753   4.871   7.245 -0.6354 -0.6626 -1.4630
   19DOPE   C23 2358   6.133   4.747   7.259  0.0197 -0.8251  0.0601
   19DOPE   H3R 2359   6.240   4.717   7.254  1.1134  2.5713  0.6072
   19DOPE   H3S 2360   6.121   4.857   7.267 -2.4375 -1.0174 -0.1178
   19DOPE   C24 2361   6.047   4.691   7.147 -0.0273  0.3251 -0.7537
   19DOPE   H4R 2362   5.946   4.737   7.161  0.0020  0.1601  0.0700
   19DOPE   H4S 2363   6.034   4.581   7.155  1.2537  0.2752  1.3921
   19DOPE   C25 2364   6.097   4.733   7.015  0.0096 -0.0067  0.3268
   19DOPE   H5R 2365   6.016   4.700   6.947 -0.2416 -1.0179  1.1075
   19DOPE   H5S 2366   6.190   4.675   6.995 -0.0336  0.2829 -0.8301
   19DOPE   C26 2367   6.117   4.885   6.987  0.1450  0.3130 -0.4636
   19DOPE   H6R 2368   6.168   4.934   7.072  0.5839 -0.9285  0.0073
   19DOPE   H6S 2369   6.017   4.934   6.985 -0.8862 -1.6466 -2.6411
   19DOPE   C27 2370   6.201   4.924   6.866 -0.3490 -0.7611 -0.3543
   19DOPE   H7R 2371   6.133   4.937   6.779  0.4514 -0.5876 -0.9715
   19DOPE   H7S 2372   6.271   4.839   6.851 -0.1897 -0.4959 -1.1773
   19DOPE   C28 2373   6.278   5.061   6.877 -0.4033 -0.1859  0.7494
   19DOPE   H8R 2374   6.365   5.048   6.809  0.0983  0.0661  1.3200
   19DOPE   H8S 2375   6.324   5.065   6.979  0.1534 -0.0519  0.4974
   19DOPE   C29 2376   6.204   5.191   6.850  0.1333  0.1628  0.0506
   19DOPE   H9R 2377   6.130   5.219   6.927  0.6861  0.8393  0.3404
   19DOPE  C210 2378   6.218   5.272   6.737  0.5897  0.1857 -0.8588
   19DOPE  H10R 2379   6.150   5.355   6.712  1.5133  1.1324 -0.3354
   19DOPE  C211 2380   6.319   5.254   6.632  0.4814 -0.1057  0.3918
   19DOPE  H11R 2381   6.413   5.207   6.666  0.7749  0.2331  0.0590
   19DOPE  H11S 2382   6.360   5.355   6.608  1.4386 -0.4190  0.6571
   19DOPE  C212 2383   6.259   5.204   6.502 -0.4847  0.5336  0.2357
   19DOPE  H12R 2384   6.180   5.267   6.457 -1.1559 -0.8130 -0.5088
   19DOPE  H12S 2385   6.212   5.105   6.516  0.1058 -0.1828 -2.3250
   19DOPE  C213 2386   6.382   5.181   6.409  0.6574  0.9248 -0.0586
   19DOPE  H13R 2387   6.343   5.104   6.339  1.3713 -0.8654  1.4387
   19DOPE  H13S 2388   6.464   5.126   6.458 -0.7261 -0.9517  0.2358
   19DOPE  C214 2389   6.432   5.304   6.329 -0.0186 -0.1473 -0.4895
   19DOPE  H14R 2390   6.459   5.391   6.392 -1.9613 -0.3370  0.6960
   19DOPE  H14S 2391   6.349   5.344   6.266 -0.6194 -0.1276  0.2993
   19DOPE  C215 2392   6.544   5.268   6.231 -0.0325  0.0871 -0.3263
   19DOPE  H15R 2393   6.509   5.174   6.182  0.6234  0.3666 -1.3704
   19DOPE  H15S 2394   6.631   5.236   6.292 -0.4314 -0.9798 -0.2882
   19DOPE  C216 2395   6.586   5.392   6.144  0.4217 -0.6210  0.3513
   19DOPE  H16R 2396   6.496   5.441   6.103  0.2594 -0.8816  0.3928
   19DOPE  H16S 2397   6.653   5.362   6.061 -1.2639 -1.1842 -0.8506
   19DOPE  C217 2398   6.674   5.500   6.215 -0.5135  0.4074  0.3450
   19DOPE  H17R 2399   6.768   5.450   6.248 -0.8105  0.0609  0.6809
   19DOPE  H17S 2400   6.613   5.551   6.293  1.9680  2.3762  1.1482
   19DOPE  C218 2401   6.717   5.603   6.108  0.0363 -0.3216 -0.1495
   19DOPE  H18R 2402   6.632   5.669   6.081  1.1449  1.1321 -0.1604
   19DOPE  H18S 2403   6.756   5.561   6.013 -1.2278 -2.4865  0.2129
   19DOPE  H18T 2404   6.795   5.665   6.157 -1.9671  0.9139  1.7086
   19DOPE   C33 2405   6.602   4.734   7.181  0.2782 -0.1723  0.2647
   19DOPE   H3X 2406   6.494   4.719   7.201 -0.0050 -0.8304 -1.5659
   19DOPE   H3Y 2407   6.655   4.641   7.211  1.2371  0.9215  2.1344
   19DOPE   C34 2408   6.600   4.769   7.030  0.4646 -0.3121  0.2573
   19DOPE   H4X 2409   6.562   4.869   7.001 -0.3943 -0.4381  0.8949
   19DOPE   H4Y 2410   6.706   4.786   7.000 -0.0162  1.2404 -0.6754
   19DOPE   C35 2411   6.531   4.662   6.947  0.1696 -0.8737 -0.9618
   19DOPE   H5X 2412   6.432   4.644   6.993 -0.2523  0.5527 -1.2631
   19DOPE   H5Y 2413   6.597   4.573   6.956  2.5321  0.8339 -0.3950
   19DOPE   C36 2414   6.521   4.688   6.795 -0.5762  0.3524 -0.2195
   19DOPE   H6X 2415   6.621   4.673   6.749 -1.4401 -2.1014 -1.4400
   19DOPE   H6Y 2416   6.499   4.796   6.779  0.1059  0.4469 -0.5305
   19DOPE   C37 2417   6.426   4.597   6.720 -1.0099  0.4088 -0.5931
   19DOPE   H7X 2418   6.323   4.625   6.750 -1.1502  0.0180 -0.7009
   19DOPE   H7Y 2419   6.432   4.613   6.611 -0.9339  0.1654 -0.6247
   19DOPE   C38 2420   6.447   4.450   6.754 -0.5320 -0.1860  0.3924
   19DOPE   H8X 2421   6.357   4.401   6.712  0.8468 -2.3805 -0.1548
   19DOPE   H8Y 2422   6.434   4.413   6.858  1.6039  1.0219  1.1613
   19DOPE   C39 2423   6.572   4.387   6.698 -0.2952  0.5561  0.5111
   19DOPE   H9X 2424   6.662   4.432   6.742  0.7093 -0.4084 -0.4587
   19DOPE  C310 2425   6.586   4.295   6.598  0.4063  0.4124 -0.2092
   19DOPE  H10X 2426   6.685   4.270   6.554  0.6402  0.1517  0.4525
   19DOPE  C311 2427   6.475   4.228   6.524  0.0887  0.3274  0.4897
   19DOPE  H11X 2428   6.488   4.120   6.503  0.2835  0.4973 -0.3164
   19DOPE  H11Y 2429   6.381   4.232   6.584  0.6803  0.5688  1.4170
   19DOPE  C312 2430   6.421   4.291   6.392 -0.7668  0.1681 -0.1127
   19DOPE  H12X 2431   6.344   4.365   6.422 -1.0957 -0.3472  0.3374
   19DOPE  H12Y 2432   6.370   4.212   6.333 -0.6388  0.4490 -0.6028
   19DOPE  C313 2433   6.533   4.357   6.307 -0.5963  0.9526 -0.0102
   19DOPE  H13X 2434   6.552   4.449   6.367 -1.2102  1.2837 -0.3066
   19DOPE  H13Y 2435   6.627   4.299   6.294 -0.5421  0.9682  0.2986
   19DOPE  C314 2436   6.472   4.408   6.175  0.8134 -0.1873  0.6687
   19DOPE  H14X 2437   6.389   4.480   6.193  0.0576 -0.5165 -1.3019
   19DOPE  H14Y 2438   6.418   4.327   6.122 -1.2639  1.5660 -0.0487
   19DOPE  C315 2439   6.560   4.484   6.077 -0.1905 -0.2325  0.8077
   19DOPE  H15X 2440   6.651   4.426   6.048  0.5830  1.3848 -0.1891
   19DOPE  H15Y 2441   6.609   4.572   6.126  0.6228 -0.3946  0.3134
   19DOPE  C316 2442   6.484   4.528   5.944 -0.4728  0.2824  0.0554
   19DOPE  H16X 2443   6.396   4.594   5.965  0.3637  2.0837 -1.7007
   19DOPE  H16Y 2444   6.449   4.433   5.899 -0.6294 -0.0254  0.8202
   19DOPE  C317 2445   6.570   4.592   5.829 -0.5097  0.5554  0.2065
   19DOPE  H17X 2446   6.513   4.623   5.738  1.3240  1.2454 -0.7664
   19DOPE  H17Y 2447   6.632   4.675   5.869 -1.5023  1.0793  0.6623
   19DOPE  C318 2448   6.669   4.490   5.765  0.1983 -0.7521  0.2157
   19DOPE  H18X 2449   6.746   4.534   5.698 -0.2838  0.3296  0.3547
   19DOPE  H18Y 2450   6.722   4.445   5.852  0.7161  0.6595  0.6735
   19DOPE  H18Z 2451   6.609   4.415   5.710 -0.8200  0.0788  0.1541
   20DOPE     N 2452   6.750   7.186   7.797 -0.6219  0.0880  0.3323
   20DOPE   HN1 2453   6.772   7.288   7.801 -2.9571  0.6265  0.7399
   20DOPE   HN2 2454   6.666   7.171   7.738  0.0539 -0.6730 -0.4563
   20DOPE   HN3 2455   6.715   7.167   7.893 -0.5437 -0.1763  0.3074
   20DOPE   C12 2456   6.879   7.117   7.768  0.0743  0.4797 -0.0712
   20DOPE  H12A 2457   6.956   7.181   7.817 -0.9620  1.6128  0.1232
   20DOPE  H12B 2458   6.896   7.139   7.661  1.0351  2.9872  0.5194
   20DOPE   C11 2459   6.881   6.960   7.793 -0.6230 -0.4565  0.5479
   20DOPE  H11A 2460   6.868   6.935   7.900 -0.6326 -2.8764  0.0444
   20DOPE  H11B 2461   6.979   6.928   7.751 -0.5572  0.1461  0.2284
   20DOPE     P 2462   6.700   6.765   7.747 -0.2020 -0.0157  0.3526
   20DOPE   O13 2463   6.578   6.757   7.664 -0.0600 -0.0665  0.1765
   20DOPE   O14 2464   6.677   6.773   7.894 -0.4103  0.3779  0.0342
   20DOPE   O11 2465   6.803   6.642   7.709 -0.2510  0.0505 -0.0780
   20DOPE   O12 2466   6.787   6.897   7.708 -0.2966 -0.4227  0.0377
   20DOPE    C1 2467   6.904   6.638   7.607  0.2336  0.1920  0.4170
   20DOPE    HA 2468   6.972   6.551   7.612 -1.7700 -1.6113 -1.5132
   20DOPE    HB 2469   6.964   6.731   7.612  0.0954  0.4469 -1.6645
   20DOPE    C2 2470   6.854   6.619   7.460  0.8902  0.1540  0.4878
   20DOPE    HS 2471   6.938   6.586   7.396 -1.8624  0.0204 -3.3807
   20DOPE   O21 2472   6.783   6.730   7.414 -0.3427 -0.4684  0.0501
   20DOPE   C21 2473   6.843   6.844   7.396 -0.1879 -0.2733  0.0178
   20DOPE   O22 2474   6.962   6.873   7.410  0.1301  0.2856  0.2004
   20DOPE   C22 2475   6.743   6.956   7.355  0.4157  0.1824 -0.2112
   20DOPE   H2R 2476   6.785   7.052   7.393  1.5938  0.5966 -2.3938
   20DOPE   H2S 2477   6.646   6.930   7.403  0.5122  0.5568  0.1902
   20DOPE    C3 2478   6.751   6.508   7.459  0.4976 -0.0315 -0.0321
   20DOPE    HX 2479   6.659   6.549   7.506 -0.7175  0.3978 -2.5963
   20DOPE    HY 2480   6.788   6.426   7.525  0.5974  1.8739  2.4316
   20DOPE   O31 2481   6.717   6.458   7.330 -0.6872 -0.4737 -0.4204
   20DOPE   C31 2482   6.585   6.479   7.289  0.6344 -0.4765 -1.0233
   20DOPE   O32 2483   6.493   6.529   7.352 -0.2867 -0.4073  0.5963
   20DOPE   C32 2484   6.572   6.428   7.144  0.4048  0.0134 -0.1215
   20DOPE   H2X 2485   6.671   6.450   7.098  1.1268 -1.2297  0.7629
   20DOPE   H2Y 2486   6.560   6.318   7.152 -1.3904  0.1011 -1.1706
   20DOPE   C23 2487   6.719   6.969   7.202 -0.5239 -0.3888 -0.9702
   20DOPE   H3R 2488   6.814   7.014   7.166  0.6541 -0.0599  2.2835
   20DOPE   H3S 2489   6.634   7.041   7.193  0.2000  0.4776 -0.9929
   20DOPE   C24 2490   6.682   6.838   7.134  0.0503 -0.7750 -0.3968
   20DOPE   H4R 2491   6.580   6.810   7.169 -0.0525  2.0098  1.9572
   20DOPE   H4S 2492   6.754   6.765   7.177  0.0881 -0.4620  0.0836
   20DOPE   C25 2493   6.697   6.856   6.984 -0.3596 -0.3871  0.6353
   20DOPE   H5R 2494   6.703   6.755   6.937 -2.0630 -0.0228 -0.4517
   20DOPE   H5S 2495   6.796   6.904   6.969 -1.0435  0.4850 -1.4597
   20DOPE   C26 2496   6.594   6.938   6.916  0.1246 -0.4468 -0.2274
   20DOPE   H6R 2497   6.606   7.047   6.935 -1.0407 -0.7011  2.4751
   20DOPE   H6S 2498   6.500   6.902   6.964  1.3363 -1.7104  1.2822
   20DOPE   C27 2499   6.592   6.913   6.760  1.0441 -0.5418  0.0695
   20DOPE   H7R 2500   6.600   6.804   6.740 -0.0149 -0.6992  0.4150
   20DOPE   H7S 2501   6.686   6.953   6.717  0.8390  2.0643  1.8140
   20DOPE   C28 2502   6.470   6.971   6.679  1.1950  0.6025 -0.5459
   20DOPE   H8R 2503   6.487   6.937   6.574  0.6714 -2.7267  0.3364
   20DOPE   H8S 2504   6.462   7.081   6.685 -0.1556  0.4602  0.9931
   20DOPE   C29 2505   6.335   6.921   6.726 -0.0874  0.1175  0.4850
   20DOPE   H9R 2506   6.311   6.945   6.831  0.9220  0.0814  0.7292
   20DOPE  C210 2507   6.246   6.858   6.653  0.8715 -0.7034 -0.2709
   20DOPE  H10R 2508   6.150   6.831   6.699 -0.0329 -1.7496 -2.6561
   20DOPE  C211 2509   6.247   6.824   6.509 -0.0824  0.4693 -0.0855
   20DOPE  H11R 2510   6.241   6.715   6.491  0.4303  0.6415 -1.3642
   20DOPE  H11S 2511   6.347   6.851   6.469 -0.6058  2.1233 -0.3532
   20DOPE  C212 2512   6.134   6.882   6.436 -0.3043 -0.1468  1.5357
   20DOPE  H12R 2513   6.138   6.992   6.448 -0.5176 -0.0081  0.4452
   20DOPE  H12S 2514   6.041   6.853   6.489 -0.7774  0.4276  1.0393
   20DOPE  C213 2515   6.131   6.859   6.281 -0.2128  0.5564 -0.2801
   20DOPE  H13R 2516   6.229   6.892   6.241  0.5145 -1.5501 -0.3893
   20DOPE  H13S 2517   6.054   6.917   6.226 -0.2072 -1.0250 -2.0709
   20DOPE  C214 2518   6.103   6.714   6.257 -0.5578  0.4360 -0.1156
   20DOPE  H14R 2519   6.007   6.686   6.305  0.4815 -1.4605  0.9969
   20DOPE  H14S 2520   6.185   6.646   6.291  0.1065  0.3140 -1.8614
   20DOPE  C215 2521   6.111   6.673   6.104  0.3165 -0.3597  0.4336
   20DOPE  H15R 2522   6.047   6.738   6.041 -1.1348 -1.9237  0.2265
   20DOPE  H15S 2523   6.060   6.576   6.088 -1.6247  0.7031 -0.0997
   20DOPE  C216 2524   6.254   6.674   6.042  0.0147  0.5393 -0.0554
   20DOPE  H16R 2525   6.318   6.615   6.111 -1.6933 -1.0507  0.2560
   20DOPE  H16S 2526   6.292   6.778   6.037  2.2959 -0.2146  0.3758
   20DOPE  C217 2527   6.265   6.614   5.895 -0.4703 -0.2343 -0.4579
   20DOPE  H17R 2528   6.200   6.678   5.831  1.0228  0.9655 -0.8315
   20DOPE  H17S 2529   6.223   6.512   5.885  1.4044 -0.9376 -1.6574
   20DOPE  C218 2530   6.410   6.602   5.839 -0.0778 -0.0490 -0.4057
   20DOPE  H18R 2531   6.420   6.592   5.728 -0.1260  0.4289 -0.4575
   20DOPE  H18S 2532   6.447   6.514   5.895  1.0489  2.0706  2.4203
   20DOPE  H18T 2533   6.480   6.683   5.870 -1.4648  1.2204 -0.4521
   20DOPE   C33 2534   6.459   6.494   7.058 -0.0492  0.2003  0.0092
   20DOPE   H3X 2535   6.467   6.605   7.056  1.2345  0.1291 -0.0987
   20DOPE   H3Y 2536   6.361   6.465   7.100 -0.4979 -2.9414 -2.7668
   20DOPE   C34 2537   6.466   6.458   6.907 -0.6993 -0.5347 -0.0488
   20DOPE   H4X 2538   6.547   6.520   6.865  1.1124  0.0083  3.8151
   20DOPE   H4Y 2539   6.495   6.351   6.893  0.8263 -0.2374  0.7375
   20DOPE   C35 2540   6.332   6.490   6.844 -0.1483  0.5626 -0.1419
   20DOPE   H5X 2541   6.299   6.594   6.862 -0.5518  0.6910 -1.5643
   20DOPE   H5Y 2542   6.261   6.416   6.887  0.8768  0.1458  0.8814
   20DOPE   C36 2543   6.330   6.471   6.691  0.2611 -0.7041  0.1852
   20DOPE   H6X 2544   6.394   6.384   6.663  0.6575 -0.1393 -0.6774
   20DOPE   H6Y 2545   6.381   6.564   6.660 -1.3701 -0.6566 -2.6886
   20DOPE   C37 2546   6.186   6.458   6.637  0.4726 -0.0902 -0.3083
   20DOPE   H7X 2547   6.136   6.365   6.671 -1.3786  0.6775 -0.7679
   20DOPE   H7Y 2548   6.125   6.548   6.663  2.9062  1.5599  0.0539
   20DOPE   C38 2549   6.192   6.443   6.484 -0.7441 -0.0023  0.0537
   20DOPE   H8X 2550   6.268   6.518   6.452 -0.4303  0.4815  1.8203
   20DOPE   H8Y 2551   6.091   6.462   6.443 -0.2722 -0.7654 -1.5325
   20DOPE   C39 2552   6.235   6.300   6.449 -0.1912 -0.7701 -0.5845
   20DOPE   H9X 2553   6.332   6.274   6.495  0.1570  2.6325  0.9119
   20DOPE  C310 2554   6.160   6.206   6.395  0.5564 -0.6040  0.1074
   20DOPE  H10X 2555   6.196   6.102   6.384  0.4906 -0.8058  1.6138
   20DOPE  C311 2556   6.020   6.216   6.349 -0.3137  0.4443 -0.0853
   20DOPE  H11X 2557   5.982   6.114   6.328 -1.3883  1.0746 -1.4280
   20DOPE  H11Y 2558   5.956   6.254   6.432 -0.4107  0.4648 -0.1680
   20DOPE  C312 2559   5.982   6.296   6.222 -0.1405  0.2756  0.3253
   20DOPE  H12X 2560   6.039   6.391   6.223 -1.4178  1.0747 -0.0450
   20DOPE  H12Y 2561   5.874   6.322   6.219  0.2017  1.7004 -0.6611
   20DOPE  C313 2562   6.011   6.235   6.076 -0.1438 -0.0923  0.1908
   20DOPE  H13X 2563   5.965   6.134   6.090 -1.0161  0.5424  2.4743
   20DOPE  H13Y 2564   5.956   6.293   5.999 -0.5677  0.1550  0.6675
   20DOPE  C314 2565   6.157   6.219   6.026  0.1432  0.0572 -0.1756
   20DOPE  H14X 2566   6.217   6.171   6.107 -0.5651 -2.5693 -1.1049
   20DOPE  H14Y 2567   6.198   6.320   6.007  1.1058 -0.2575  0.1735
   20DOPE  C315 2568   6.173   6.133   5.904  0.3831  0.4910  0.4712
   20DOPE  H15X 2569   6.076   6.142   5.851  0.9812 -1.9144 -1.1844
   20DOPE  H15Y 2570   6.177   6.031   5.948  1.4102  0.7463  1.0179
   20DOPE  C316 2571   6.307   6.170   5.830  0.2178 -0.5167 -0.1853
   20DOPE  H16X 2572   6.382   6.165   5.912 -0.5193 -1.9767  0.4228
   20DOPE  H16Y 2573   6.315   6.274   5.791  0.5226 -0.1905  0.7219
   20DOPE  C317 2574   6.329   6.053   5.728  0.1425 -0.4685 -0.8673
   20DOPE  H17X 2575   6.298   5.958   5.777 -3.0076  0.1274 -1.5155
   20DOPE  H17Y 2576   6.263   6.064   5.639  0.0412 -1.5492 -0.9439
   20DOPE  C318 2577   6.476   6.045   5.676  0.3045  0.2830  0.1859
   20DOPE  H18X 2578   6.547   6.040   5.761  0.2600 -0.4099  0.1855
   20DOPE  H18Y 2579   6.497   5.954   5.616  1.8948 -0.3536  1.6425
   20DOPE  H18Z 2580   6.493   6.143   5.626 -2.1771  0.0386 -1.3406
   21DOPE     N 2581   3.087   1.248   7.281  0.0454  0.1737  0.1320
   21DOPE   HN1 2582   3.045   1.218   7.372 -0.0365 -4.2720 -1.1526
   21DOPE   HN2 2583   3.188   1.251   7.302  0.1774 -2.0143  0.0027
   21DOPE   HN3 2584   3.057   1.341   7.244  0.1956  0.0516 -0.3030
   21DOPE   C12 2585   3.053   1.144   7.179  0.1213  0.2445  0.0798
   21DOPE  H12A 2586   3.085   1.169   7.076 -1.1492 -1.6404 -0.8305
   21DOPE  H12B 2587   2.942   1.139   7.174  0.0224  1.5124  0.6434
   21DOPE   C11 2588   3.115   1.009   7.221  0.6453 -0.6151  0.2519
   21DOPE  H11A 2589   3.225   1.009   7.203  0.6213 -0.8188  0.0931
   21DOPE  H11B 2590   3.077   0.938   7.144  0.2475  1.0782 -1.1627
   21DOPE     P 2591   2.995   0.860   7.402 -0.2564  0.5966 -0.0735
   21DOPE   O13 2592   2.862   0.924   7.417 -0.0521  0.0503 -0.3947
   21DOPE   O14 2593   3.038   0.786   7.524 -0.9021  0.4371  0.3365
   21DOPE   O11 2594   2.992   0.754   7.283 -0.0716  0.1712  0.1293
   21DOPE   O12 2595   3.104   0.973   7.359  0.2648  0.1607 -0.3410
   21DOPE    C1 2596   3.086   0.646   7.277 -0.1889 -0.3556 -0.3794
   21DOPE    HA 2597   3.038   0.546   7.278 -0.7186 -0.1017  0.8877
   21DOPE    HB 2598   3.153   0.647   7.366 -1.2049 -1.3089  0.4244
   21DOPE    C2 2599   3.175   0.660   7.146 -0.4685  0.0999 -0.0727
   21DOPE    HS 2600   3.225   0.759   7.154 -0.2773 -0.1188  2.0167
   21DOPE   O21 2601   3.087   0.640   7.033  0.0610  0.3364 -0.0914
   21DOPE   C21 2602   3.121   0.703   6.926  0.0518 -0.2924  1.0769
   21DOPE   O22 2603   3.196   0.799   6.918 -0.4971  0.0350 -0.4029
   21DOPE   C22 2604   3.050   0.642   6.797  0.2789 -0.0770 -1.0012
   21DOPE   H2R 2605   2.946   0.681   6.799 -0.7663 -2.6627 -0.0208
   21DOPE   H2S 2606   3.047   0.532   6.810 -2.4017  0.1248  0.9476
   21DOPE    C3 2607   3.296   0.555   7.148  0.2771 -0.3020  0.5430
   21DOPE    HX 2608   3.239   0.460   7.135  0.0646 -0.5711  2.9276
   21DOPE    HY 2609   3.339   0.543   7.250  0.6068 -0.6691  0.3649
   21DOPE   O31 2610   3.392   0.562   7.038 -0.0514  0.2297  0.3383
   21DOPE   C31 2611   3.467   0.668   7.031 -0.2118 -0.2522  0.5261
   21DOPE   O32 2612   3.493   0.748   7.120  0.1360 -0.3680 -0.1503
   21DOPE   C32 2613   3.517   0.679   6.887  0.5495 -0.2625  0.6923
   21DOPE   H2X 2614   3.604   0.612   6.870  0.5088 -0.0718 -0.3246
   21DOPE   H2Y 2615   3.433   0.657   6.819  0.7704  0.4921  0.1597
   21DOPE   C23 2616   3.131   0.677   6.668 -0.2908  0.4499  0.0623
   21DOPE   H3R 2617   3.216   0.605   6.668 -0.8587 -0.2330 -0.6292
   21DOPE   H3S 2618   3.178   0.777   6.677  1.5856 -0.3437 -0.3172
   21DOPE   C24 2619   3.044   0.660   6.542 -0.2877  0.9003  0.2113
   21DOPE   H4R 2620   3.097   0.702   6.454  0.6613  0.4954  0.5799
   21DOPE   H4S 2621   2.957   0.729   6.544 -1.1219 -0.1424  1.4553
   21DOPE   C25 2622   3.002   0.513   6.524 -0.2972  0.4295 -0.3129
   21DOPE   H5R 2623   2.964   0.465   6.616 -0.7318 -1.0578 -1.2215
   21DOPE   H5S 2624   3.097   0.455   6.512  0.7536  1.4494  2.3575
   21DOPE   C26 2625   2.903   0.483   6.408  0.0936 -0.4069 -0.3663
   21DOPE   H6R 2626   2.803   0.523   6.435  1.1565  1.8033  0.5974
   21DOPE   H6S 2627   2.898   0.374   6.388 -0.8754 -0.5574  0.6258
   21DOPE   C27 2628   2.944   0.557   6.281  0.0309  0.0022  0.2789
   21DOPE   H7R 2629   3.052   0.535   6.265 -0.1835 -0.7798 -0.1556
   21DOPE   H7S 2630   2.931   0.667   6.277  1.2160  0.1275 -2.3460
   21DOPE   C28 2631   2.872   0.520   6.146  0.3344  0.0529  0.1051
   21DOPE   H8R 2632   2.917   0.584   6.068  0.7190  0.5262  0.7106
   21DOPE   H8S 2633   2.762   0.531   6.147  0.3290  0.0860  2.1721
   21DOPE   C29 2634   2.901   0.368   6.111 -0.6527 -0.2952  0.4161
   21DOPE   H9R 2635   2.871   0.292   6.184 -1.1212  0.9874  1.5978
   21DOPE  C210 2636   2.966   0.317   6.006 -0.0975  0.2738 -0.5204
   21DOPE  H10R 2637   2.976   0.208   6.014  2.3914  0.3385 -1.7212
   21DOPE  C211 2638   3.008   0.382   5.878  0.2168 -0.5050 -0.5859
   21DOPE  H11R 2639   3.102   0.336   5.839 -1.1143 -1.3144 -3.0224
   21DOPE  H11S 2640   3.024   0.488   5.906 -3.1377 -0.7857  3.3329
   21DOPE  C212 2641   2.902   0.381   5.767 -0.6550 -0.0935 -0.3093
   21DOPE  H12R 2642   2.857   0.281   5.753  0.8601 -0.8742  0.2132
   21DOPE  H12S 2643   2.955   0.404   5.671  0.1090  0.7739  0.3028
   21DOPE  C213 2644   2.799   0.498   5.786 -0.1744  0.0164  0.3024
   21DOPE  H13R 2645   2.845   0.598   5.801 -2.7835  1.3850 -0.3088
   21DOPE  H13S 2646   2.735   0.479   5.875 -3.7237 -0.5823 -2.1672
   21DOPE  C214 2647   2.717   0.499   5.655  0.2259 -0.0550 -0.5753
   21DOPE  H14R 2648   2.629   0.567   5.665 -0.7920 -1.2474 -1.0327
   21DOPE  H14S 2649   2.667   0.399   5.654  0.2750 -0.1031  0.5597
   21DOPE  C215 2650   2.780   0.534   5.518 -0.0149 -0.5724  0.1989
   21DOPE  H15R 2651   2.839   0.448   5.478  0.7693  0.2624 -0.4837
   21DOPE  H15S 2652   2.844   0.624   5.524  0.2875 -0.7529 -0.2415
   21DOPE  C216 2653   2.659   0.540   5.415  0.0366  0.4673  0.6497
   21DOPE  H16R 2654   2.576   0.580   5.477 -1.9020 -1.3602 -0.6240
   21DOPE  H16S 2655   2.642   0.434   5.385  1.2575  0.1274  1.0766
   21DOPE  C217 2656   2.684   0.636   5.297 -0.8731  0.9234  0.6429
   21DOPE  H17R 2657   2.690   0.742   5.329  0.6733  0.7852  0.8702
   21DOPE  H17S 2658   2.589   0.637   5.239 -0.0139 -0.3453 -0.9002
   21DOPE  C218 2659   2.809   0.607   5.202 -0.6245  0.1772 -0.1471
   21DOPE  H18R 2660   2.903   0.596   5.261 -1.6124  0.2899  1.4919
   21DOPE  H18S 2661   2.813   0.694   5.133  0.9703 -0.6270 -1.1439
   21DOPE  H18T 2662   2.813   0.517   5.137  1.3950 -0.6295  0.9838
   21DOPE   C33 2663   3.567   0.820   6.855 -1.0451 -0.0058  0.1793
   21DOPE   H3X 2664   3.654   0.844   6.920 -0.0812 -1.4939 -0.5229
   21DOPE   H3Y 2665   3.494   0.901   6.876  1.4300  2.3395  0.3693
   21DOPE   C34 2666   3.592   0.848   6.705 -0.1606 -0.6926  0.2356
   21DOPE   H4X 2667   3.632   0.951   6.696  2.4377 -1.6771 -0.2281
   21DOPE   H4Y 2668   3.675   0.784   6.667  0.0876 -0.4421  0.3542
   21DOPE   C35 2669   3.475   0.840   6.605  0.1817 -0.3673 -0.5036
   21DOPE   H5X 2670   3.394   0.900   6.652  1.1479  0.8360 -0.3382
   21DOPE   H5Y 2671   3.432   0.739   6.588  0.1810 -0.3893 -0.3735
   21DOPE   C36 2672   3.508   0.892   6.463  0.7166  0.9104  0.5241
   21DOPE   H6X 2673   3.601   0.844   6.424 -1.2541 -2.0861 -0.8873
   21DOPE   H6Y 2674   3.524   1.001   6.451  1.1359  0.7013 -1.0269
   21DOPE   C37 2675   3.393   0.849   6.369  0.2787  0.5250 -0.2156
   21DOPE   H7X 2676   3.326   0.770   6.410  0.8716 -0.5321 -1.2107
   21DOPE   H7Y 2677   3.327   0.938   6.360  0.1437  0.6368  1.5510
   21DOPE   C38 2678   3.453   0.812   6.232 -0.0654 -0.5196 -0.7847
   21DOPE   H8X 2679   3.562   0.796   6.239  0.3129  2.2656  2.0078
   21DOPE   H8Y 2680   3.450   0.904   6.170  1.3106  0.1023  0.0235
   21DOPE   C39 2681   3.368   0.706   6.162 -0.1833 -0.3688 -0.1202
   21DOPE   H9X 2682   3.394   0.602   6.184 -2.5544 -1.4372 -1.8759
   21DOPE  C310 2683   3.263   0.720   6.082  0.7202  0.0815  0.2516
   21DOPE  H10X 2684   3.207   0.629   6.058  1.6851  0.0244 -1.9826
   21DOPE  C311 2685   3.199   0.839   6.022  0.1593 -0.1946  0.1089
   21DOPE  H11X 2686   3.090   0.852   6.038  0.1923 -1.1732  1.2407
   21DOPE  H11Y 2687   3.246   0.925   6.075 -1.7945  0.4334  0.8820
   21DOPE  C312 2688   3.232   0.846   5.870 -0.7623  0.3603 -0.2650
   21DOPE  H12X 2689   3.340   0.863   5.850 -0.7937 -0.0695 -0.8288
   21DOPE  H12Y 2690   3.187   0.943   5.840 -1.5777 -0.0191 -0.3017
   21DOPE  C313 2691   3.165   0.735   5.787  0.1089  0.3272  0.3842
   21DOPE  H13X 2692   3.225   0.642   5.791  0.1287  0.3749  1.6816
   21DOPE  H13Y 2693   3.069   0.713   5.839 -0.3501  0.5295 -0.3643
   21DOPE  C314 2694   3.135   0.788   5.644  0.5474 -0.2888 -0.2800
   21DOPE  H14X 2695   3.097   0.892   5.654 -0.4425 -0.7373  0.7040
   21DOPE  H14Y 2696   3.053   0.723   5.608  0.8526 -0.0485 -1.4686
   21DOPE  C315 2697   3.246   0.794   5.546  0.2096 -0.3106 -0.3668
   21DOPE  H15X 2698   3.319   0.864   5.594  0.1624 -0.6748  0.2514
   21DOPE  H15Y 2699   3.209   0.828   5.447  1.7193  0.9557 -0.5475
   21DOPE  C316 2700   3.306   0.659   5.514 -0.6264 -0.0749  0.4499
   21DOPE  H16X 2701   3.336   0.627   5.616 -1.4421 -2.0939  0.1089
   21DOPE  H16Y 2702   3.402   0.674   5.459  0.2499 -0.1666  1.8912
   21DOPE  C317 2703   3.207   0.557   5.450 -1.1280 -0.3209 -0.2028
   21DOPE  H17X 2704   3.126   0.537   5.523 -0.7231 -0.5949  0.1742
   21DOPE  H17Y 2705   3.151   0.607   5.368 -1.0819 -1.5779 -1.0299
   21DOPE  C318 2706   3.273   0.426   5.401 -0.0040  0.2115  0.0838
   21DOPE  H18X 2707   3.202   0.360   5.348  0.5327 -1.3666  1.2548
   21DOPE  H18Y 2708   3.354   0.450   5.328  0.4919 -1.8174 -0.0908
   21DOPE  H18Z 2709   3.315   0.369   5.486 -1.2603 -1.6215 -0.4773
   22DOPE     N 2710   5.594   5.521   7.769  0.1527  0.3334 -0.2331
   22DOPE   HN1 2711   5.601   5.474   7.862  1.4894  0.8971 -0.0146
   22DOPE   HN2 2712   5.504   5.572   7.762  0.6677  1.3616  0.2067
   22DOPE   HN3 2713   5.595   5.440   7.704 -1.2771  1.3342 -1.5660
   22DOPE   C12 2714   5.700   5.621   7.739 -0.3151  0.0196  0.1496
   22DOPE  H12A 2715   5.689   5.657   7.634  0.0746  1.5834  0.6140
   22DOPE  H12B 2716   5.804   5.584   7.754 -0.2657  0.4524  0.9296
   22DOPE   C11 2717   5.674   5.752   7.819  0.5442 -0.7721 -0.0250
   22DOPE  H11A 2718   5.754   5.822   7.787  0.5101 -0.5640  0.3316
   22DOPE  H11B 2719   5.694   5.719   7.923 -0.3844 -1.8022 -0.1653
   22DOPE     P 2720   5.508   5.914   7.687  0.3360 -0.2765  0.0004
   22DOPE   O13 2721   5.581   6.037   7.715  0.1510 -0.6416  0.0382
   22DOPE   O14 2722   5.365   5.918   7.685  0.1782  0.3221  0.0938
   22DOPE   O11 2723   5.571   5.836   7.567  0.3607  0.0465 -0.2253
   22DOPE   O12 2724   5.539   5.808   7.799  0.1150 -0.1693 -0.0595
   22DOPE    C1 2725   5.598   5.902   7.443 -0.4181  0.1474 -0.6269
   22DOPE    HA 2726   5.608   6.012   7.451 -0.9224  0.2219 -0.9474
   22DOPE    HB 2727   5.513   5.880   7.374 -1.8676 -0.1171  1.1686
   22DOPE    C2 2728   5.727   5.847   7.382  0.8608  0.0258  0.5392
   22DOPE    HS 2729   5.738   5.922   7.300 -0.7782 -1.1937 -0.8684
   22DOPE   O21 2730   5.706   5.718   7.323 -0.3894 -0.1122  0.3316
   22DOPE   C21 2731   5.798   5.677   7.240 -0.4403  0.9736 -0.3183
   22DOPE   O22 2732   5.883   5.749   7.185 -0.5743  0.6430 -0.1479
   22DOPE   C22 2733   5.777   5.527   7.215 -0.4602 -0.5756  0.4761
   22DOPE   H2R 2734   5.674   5.512   7.176 -0.6022 -0.8345  0.9441
   22DOPE   H2S 2735   5.786   5.487   7.318 -0.0002 -0.2770  0.5559
   22DOPE    C3 2736   5.847   5.854   7.488 -0.3306 -0.4703  0.2356
   22DOPE    HX 2737   5.849   5.752   7.533 -0.7499  0.6601  3.0133
   22DOPE    HY 2738   5.819   5.923   7.570  0.6190  1.1835 -0.7848
   22DOPE   O31 2739   5.980   5.878   7.437 -0.0671  0.5227 -0.1608
   22DOPE   C31 2740   5.995   5.992   7.377  0.2587 -0.3974  0.5718
   22DOPE   O32 2741   5.920   6.086   7.397  0.5456 -0.4955  0.5702
   22DOPE   C32 2742   6.123   5.998   7.297  0.0073  0.3006  0.0005
   22DOPE   H2X 2743   6.205   6.023   7.368  1.3633  0.9539 -1.7167
   22DOPE   H2Y 2744   6.132   5.895   7.256 -0.0212  1.2951 -2.7332
   22DOPE   C23 2745   5.887   5.457   7.131 -0.1120 -0.2954 -0.3611
   22DOPE   H3R 2746   5.988   5.500   7.147 -0.5412  0.9332 -0.8688
   22DOPE   H3S 2747   5.854   5.478   7.027 -3.6257  0.1071  0.6925
   22DOPE   C24 2748   5.900   5.306   7.174  0.8038 -0.5814  0.2338
   22DOPE   H4R 2749   5.900   5.302   7.285 -3.2030 -0.8449  0.3833
   22DOPE   H4S 2750   5.990   5.259   7.129 -0.1103 -3.2130  0.9272
   22DOPE   C25 2751   5.788   5.212   7.116  0.4427 -0.1642 -0.0810
   22DOPE   H5R 2752   5.784   5.235   7.007 -0.9642  0.3793  0.0707
   22DOPE   H5S 2753   5.695   5.248   7.164  0.9306 -0.4758  1.1498
   22DOPE   C26 2754   5.795   5.066   7.159  0.1205 -0.5553  0.3825
   22DOPE   H6R 2755   5.810   5.060   7.269  0.2468 -1.1527  0.3382
   22DOPE   H6S 2756   5.884   5.031   7.102 -0.5629  0.7344 -1.6139
   22DOPE   C27 2757   5.683   4.979   7.100  0.2471 -0.2914 -0.4871
   22DOPE   H7R 2758   5.671   4.996   6.991 -0.0106 -0.5828 -0.5068
   22DOPE   H7S 2759   5.588   5.000   7.155  0.1014 -0.0707 -0.8249
   22DOPE   C28 2760   5.714   4.830   7.120 -0.1959 -0.0767  0.0499
   22DOPE   H8R 2761   5.749   4.814   7.224  0.6681  0.1845 -0.1964
   22DOPE   H8S 2762   5.803   4.821   7.054 -1.7096 -0.9294 -1.9964
   22DOPE   C29 2763   5.613   4.729   7.078  1.0020  0.0701 -0.6221
   22DOPE   H9R 2764   5.545   4.707   7.162  1.5306  0.4766 -0.0729
   22DOPE  C210 2765   5.598   4.667   6.956 -0.5432  0.2810  0.0422
   22DOPE  H10R 2766   5.523   4.587   6.946  0.2967 -0.4348 -0.6677
   22DOPE  C211 2767   5.689   4.686   6.834  0.3882  0.9338 -0.0972
   22DOPE  H11R 2768   5.677   4.605   6.760 -0.4096  2.2629 -1.4593
   22DOPE  H11S 2769   5.790   4.671   6.879  0.6071  1.3388 -0.4497
   22DOPE  C212 2770   5.696   4.826   6.763 -0.4277  0.8856 -0.3180
   22DOPE  H12R 2771   5.750   4.897   6.829  0.5732 -0.6872  0.5983
   22DOPE  H12S 2772   5.592   4.859   6.738 -0.0344  1.0360 -1.8906
   22DOPE  C213 2773   5.761   4.808   6.625 -0.4997  1.0976 -0.1992
   22DOPE  H13R 2774   5.715   4.727   6.564  1.7856  0.3592 -1.0493
   22DOPE  H13S 2775   5.862   4.767   6.642 -0.3565  2.1340  1.7406
   22DOPE  C214 2776   5.763   4.944   6.548 -0.4621 -0.0830 -0.7423
   22DOPE  H14R 2777   5.827   5.020   6.598 -0.4012 -0.1502 -0.7156
   22DOPE  H14S 2778   5.661   4.984   6.532 -1.3840 -1.9581  0.1826
   22DOPE  C215 2779   5.826   4.934   6.403 -0.0132 -0.1460  0.6395
   22DOPE  H15R 2780   5.753   4.880   6.339 -0.5001  1.5097 -0.2477
   22DOPE  H15S 2781   5.928   4.890   6.397  1.4358  3.0883 -0.8464
   22DOPE  C216 2782   5.834   5.074   6.332  0.2009 -0.3710 -0.2339
   22DOPE  H16R 2783   5.798   5.152   6.402 -2.8060 -0.3729 -1.6055
   22DOPE  H16S 2784   5.766   5.075   6.244  2.4041  0.5008 -2.0282
   22DOPE  C217 2785   5.982   5.099   6.297 -0.1173 -0.1797 -0.3020
   22DOPE  H17R 2786   6.016   5.025   6.222 -1.7424 -0.3592 -0.8986
   22DOPE  H17S 2787   6.039   5.073   6.388  1.5630 -1.7446 -1.7220
   22DOPE  C218 2788   6.013   5.232   6.242  0.0597 -0.3608 -0.2532
   22DOPE  H18R 2789   6.118   5.239   6.206 -0.2905 -0.0702 -1.2468
   22DOPE  H18S 2790   6.002   5.315   6.316  1.9520  0.5697 -0.9300
   22DOPE  H18T 2791   5.946   5.246   6.155  0.0461  3.1274  0.1488
   22DOPE   C33 2792   6.138   6.107   7.194 -0.6396 -0.3405  0.3369
   22DOPE   H3X 2793   6.235   6.088   7.144 -0.0110  0.6676  1.1393
   22DOPE   H3Y 2794   6.148   6.206   7.243 -1.2125 -0.0044 -0.2230
   22DOPE   C34 2795   6.025   6.103   7.095 -0.0388 -0.0793  0.4632
   22DOPE   H4X 2796   5.975   6.004   7.090  1.7215 -0.9533 -1.0055
   22DOPE   H4Y 2797   5.963   6.184   7.140  1.9083  0.9231  1.5055
   22DOPE   C35 2798   6.063   6.142   6.949 -0.1386  0.2396 -0.8000
   22DOPE   H5X 2799   6.129   6.057   6.923 -0.0400  0.5903 -1.7325
   22DOPE   H5Y 2800   6.124   6.234   6.940  1.6319 -0.6050  1.7952
   22DOPE   C36 2801   5.940   6.132   6.852 -0.1585 -0.6627 -0.1152
   22DOPE   H6X 2802   5.914   6.024   6.853  0.6708 -0.8672  0.7416
   22DOPE   H6Y 2803   5.977   6.164   6.752 -0.1191  0.4486  0.2403
   22DOPE   C37 2804   5.820   6.223   6.878  0.1024 -0.3012 -0.3902
   22DOPE   H7X 2805   5.778   6.208   6.980 -0.3944  1.5287 -0.2972
   22DOPE   H7Y 2806   5.851   6.330   6.871  0.4843 -0.4090 -0.3929
   22DOPE   C38 2807   5.699   6.201   6.787 -0.5470 -0.5638  0.0544
   22DOPE   H8X 2808   5.610   6.255   6.826 -1.8654 -2.4418 -0.2184
   22DOPE   H8Y 2809   5.675   6.093   6.805 -0.3796 -0.3297  1.8657
   22DOPE   C39 2810   5.715   6.252   6.643 -0.1470  0.2955  0.0337
   22DOPE   H9X 2811   5.785   6.335   6.629 -0.5602  0.8200  0.9592
   22DOPE  C310 2812   5.625   6.220   6.550  0.4741 -0.0826 -0.0895
   22DOPE  H10X 2813   5.653   6.262   6.453  1.9884 -0.4430  0.1630
   22DOPE  C311 2814   5.501   6.131   6.561  0.1513 -0.1972  0.0117
   22DOPE  H11X 2815   5.457   6.142   6.662 -1.2055  1.0220 -0.6638
   22DOPE  H11Y 2816   5.424   6.165   6.488  0.4217  1.7647  0.5961
   22DOPE  C312 2817   5.542   5.981   6.532  0.1680 -0.2925  0.0491
   22DOPE  H12X 2818   5.444   5.929   6.531  1.3924 -2.8222 -1.9046
   22DOPE  H12Y 2819   5.595   5.937   6.620  0.2911  1.7763  1.0539
   22DOPE  C313 2820   5.606   5.949   6.401 -0.3329  0.2453  0.0243
   22DOPE  H13X 2821   5.714   5.973   6.412 -0.0534 -1.5992  1.8990
   22DOPE  H13Y 2822   5.593   5.839   6.393 -1.3103  0.3774 -0.3335
   22DOPE  C314 2823   5.546   6.026   6.276  0.0224 -0.2169  0.1679
   22DOPE  H14X 2824   5.556   6.137   6.276 -1.4534 -0.0516 -1.4735
   22DOPE  H14Y 2825   5.440   5.993   6.266  0.7645 -2.3255 -1.4817
   22DOPE  C315 2826   5.616   5.981   6.145 -1.1668 -0.3029 -0.3088
   22DOPE  H15X 2827   5.600   5.874   6.121 -0.7393 -0.6713  0.9659
   22DOPE  H15Y 2828   5.727   5.984   6.152 -1.2035 -1.5882  3.9664
   22DOPE  C316 2829   5.573   6.056   6.016  0.1648 -0.4343  0.4939
   22DOPE  H16X 2830   5.462   6.047   6.017  0.2024 -0.9418  0.2057
   22DOPE  H16Y 2831   5.601   6.002   5.923 -2.8137 -0.5193 -0.4474
   22DOPE  C317 2832   5.616   6.201   6.001 -0.1375  0.1859 -0.4183
   22DOPE  H17X 2833   5.569   6.259   6.084  2.1502  2.7402 -0.7988
   22DOPE  H17Y 2834   5.723   6.226   6.012  0.1160 -0.7474 -0.6999
   22DOPE  C318 2835   5.569   6.259   5.873 -0.3597  0.4196 -0.0981
   22DOPE  H18X 2836   5.603   6.365   5.876 -0.4581  0.4663 -0.5484
   22DOPE  H18Y 2837   5.617   6.200   5.792  1.5283  1.7102  0.0035
   22DOPE  H18Z 2838   5.459   6.250   5.870 -0.6586  3.2114  0.1794
   23DOPE     N 2839   5.251   7.364   8.221  0.4231 -0.2298 -0.1687
   23DOPE   HN1 2840   5.267   7.436   8.294  0.8413  0.9687 -1.4176
   23DOPE   HN2 2841   5.333   7.301   8.208  1.1775  0.2320  1.9061
   23DOPE   HN3 2842   5.236   7.426   8.139 -0.7232  1.5521  1.3161
   23DOPE   C12 2843   5.126   7.284   8.219  0.6939 -0.0910 -0.9449
   23DOPE  H12A 2844   5.042   7.352   8.244  0.6660 -0.0550 -1.1334
   23DOPE  H12B 2845   5.121   7.215   8.305  1.6243 -1.1519 -1.7063
   23DOPE   C11 2846   5.107   7.197   8.099  0.3456 -0.6375 -0.7038
   23DOPE  H11A 2847   5.009   7.151   8.128  0.6957 -0.3340  1.0501
   23DOPE  H11B 2848   5.191   7.125   8.102  0.9096  0.0224 -0.5398
   23DOPE     P 2849   5.036   7.203   7.851 -0.4082  0.4835  0.0324
   23DOPE   O13 2850   4.895   7.175   7.869  0.4296  0.0785  0.2676
   23DOPE   O14 2851   5.131   7.085   7.829  0.5299 -0.0486  0.1263
   23DOPE   O11 2852   5.059   7.307   7.731 -0.4760 -0.0922  0.2324
   23DOPE   O12 2853   5.091   7.279   7.979 -0.7035 -0.1262  0.2798
   23DOPE    C1 2854   5.179   7.372   7.704  0.2810  0.3990  0.2289
   23DOPE    HA 2855   5.243   7.301   7.647  0.4699  1.1914 -0.5577
   23DOPE    HB 2856   5.224   7.398   7.802 -1.6988  2.7629  0.5912
   23DOPE    C2 2857   5.160   7.491   7.606 -0.4372 -0.3095  0.1951
   23DOPE    HS 2858   5.084   7.566   7.638 -0.6618 -0.2473 -0.4520
   23DOPE   O21 2859   5.121   7.430   7.475 -0.4677 -0.1125  0.0338
   23DOPE   C21 2860   5.052   7.508   7.392 -0.5973  1.0287  0.3858
   23DOPE   O22 2861   5.007   7.621   7.410 -0.1766 -0.2839 -0.4211
   23DOPE   C22 2862   5.025   7.427   7.266 -0.0050  0.0058  0.3379
   23DOPE   H2R 2863   4.921   7.388   7.268  0.9684 -2.8328 -0.4422
   23DOPE   H2S 2864   5.094   7.340   7.264  1.1146  0.8291 -2.3549
   23DOPE    C3 2865   5.303   7.554   7.582  0.0527 -0.6314  0.3984
   23DOPE    HX 2866   5.360   7.464   7.551 -0.8228 -1.9713  2.4941
   23DOPE    HY 2867   5.344   7.583   7.681 -0.6128 -0.4427  0.6192
   23DOPE   O31 2868   5.306   7.655   7.479  0.4461  0.9251  0.5911
   23DOPE   C31 2869   5.255   7.774   7.522  0.5365  0.1789  0.4495
   23DOPE   O32 2870   5.222   7.804   7.635  0.3721 -0.2072  0.6927
   23DOPE   C32 2871   5.240   7.869   7.405 -0.4896 -1.2791 -0.0706
   23DOPE   H2X 2872   5.337   7.865   7.351  0.0799 -0.4395  0.8560
   23DOPE   H2Y 2873   5.173   7.825   7.329 -3.4845  1.4209  0.7647
   23DOPE   C23 2874   5.072   7.505   7.144 -0.3289 -0.0064 -0.4862
   23DOPE   H3R 2875   5.006   7.595   7.139  0.2337  0.4440  0.1393
   23DOPE   H3S 2876   5.046   7.453   7.049 -1.1798  0.7255 -0.6775
   23DOPE   C24 2877   5.217   7.537   7.131 -0.2555 -0.4048  0.3460
   23DOPE   H4R 2878   5.282   7.450   7.110  1.8834  1.7466 -2.6837
   23DOPE   H4S 2879   5.246   7.582   7.229 -2.7494  0.1234  0.9139
   23DOPE   C25 2880   5.259   7.639   7.025  0.1420 -0.4048  0.1971
   23DOPE   H5R 2881   5.200   7.732   7.032 -0.5151 -0.6188 -1.7418
   23DOPE   H5S 2882   5.219   7.596   6.930 -0.7245 -1.4706  1.0147
   23DOPE   C26 2883   5.406   7.661   7.020  0.2452  0.2076  0.4305
   23DOPE   H6R 2884   5.447   7.558   7.015 -0.6027 -0.1875  1.3216
   23DOPE   H6S 2885   5.424   7.701   7.122  1.1804 -0.1962  0.4333
   23DOPE   C27 2886   5.468   7.749   6.909  0.3581  0.4203  0.3903
   23DOPE   H7R 2887   5.573   7.778   6.929  0.9761 -1.0184 -0.5957
   23DOPE   H7S 2888   5.411   7.844   6.902 -0.7174 -0.0171  2.3571
   23DOPE   C28 2889   5.475   7.686   6.762 -0.5997 -1.1097 -0.3721
   23DOPE   H8R 2890   5.527   7.755   6.692 -2.1413 -1.1280 -1.6007
   23DOPE   H8S 2891   5.368   7.676   6.732 -2.0463  0.5517  3.5828
   23DOPE   C29 2892   5.543   7.552   6.760 -0.3791 -0.0497  0.6797
   23DOPE   H9R 2893   5.635   7.555   6.821  1.1389  2.0995 -1.4737
   23DOPE  C210 2894   5.497   7.431   6.714 -0.6886  0.2063 -0.1706
   23DOPE  H10R 2895   5.569   7.347   6.712  0.8669  1.4657  0.6547
   23DOPE  C211 2896   5.367   7.405   6.642 -0.4321 -0.1631 -0.3921
   23DOPE  H11R 2897   5.303   7.495   6.651 -1.1151 -0.8153  1.9242
   23DOPE  H11S 2898   5.311   7.320   6.688 -3.0169  2.3218  1.4039
   23DOPE  C212 2899   5.389   7.387   6.492 -0.0339  0.3812  0.5048
   23DOPE  H12R 2900   5.306   7.326   6.450  1.7188 -1.0497 -1.0713
   23DOPE  H12S 2901   5.488   7.338   6.482 -0.2014  0.3114 -1.0080
   23DOPE  C213 2902   5.389   7.528   6.420 -0.3901  0.0731  0.1993
   23DOPE  H13R 2903   5.459   7.599   6.470 -2.0771  1.2829  0.9472
   23DOPE  H13S 2904   5.286   7.569   6.429 -0.6046 -0.7581  1.8106
   23DOPE  C214 2905   5.432   7.525   6.278  0.3322  0.9245  0.3026
   23DOPE  H14R 2906   5.398   7.623   6.238  1.4292  0.4189 -2.0157
   23DOPE  H14S 2907   5.367   7.449   6.229  1.1468  0.1101  0.4523
   23DOPE  C215 2908   5.581   7.511   6.247 -0.2341 -0.1877  0.4967
   23DOPE  H15R 2909   5.621   7.423   6.301  1.1564  0.4298  0.5228
   23DOPE  H15S 2910   5.642   7.597   6.281 -0.6212  0.2420  0.1266
   23DOPE  C216 2911   5.599   7.490   6.096 -0.3380 -0.2571 -0.1228
   23DOPE  H16R 2912   5.527   7.552   6.039 -0.7211  0.5068  1.1531
   23DOPE  H16S 2913   5.577   7.385   6.067 -0.5279 -0.4471  0.6865
   23DOPE  C217 2914   5.748   7.514   6.054 -0.0191  0.0210 -0.6009
   23DOPE  H17R 2915   5.812   7.446   6.114 -2.4571 -1.6426  0.2462
   23DOPE  H17S 2916   5.768   7.622   6.075  0.5508 -0.1019 -0.5055
   23DOPE  C218 2917   5.775   7.489   5.906  0.7039  0.3856 -0.0147
   23DOPE  H18R 2918   5.718   7.564   5.847 -0.1229  1.0647  1.5888
   23DOPE  H18S 2919   5.743   7.389   5.870 -0.4287  0.7431 -0.0466
   23DOPE  H18T 2920   5.879   7.501   5.871  0.3865  1.1903 -0.7064
   23DOPE   C33 2921   5.183   8.005   7.449 -0.0261 -0.1641 -0.3352
   23DOPE   H3X 2922   5.260   8.073   7.492 -0.1892 -0.3683  0.2831
   23DOPE   H3Y 2923   5.109   7.989   7.529  2.4029 -1.5922  1.7910
   23DOPE   C34 2924   5.123   8.076   7.321  0.8226  0.1942 -0.3266
   23DOPE   H4X 2925   5.045   8.010   7.278  0.9211 -0.5491  0.5841
   23DOPE   H4Y 2926   5.067   8.165   7.355  0.1068 -0.7760  1.1761
   23DOPE   C35 2927   5.228   8.108   7.216 -0.6223 -0.3476 -0.0157
   23DOPE   H5X 2928   5.237   8.022   7.146 -0.4492  0.0531 -0.4960
   23DOPE   H5Y 2929   5.324   8.135   7.266 -1.7829  2.5371  0.8501
   23DOPE   C36 2930   5.201   8.244   7.137 -0.2934  0.9739 -0.4382
   23DOPE   H6X 2931   5.200   8.329   7.209  0.6493  1.2391 -0.7220
   23DOPE   H6Y 2932   5.101   8.234   7.090 -1.0859 -1.2404  1.5172
   23DOPE   C37 2933   5.315   8.257   7.038 -0.2921 -0.0504  0.8394
   23DOPE   H7X 2934   5.406   8.258   7.100  1.4368  0.0113 -1.5468
   23DOPE   H7Y 2935   5.320   8.169   6.970 -0.9252 -0.2193  1.0086
   23DOPE   C38 2936   5.318   8.381   6.951  0.1040  0.3230 -0.5370
   23DOPE   H8X 2937   5.421   8.398   6.913  1.7702  2.7484  4.2335
   23DOPE   H8Y 2938   5.311   8.467   7.021 -0.5227  1.8525 -2.3907
   23DOPE   C39 2939   5.194   8.407   6.867 -0.7432 -0.0508  0.6027
   23DOPE   H9X 2940   5.105   8.385   6.927 -0.4638  0.6072  1.2696
   23DOPE  C310 2941   5.190   8.447   6.736  0.1458  0.5323 -0.2291
   23DOPE  H10X 2942   5.089   8.463   6.693 -0.1406 -2.3871 -0.8608
   23DOPE  C311 2943   5.309   8.467   6.648 -0.0797 -0.2418  0.5175
   23DOPE  H11X 2944   5.368   8.551   6.691 -0.2963  0.6214 -0.7924
   23DOPE  H11Y 2945   5.372   8.376   6.650 -1.1352 -0.9723  0.9803
   23DOPE  C312 2946   5.274   8.489   6.499 -0.3868 -0.3539 -0.1887
   23DOPE  H12X 2947   5.212   8.580   6.486 -0.5132 -0.3174  0.6099
   23DOPE  H12Y 2948   5.216   8.405   6.455 -1.2998  1.2321 -2.1373
   23DOPE  C313 2949   5.393   8.509   6.405 -0.4844  0.4573 -0.4774
   23DOPE  H13X 2950   5.459   8.591   6.442  0.4407  0.0459 -1.1708
   23DOPE  H13Y 2951   5.461   8.422   6.400 -0.8214  0.2376 -1.4340
   23DOPE  C314 2952   5.354   8.543   6.260  0.1838 -0.0735 -0.5369
   23DOPE  H14X 2953   5.274   8.620   6.258 -0.1380 -0.3164  1.3086
   23DOPE  H14Y 2954   5.324   8.449   6.210  0.1384  0.4330 -1.4832
   23DOPE  C315 2955   5.471   8.596   6.179 -0.5786 -0.0041  0.1304
   23DOPE  H15X 2956   5.560   8.530   6.193 -0.2645  0.0249 -1.5457
   23DOPE  H15Y 2957   5.512   8.696   6.204  0.1320  0.1086 -1.3762
   23DOPE  C316 2958   5.458   8.625   6.022  0.5454  0.0837 -0.1085
   23DOPE  H16X 2959   5.436   8.526   5.977 -0.3396  0.8046 -1.3448
   23DOPE  H16Y 2960   5.562   8.653   5.993  1.0532 -1.0720  0.5239
   23DOPE  C317 2961   5.337   8.716   5.992 -0.0973 -0.1538  0.0082
   23DOPE  H17X 2962   5.246   8.684   6.048 -0.3374  0.3608 -0.0858
   23DOPE  H17Y 2963   5.347   8.822   6.024  1.6740 -0.4753  0.6225
   23DOPE  C318 2964   5.302   8.720   5.846 -0.5005  0.5139  0.4985
   23DOPE  H18X 2965   5.213   8.783   5.825  1.3439  2.4937 -2.0549
   23DOPE  H18Y 2966   5.388   8.764   5.792 -0.1234 -0.8359 -0.0380
   23DOPE  H18Z 2967   5.273   8.617   5.815 -0.1865  0.0930  1.5749
   24DOPE     N 2968   7.062   5.593   7.649  1.1197  0.1490 -0.2117
   24DOPE   HN1 2969   7.071   5.594   7.545 -1.9470 -2.4950 -0.6395
   24DOPE   HN2 2970   7.064   5.491   7.667 -1.3430  0.1112  0.1179
   24DOPE   HN3 2971   6.978   5.644   7.681  1.5869  1.5297 -1.0733
   24DOPE   C12 2972   7.176   5.660   7.716 -0.7317 -0.4954 -0.2624
   24DOPE  H12A 2973   7.265   5.641   7.652 -1.8388 -0.2454 -1.9101
   24DOPE  H12B 2974   7.180   5.617   7.819 -2.1110 -1.5695 -0.6415
   24DOPE   C11 2975   7.141   5.811   7.723 -0.5736 -0.3690  0.4699
   24DOPE  H11A 2976   7.231   5.863   7.762  0.3094 -0.2305 -1.6248
   24DOPE  H11B 2977   7.049   5.828   7.783 -3.0987 -1.2124 -2.8502
   24DOPE     P 2978   7.203   5.925   7.493 -0.3466 -0.0870 -0.0091
   24DOPE   O13 2979   7.124   5.961   7.377  0.9649 -0.4433  0.3279
   24DOPE   O14 2980   7.324   5.842   7.480  0.6121  0.2413 -0.2636
   24DOPE   O11 2981   7.241   6.053   7.575 -0.2278  0.2507  0.0034
   24DOPE   O12 2982   7.112   5.855   7.591  0.0748  0.4672 -0.0175
   24DOPE    C1 2983   7.148   6.147   7.619  0.5296 -0.3292 -0.6427
   24DOPE    HA 2984   7.174   6.183   7.720  2.4537  0.5236 -1.3879
   24DOPE    HB 2985   7.044   6.109   7.624 -0.3620  1.9140 -1.0750
   24DOPE    C2 2986   7.153   6.273   7.521 -0.5051 -0.4629  0.2438
   24DOPE    HS 2987   7.075   6.346   7.554 -0.7797  0.9195 -3.1170
   24DOPE   O21 2988   7.131   6.238   7.384 -0.2153  0.6317 -0.3230
   24DOPE   C21 2989   7.007   6.203   7.351  0.7040 -0.0660 -0.5852
   24DOPE   O22 2990   6.916   6.193   7.431  0.6204  0.6444  0.5156
   24DOPE   C22 2991   6.986   6.187   7.196 -0.0691 -1.0395 -0.2199
   24DOPE   H2R 2992   6.878   6.176   7.172 -0.4143 -1.1592  1.2524
   24DOPE   H2S 2993   7.024   6.086   7.170  0.6470 -0.9671  0.5158
   24DOPE    C3 2994   7.287   6.350   7.537 -0.1089 -0.0678  0.2108
   24DOPE    HX 2995   7.376   6.288   7.513 -0.0884 -0.0415  0.2181
   24DOPE    HY 2996   7.321   6.358   7.642 -0.1445 -2.8753  0.4890
   24DOPE   O31 2997   7.301   6.477   7.465 -0.1113  0.2117  0.1406
   24DOPE   C31 2998   7.385   6.475   7.357  0.0794  0.6117 -0.4990
   24DOPE   O32 2999   7.441   6.373   7.320  0.4302  0.0463 -0.5262
   24DOPE   C32 3000   7.400   6.610   7.296  0.0607 -0.3361  0.0665
   24DOPE   H2X 3001   7.377   6.689   7.370 -0.9148  0.3213 -0.9122
   24DOPE   H2Y 3002   7.509   6.628   7.283 -0.5004  2.4376 -1.5912
   24DOPE   C23 3003   7.053   6.303   7.121  0.1935  0.3858  0.3422
   24DOPE   H3R 3004   7.161   6.302   7.145  0.7008 -0.3721 -1.7450
   24DOPE   H3S 3005   7.011   6.399   7.157  0.3051  0.3677  0.5178
   24DOPE   C24 3006   7.046   6.276   6.976  0.2779 -0.4860  0.3089
   24DOPE   H4R 3007   7.118   6.200   6.939  0.3864 -0.4427  0.4289
   24DOPE   H4S 3008   7.079   6.373   6.933 -1.3719 -0.1041 -0.1962
   24DOPE   C25 3009   6.901   6.260   6.917 -0.1276 -0.3577  0.1116
   24DOPE   H5R 3010   6.835   6.334   6.967  1.5240  1.3948 -0.2058
   24DOPE   H5S 3011   6.876   6.157   6.952  0.5666  0.0729  2.0079
   24DOPE   C26 3012   6.881   6.251   6.764  0.4066 -0.1962 -0.2429
   24DOPE   H6R 3013   6.918   6.151   6.733  1.5622  0.5661 -1.4485
   24DOPE   H6S 3014   6.941   6.338   6.728 -3.2654  3.2167  1.0726
   24DOPE   C27 3015   6.736   6.278   6.716  0.1326  0.6378 -0.9329
   24DOPE   H7R 3016   6.701   6.380   6.746 -3.2083 -0.5445 -0.3867
   24DOPE   H7S 3017   6.677   6.199   6.767  2.0597  0.3423  0.9947
   24DOPE   C28 3018   6.711   6.262   6.567  0.1534 -0.3444  0.2821
   24DOPE   H8R 3019   6.600   6.267   6.563  0.2292  1.8640 -0.3845
   24DOPE   H8S 3020   6.746   6.164   6.526 -0.2629 -0.4677  0.2171
   24DOPE   C29 3021   6.761   6.376   6.485  0.6088  0.5350 -0.6778
   24DOPE   H9R 3022   6.854   6.420   6.525  0.3706 -0.5259  1.1557
   24DOPE  C210 3023   6.717   6.424   6.368 -0.1117 -0.2584 -0.0374
   24DOPE  H10R 3024   6.755   6.518   6.325  0.8986 -0.6636 -0.0511
   24DOPE  C211 3025   6.595   6.394   6.292 -0.2708  0.0282  0.2022
   24DOPE  H11R 3026   6.535   6.484   6.267  0.4368  0.4727  0.0696
   24DOPE  H11S 3027   6.525   6.336   6.356  0.8039  0.5622  1.8927
   24DOPE  C212 3028   6.615   6.317   6.167  0.0999 -0.3754  0.2809
   24DOPE  H12R 3029   6.520   6.280   6.125  0.0910  1.3062 -1.3140
   24DOPE  H12S 3030   6.671   6.224   6.191 -2.1823 -1.5946  1.1879
   24DOPE  C213 3031   6.703   6.396   6.065  0.5684  0.4453  0.4247
   24DOPE  H13R 3032   6.801   6.424   6.111  1.2567  0.1387 -0.7959
   24DOPE  H13S 3033   6.647   6.488   6.041  0.0381  0.0200  0.0098
   24DOPE  C214 3034   6.723   6.320   5.932 -0.2156  1.2283  0.0605
   24DOPE  H14R 3035   6.623   6.282   5.900 -0.2452  0.6000  0.8603
   24DOPE  H14S 3036   6.793   6.237   5.955  0.8058  2.2471  0.7035
   24DOPE  C215 3037   6.770   6.411   5.820 -0.6437 -0.1529  0.2494
   24DOPE  H15R 3038   6.857   6.473   5.852  0.5744 -0.8080 -1.6833
   24DOPE  H15S 3039   6.686   6.478   5.791  0.7771  0.8560 -1.8308
   24DOPE  C216 3040   6.811   6.322   5.701  0.1189  0.0368  0.6196
   24DOPE  H16R 3041   6.726   6.253   5.683 -0.4930  0.8380  0.3944
   24DOPE  H16S 3042   6.898   6.256   5.723  1.0595  1.4626  1.3087
   24DOPE  C217 3043   6.843   6.394   5.567  0.0454  0.0515 -0.2567
   24DOPE  H17R 3044   6.750   6.432   5.520 -0.0783  1.9736  1.4034
   24DOPE  H17S 3045   6.883   6.316   5.498  0.4513  2.3644 -2.8184
   24DOPE  C218 3046   6.955   6.498   5.588  0.1587  0.1371 -0.0943
   24DOPE  H18R 3047   7.001   6.521   5.490  1.1116 -1.3728 -0.0403
   24DOPE  H18S 3048   7.030   6.447   5.652 -0.0953 -0.1498 -0.0190
   24DOPE  H18T 3049   6.917   6.583   5.648 -2.4190 -1.3797  0.6026
   24DOPE   C33 3050   7.321   6.642   7.173 -0.1822 -0.3090 -0.1814
   24DOPE   H3X 3051   7.338   6.574   7.086  1.3489 -1.0316  0.6481
   24DOPE   H3Y 3052   7.353   6.744   7.145 -1.1754  1.5078  4.4268
   24DOPE   C34 3053   7.165   6.666   7.209 -0.0680 -1.0431  0.1704
   24DOPE   H4X 3054   7.128   6.570   7.251  2.0883 -0.5398  3.6781
   24DOPE   H4Y 3055   7.157   6.741   7.291 -1.4997 -0.4610 -0.4619
   24DOPE   C35 3056   7.068   6.695   7.091  0.0795  0.1568  0.4507
   24DOPE   H5X 3057   6.967   6.716   7.132  0.5476 -0.3325  1.9483
   24DOPE   H5Y 3058   7.066   6.607   7.023 -1.2427  0.7175 -0.2584
   24DOPE   C36 3059   7.121   6.815   7.010 -0.5228 -0.0907  0.2339
   24DOPE   H6X 3060   7.062   6.825   6.916  0.9958  2.0687 -0.5743
   24DOPE   H6Y 3061   7.220   6.780   6.974 -0.2952 -0.8568  1.5391
   24DOPE   C37 3062   7.131   6.952   7.086 -0.0421  0.2570 -0.0763
   24DOPE   H7X 3063   7.033   6.974   7.135 -0.2618  0.7967 -0.7423
   24DOPE   H7Y 3064   7.195   6.948   7.176  0.6962  0.4653 -0.5830
   24DOPE   C38 3065   7.175   7.063   6.992 -0.0203 -0.3886 -0.1648
   24DOPE   H8X 3066   7.160   7.161   7.042  0.9402 -0.6972  0.7595
   24DOPE   H8Y 3067   7.101   7.064   6.909 -1.0377  0.4493  0.7290
   24DOPE   C39 3068   7.318   7.039   6.945 -0.1963 -0.2326  0.5547
   24DOPE   H9X 3069   7.382   7.045   7.035 -2.1319  1.7843  1.9159
   24DOPE  C310 3070   7.367   7.016   6.816 -0.1962  0.1444  0.1935
   24DOPE  H10X 3071   7.474   7.009   6.791 -0.8741 -0.2240 -2.9699
   24DOPE  C311 3072   7.276   7.047   6.697  0.5949 -0.2447  0.9475
   24DOPE  H11X 3073   7.181   6.994   6.718 -1.0932  2.4074  0.5110
   24DOPE  H11Y 3074   7.266   7.157   6.697 -1.2434 -0.3902  1.3447
   24DOPE  C312 3075   7.343   7.007   6.566  0.0791  0.2368  0.0688
   24DOPE  H12X 3076   7.270   7.035   6.487  0.7698 -1.7933 -1.3791
   24DOPE  H12Y 3077   7.352   6.897   6.559 -0.7017  0.2486 -1.5815
   24DOPE  C313 3078   7.480   7.082   6.533 -0.8999  0.0485 -0.2834
   24DOPE  H13X 3079   7.457   7.190   6.520 -1.4446 -0.0630 -0.3080
   24DOPE  H13Y 3080   7.550   7.065   6.617 -1.0649 -1.0556 -0.3533
   24DOPE  C314 3081   7.551   7.014   6.411  0.2564  0.2931  0.0805
   24DOPE  H14X 3082   7.586   6.912   6.436  0.0618  0.0783 -0.5109
   24DOPE  H14Y 3083   7.647   7.065   6.387 -1.0860  2.3317 -1.2454
   24DOPE  C315 3084   7.471   7.011   6.275  0.1945 -0.4405  0.0415
   24DOPE  H15X 3085   7.426   7.111   6.257  0.7404 -0.1805  0.0928
   24DOPE  H15Y 3086   7.383   6.946   6.293  0.1131 -0.4835 -0.4923
   24DOPE  C316 3087   7.547   6.961   6.153 -0.0407  0.3677 -0.2784
   24DOPE  H16X 3088   7.569   6.852   6.155 -0.6526  0.2425  1.1418
   24DOPE  H16Y 3089   7.645   7.014   6.155  0.3772 -0.2134 -2.7442
   24DOPE  C317 3090   7.493   7.006   6.013  0.0888 -0.2201  0.0792
   24DOPE  H17X 3091   7.382   7.001   6.022 -0.0832  0.4453 -1.3709
   24DOPE  H17Y 3092   7.513   7.114   5.998  1.5645 -0.3592  0.8940
   24DOPE  C318 3093   7.532   6.921   5.898  0.1057  0.5187  0.4021
   24DOPE  H18X 3094   7.502   6.815   5.915 -1.2854  0.2417 -2.9987
   24DOPE  H18Y 3095   7.476   6.964   5.812  1.5669  1.0167 -0.3348
   24DOPE  H18Z 3096   7.638   6.925   5.866  0.0017 -1.3615 -0.3600
   25DOPE     N 3097   0.918   6.079   7.150  0.6947  0.3127  0.1784
   25DOPE   HN1 3098   0.913   6.040   7.054  1.1763  1.9197 -0.5320
   25DOPE   HN2 3099   0.989   6.026   7.204  0.2156  2.1215  2.7609
   25DOPE   HN3 3100   0.826   6.074   7.199  0.6968 -0.9016  0.0798
   25DOPE   C12 3101   0.965   6.220   7.129  0.1753 -0.0868  0.0703
   25DOPE  H12A 3102   1.064   6.207   7.079  0.8948  3.0245  0.4727
   25DOPE  H12B 3103   0.990   6.270   7.225  0.7763  0.9051 -0.5795
   25DOPE   C11 3104   0.877   6.296   7.026  0.6658 -0.8557  0.2536
   25DOPE  H11A 3105   0.863   6.240   6.931 -1.4263 -1.4293  0.8204
   25DOPE  H11B 3106   0.917   6.394   6.995 -0.9860 -0.8729 -2.1843
   25DOPE     P 3107   0.696   6.417   7.167 -0.5770 -0.2032 -0.4434
   25DOPE   O13 3108   0.812   6.455   7.249  0.0923  0.3704 -0.2394
   25DOPE   O14 3109   0.575   6.369   7.237  0.6605 -0.6932 -0.1990
   25DOPE   O11 3110   0.659   6.534   7.074 -0.0554 -0.1033 -0.1078
   25DOPE   O12 3111   0.746   6.313   7.066  0.2941  0.2451  0.1370
   25DOPE    C1 3112   0.525   6.556   7.032  0.0823 -0.3978  0.0011
   25DOPE    HA 3113   0.511   6.663   7.008  1.5610 -0.5643 -1.8451
   25DOPE    HB 3114   0.450   6.550   7.113  0.3504  2.2480  0.5375
   25DOPE    C2 3115   0.483   6.475   6.903 -0.3944 -0.0621  0.6456
   25DOPE    HS 3116   0.512   6.369   6.918 -2.4947 -0.9256 -0.9499
   25DOPE   O21 3117   0.547   6.541   6.794  0.4084  0.3268  0.1153
   25DOPE   C21 3118   0.571   6.465   6.686 -0.6605  0.8257  0.2821
   25DOPE   O22 3119   0.547   6.347   6.677  0.0476 -0.3790  0.4992
   25DOPE   C22 3120   0.645   6.542   6.578 -0.4272 -0.1510 -0.3905
   25DOPE   H2R 3121   0.746   6.497   6.571 -0.6004 -0.5326 -0.4143
   25DOPE   H2S 3122   0.659   6.646   6.617 -0.3325 -0.3068 -0.0073
   25DOPE    C3 3123   0.327   6.478   6.879 -0.0202  0.3992 -0.7723
   25DOPE    HX 3124   0.297   6.584   6.864  0.7585  0.5214 -1.6212
   25DOPE    HY 3125   0.290   6.439   6.976  0.7595  3.2501  0.7921
   25DOPE   O31 3126   0.272   6.404   6.766 -0.0436  0.0123 -0.2351
   25DOPE   C31 3127   0.275   6.273   6.775  0.7029  0.6230 -0.3367
   25DOPE   O32 3128   0.310   6.203   6.865 -0.7996 -0.2601 -0.6201
   25DOPE   C32 3129   0.239   6.216   6.643  0.2779 -0.4161 -0.3986
   25DOPE   H2X 3130   0.297   6.267   6.564 -0.4782  1.6066  0.2925
   25DOPE   H2Y 3131   0.280   6.113   6.634  0.3512 -0.2601 -2.1015
   25DOPE   C23 3132   0.573   6.557   6.447 -0.0862  0.0121  0.0626
   25DOPE   H3R 3133   0.471   6.599   6.459 -0.4700 -0.9718  0.3877
   25DOPE   H3S 3134   0.543   6.457   6.410 -1.9318  0.6300 -0.2294
   25DOPE   C24 3135   0.646   6.630   6.336 -0.5188  0.2725 -0.0947
   25DOPE   H4R 3136   0.742   6.577   6.316 -0.9580 -1.9173  2.9012
   25DOPE   H4S 3137   0.659   6.734   6.374 -3.2753  0.6750 -0.0345
   25DOPE   C25 3138   0.589   6.640   6.197 -0.0144 -0.0497  0.9105
   25DOPE   H5R 3139   0.494   6.695   6.185  0.3983  0.3902 -0.6798
   25DOPE   H5S 3140   0.569   6.537   6.160  1.1807 -0.2234  0.6980
   25DOPE   C26 3141   0.682   6.723   6.109  0.0147 -0.1457 -0.3156
   25DOPE   H6R 3142   0.777   6.669   6.085  1.0421  1.3824  0.1952
   25DOPE   H6S 3143   0.691   6.826   6.148 -0.2194 -0.4743  0.6501
   25DOPE   C27 3144   0.618   6.743   5.974  0.1953  0.5346  0.2426
   25DOPE   H7R 3145   0.533   6.814   5.981 -1.4034 -1.1342 -1.2279
   25DOPE   H7S 3146   0.571   6.647   5.943  1.8794  0.0853 -1.1362
   25DOPE   C28 3147   0.715   6.799   5.869  0.2755  0.1243 -0.0922
   25DOPE   H8R 3148   0.797   6.726   5.850 -1.4251 -1.6290 -1.0407
   25DOPE   H8S 3149   0.758   6.893   5.910 -0.2396  1.3387 -2.1596
   25DOPE   C29 3150   0.661   6.827   5.735 -0.3245  0.7985  0.1647
   25DOPE   H9R 3151   0.587   6.753   5.699  0.9007  0.3155 -1.4476
   25DOPE  C210 3152   0.709   6.905   5.641  0.6757  0.4697  0.0744
   25DOPE  H10R 3153   0.663   6.897   5.541 -3.2586 -0.1356  1.7485
   25DOPE  C211 3154   0.832   6.988   5.654  0.0389 -0.3960  0.2719
   25DOPE  H11R 3155   0.848   7.029   5.756 -0.3426  2.1835 -0.6397
   25DOPE  H11S 3156   0.821   7.088   5.606  1.2936 -0.2734  0.2243
   25DOPE  C212 3157   0.963   6.931   5.593  0.1749 -0.0752  0.7125
   25DOPE  H12R 3158   1.002   6.854   5.664  2.6894  1.1575  0.8025
   25DOPE  H12S 3159   1.042   7.009   5.596  0.2257 -0.1447  1.5258
   25DOPE  C213 3160   0.952   6.876   5.448  0.6597 -0.8284 -0.1575
   25DOPE  H13R 3161   0.937   6.961   5.378  1.2625 -0.9409 -0.4289
   25DOPE  H13S 3162   0.873   6.800   5.432  2.4075 -2.6408 -0.4586
   25DOPE  C214 3163   1.077   6.797   5.411 -0.6536 -0.2236  0.5000
   25DOPE  H14R 3164   1.087   6.714   5.485 -1.0082  0.6016  1.5006
   25DOPE  H14S 3165   1.162   6.865   5.434 -1.6135  1.3815 -0.4740
   25DOPE  C215 3166   1.078   6.753   5.267  0.1240  0.0775  0.7910
   25DOPE  H15R 3167   1.039   6.832   5.199 -2.7047 -1.8618 -0.0149
   25DOPE  H15S 3168   1.011   6.667   5.247 -0.1229  1.0015 -3.0499
   25DOPE  C216 3169   1.216   6.698   5.224  0.2049 -0.0663  0.2142
   25DOPE  H16R 3170   1.255   6.623   5.296  0.3781 -1.4974 -1.3200
   25DOPE  H16S 3171   1.286   6.784   5.223  0.0944  0.0407 -1.1645
   25DOPE  C217 3172   1.223   6.654   5.076  0.1869 -0.0171 -0.1666
   25DOPE  H17R 3173   1.312   6.589   5.058  0.1273 -0.3355  0.6333
   25DOPE  H17S 3174   1.240   6.742   5.011  0.6846  1.6193  2.0423
   25DOPE  C218 3175   1.100   6.570   5.028 -0.2861  0.5254 -0.3405
   25DOPE  H18R 3176   1.006   6.629   5.033  0.9480  2.5182  2.7061
   25DOPE  H18S 3177   1.082   6.483   5.095  1.0589  0.0256 -0.6056
   25DOPE  H18T 3178   1.124   6.516   4.934 -3.6131 -3.1356  0.6413
   25DOPE   C33 3179   0.086   6.211   6.633  0.2936  0.1892 -0.0332
   25DOPE   H3X 3180   0.051   6.167   6.537  1.4821 -1.6370  0.3236
   25DOPE   H3Y 3181   0.047   6.314   6.622 -0.8005 -0.1639  0.3657
   25DOPE   C34 3182   0.013   6.135   6.740  0.5998  0.3501  0.1354
   25DOPE   H4X 3183   0.012   6.028   6.710  0.0071 -0.3064  2.3202
   25DOPE   H4Y 3184   0.052   6.150   6.843 -1.1320  0.2624  0.8333
   25DOPE   C35 3185  -0.133   6.172   6.727 -0.0160 -0.0429 -0.5314
   25DOPE   H5X 3186  -0.209   6.096   6.753  0.1848  0.2564  1.0164
   25DOPE   H5Y 3187  -0.161   6.207   6.625 -0.9840  0.2045 -0.1889
   25DOPE   C36 3188  -0.163   6.305   6.808  0.2895 -0.1729  0.2657
   25DOPE   H6X 3189  -0.103   6.389   6.769  1.0550 -1.7557 -2.1985
   25DOPE   H6Y 3190  -0.123   6.290   6.910  0.3109  0.3078  0.3305
   25DOPE   C37 3191  -0.316   6.344   6.833 -1.0444  0.2290  0.5655
   25DOPE   H7X 3192  -0.358   6.274   6.909  1.2744 -2.2250 -0.2393
   25DOPE   H7Y 3193  -0.303   6.440   6.886 -2.5140 -0.4120  2.1888
   25DOPE   C38 3194  -0.396   6.355   6.700  0.3969  0.2452 -0.5815
   25DOPE   H8X 3195  -0.500   6.376   6.733  0.4814  2.9902 -1.7977
   25DOPE   H8Y 3196  -0.394   6.255   6.652  0.5232  0.4402 -0.9769
   25DOPE   C39 3197  -0.357   6.468   6.612 -0.3347  0.4790 -0.5728
   25DOPE   H9X 3198  -0.305   6.431   6.522  1.5643  2.8558 -0.5571
   25DOPE  C310 3199  -0.408   6.593   6.615 -0.7551 -0.0671 -0.6536
   25DOPE  H10X 3200  -0.379   6.672   6.545 -2.4390  0.9299 -0.2734
   25DOPE  C311 3201  -0.496   6.647   6.721  0.0963 -0.4250 -0.3566
   25DOPE  H11X 3202  -0.490   6.581   6.811  0.4171 -0.3319 -0.3099
   25DOPE  H11Y 3203  -0.457   6.749   6.742  1.0094 -0.8421  0.0154
   25DOPE  C312 3204  -0.650   6.649   6.680  1.0779  0.1854 -0.1798
   25DOPE  H12X 3205  -0.694   6.701   6.767 -2.6182 -0.2843 -1.6093
   25DOPE  H12Y 3206  -0.692   6.546   6.677  1.2385  0.1343 -1.6363
   25DOPE  C313 3207  -0.670   6.719   6.546  0.5601  0.3842  0.5735
   25DOPE  H13X 3208  -0.605   6.809   6.547  3.7739 -1.6780 -1.8255
   25DOPE  H13Y 3209  -0.634   6.650   6.466 -1.7273  1.1171 -1.2043
   25DOPE  C314 3210  -0.817   6.741   6.512  0.3904  0.5860  0.2993
   25DOPE  H14X 3211  -0.840   6.835   6.568  1.6570  2.4209 -2.1086
   25DOPE  H14Y 3212  -0.883   6.657   6.544 -2.1230  1.5931 -1.8535
   25DOPE  C315 3213  -0.833   6.784   6.369 -0.3046  0.3452  0.1047
   25DOPE  H15X 3214  -0.775   6.714   6.305  0.3895 -0.3048  1.4018
   25DOPE  H15Y 3215  -0.787   6.885   6.355 -0.2943  0.3657  0.2854
   25DOPE  C316 3216  -0.978   6.805   6.331  0.4585  0.2984  0.1102
   25DOPE  H16X 3217  -1.021   6.889   6.389  1.5256  0.8538  0.1204
   25DOPE  H16Y 3218  -1.034   6.712   6.354  1.3705 -0.3384 -0.1753
   25DOPE  C317 3219  -1.001   6.825   6.183 -0.6449 -0.7650  0.4263
   25DOPE  H17X 3220  -0.935   6.903   6.137  0.1461 -1.7181 -0.0908
   25DOPE  H17Y 3221  -0.961   6.735   6.132  0.8744 -0.6242  1.3026
   25DOPE  C318 3222  -1.136   6.869   6.142  0.4336  0.4295  1.2002
   25DOPE  H18X 3223  -1.159   6.974   6.172 -1.8891 -0.1687  1.6833
   25DOPE  H18Y 3224  -1.146   6.859   6.032 -0.8478 -1.4358  1.4471
   25DOPE  H18Z 3225  -1.213   6.804   6.187  0.2714 -0.5509 -0.4195
   26DOPE     N 3226   0.716   7.185   7.352  0.2341  0.1102 -0.0129
   26DOPE   HN1 3227   0.815   7.155   7.353  0.1892 -0.0339  0.2501
   26DOPE   HN2 3228   0.694   7.187   7.251  0.1987 -0.8986 -0.0290
   26DOPE   HN3 3229   0.707   7.277   7.401  0.4102 -1.2632  2.8508
   26DOPE   C12 3230   0.636   7.082   7.432 -0.3070  0.4631 -0.7437
   26DOPE  H12A 3231   0.651   7.096   7.542 -0.2984 -1.2780 -0.4964
   26DOPE  H12B 3232   0.669   6.981   7.400 -2.4715 -0.3406 -0.6176
   26DOPE   C11 3233   0.485   7.086   7.398 -0.2294 -0.0249 -0.1491
   26DOPE  H11A 3234   0.445   7.185   7.430  0.0440 -0.1816  0.7103
   26DOPE  H11B 3235   0.421   7.013   7.452  0.0744  1.3256  2.1836
   26DOPE     P 3236   0.462   6.924   7.188 -0.1342  0.1349 -0.3647
   26DOPE   O13 3237   0.355   6.849   7.258  0.2593  0.1431  0.1538
   26DOPE   O14 3238   0.596   6.867   7.199 -0.4002 -0.0910  0.2771
   26DOPE   O11 3239   0.419   6.945   7.040  0.9760 -0.8058 -0.6234
   26DOPE   O12 3240   0.470   7.077   7.259  0.0106 -0.2258  0.3998
   26DOPE    C1 3241   0.294   7.003   6.996 -0.2147  0.4659  0.3376
   26DOPE    HA 3242   0.305   7.113   6.998  1.6234  0.3000  1.5887
   26DOPE    HB 3243   0.209   6.961   7.053  0.5896 -1.1399  0.4370
   26DOPE    C2 3244   0.269   6.973   6.847  0.3155  0.3591  0.3769
   26DOPE    HS 3245   0.213   7.057   6.801  1.1721 -0.3893 -2.1644
   26DOPE   O21 3246   0.196   6.850   6.832 -0.2672 -0.3119 -0.1442
   26DOPE   C21 3247   0.063   6.866   6.860 -1.1409  0.1472 -0.6505
   26DOPE   O22 3248   0.019   6.980   6.878  0.4067  0.4463  0.2506
   26DOPE   C22 3249  -0.009   6.735   6.864 -0.7643 -0.4566 -0.3894
   26DOPE   H2R 3250  -0.096   6.747   6.933  0.0912 -0.7592  0.7732
   26DOPE   H2S 3251   0.060   6.667   6.918 -0.7380 -1.0927 -1.2008
   26DOPE    C3 3252   0.412   6.964   6.775  0.0002 -0.5550 -0.0103
   26DOPE    HX 3253   0.447   6.860   6.793  0.5263 -0.4965 -0.6392
   26DOPE    HY 3254   0.480   7.036   6.825 -2.6110  1.5667  0.7039
   26DOPE   O31 3255   0.383   6.993   6.631 -0.4391  0.3689  0.1791
   26DOPE   C31 3256   0.496   6.968   6.551 -0.1867  0.0719 -0.8396
   26DOPE   O32 3257   0.599   6.925   6.603  0.3313 -0.1494  0.3024
   26DOPE   C32 3258   0.468   6.991   6.400 -0.3436  0.5415  0.8834
   26DOPE   H2X 3259   0.503   7.094   6.382 -0.9627  0.5931 -0.0695
   26DOPE   H2Y 3260   0.532   6.931   6.332 -0.6853  1.5304 -0.3475
   26DOPE   C23 3261  -0.054   6.687   6.727 -0.7929 -0.3119 -0.5421
   26DOPE   H3R 3262  -0.118   6.761   6.674 -1.3409 -0.0549  0.4646
   26DOPE   H3S 3263  -0.115   6.596   6.744 -0.0946 -0.7845 -0.5346
   26DOPE   C24 3264   0.050   6.649   6.627  0.2572  0.0543 -0.1190
   26DOPE   H4R 3265   0.126   6.585   6.677 -0.1721  0.5921  1.2840
   26DOPE   H4S 3266   0.099   6.742   6.589 -0.5781  1.8437  2.8253
   26DOPE   C25 3267  -0.006   6.577   6.511 -0.4207  0.2710 -0.1480
   26DOPE   H5R 3268  -0.104   6.621   6.481 -0.7376 -0.4651 -0.2281
   26DOPE   H5S 3269  -0.038   6.471   6.526  1.3723 -0.2914 -0.1267
   26DOPE   C26 3270   0.090   6.583   6.393 -0.5062  0.0067 -0.3436
   26DOPE   H6R 3271   0.182   6.531   6.428  0.1551  1.8164  0.7568
   26DOPE   H6S 3272   0.118   6.689   6.375 -0.7036  0.0578 -0.3485
   26DOPE   C27 3273   0.029   6.535   6.268  0.2505  0.0905  0.5371
   26DOPE   H7R 3274   0.098   6.569   6.188  0.9373 -0.6538  0.7909
   26DOPE   H7S 3275  -0.067   6.589   6.257 -0.4875 -1.5667 -1.8577
   26DOPE   C28 3276  -0.003   6.387   6.256 -0.4479 -0.1590  0.3260
   26DOPE   H8R 3277  -0.048   6.357   6.354 -1.0059 -1.6483 -0.3695
   26DOPE   H8S 3278   0.092   6.337   6.230  0.7532  2.1456 -0.0071
   26DOPE   C29 3279  -0.088   6.352   6.136 -0.3760 -0.5139  0.5558
   26DOPE   H9R 3280  -0.041   6.347   6.037  0.1669  2.2318  0.5837
   26DOPE  C210 3281  -0.223   6.368   6.136 -0.9011  0.6730 -0.1371
   26DOPE  H10R 3282  -0.275   6.331   6.046  0.1791  0.8238 -0.8419
   26DOPE  C211 3283  -0.307   6.402   6.255 -0.3909  0.0522  0.5193
   26DOPE  H11R 3284  -0.248   6.449   6.336  0.6768 -2.2553  1.1813
   26DOPE  H11S 3285  -0.357   6.310   6.292 -2.0254 -0.6052 -2.9225
   26DOPE  C212 3286  -0.420   6.499   6.209  0.0033  0.2864  0.1836
   26DOPE  H12R 3287  -0.496   6.503   6.290 -0.4576  0.1934 -0.2381
   26DOPE  H12S 3288  -0.460   6.460   6.113 -0.4877 -0.1236  0.5469
   26DOPE  C213 3289  -0.366   6.633   6.171  0.2409 -0.0381  0.5471
   26DOPE  H13R 3290  -0.280   6.625   6.102 -0.5458  0.0370 -0.4709
   26DOPE  H13S 3291  -0.342   6.696   6.259 -0.9400 -0.8299  1.4724
   26DOPE  C214 3292  -0.486   6.713   6.104  0.3794 -0.1631 -0.2169
   26DOPE  H14R 3293  -0.478   6.821   6.129  0.0663 -0.1531 -0.1566
   26DOPE  H14S 3294  -0.582   6.684   6.153 -0.8793  0.1404 -2.3737
   26DOPE  C215 3295  -0.485   6.691   5.949 -0.4524  0.4491  0.4360
   26DOPE  H15R 3296  -0.517   6.587   5.926  0.6922  0.1614  0.0609
   26DOPE  H15S 3297  -0.379   6.702   5.916 -1.3399 -1.5344 -3.7838
   26DOPE  C216 3298  -0.580   6.791   5.884  0.1047  0.2984  0.0791
   26DOPE  H16R 3299  -0.577   6.781   5.773  2.7674 -1.6244  0.2067
   26DOPE  H16S 3300  -0.539   6.889   5.914  1.3812  0.0406 -0.7702
   26DOPE  C217 3301  -0.722   6.792   5.943 -0.2937 -0.0628 -0.3327
   26DOPE  H17R 3302  -0.714   6.838   6.043 -0.4579 -1.4526  0.3450
   26DOPE  H17S 3303  -0.742   6.683   5.955 -0.1591 -0.0919 -0.3702
   26DOPE  C218 3304  -0.824   6.864   5.863 -0.4300  0.1757 -0.5978
   26DOPE  H18R 3305  -0.803   6.973   5.858 -1.0105  0.2546 -2.2882
   26DOPE  H18S 3306  -0.919   6.862   5.921  1.4128  1.0999  2.7037
   26DOPE  H18T 3307  -0.839   6.826   5.759  0.3572  1.5421 -1.2328
   26DOPE   C33 3308   0.316   6.967   6.373  0.6487 -0.2177 -1.1591
   26DOPE   H3X 3309   0.251   7.048   6.412 -0.2429 -2.2035  1.7954
   26DOPE   H3Y 3310   0.275   6.877   6.422 -1.8297 -0.0603 -2.7439
   26DOPE   C34 3311   0.273   6.951   6.222 -0.1255 -0.2209 -0.2492
   26DOPE   H4X 3312   0.350   6.883   6.179 -0.2990 -1.7285  1.6696
   26DOPE   H4Y 3313   0.177   6.896   6.221  0.7792 -1.8739 -0.3398
   26DOPE   C35 3314   0.275   7.076   6.135 -0.2047  0.0812 -0.4467
   26DOPE   H5X 3315   0.336   7.159   6.179  1.7222 -0.4560 -1.9381
   26DOPE   H5Y 3316   0.169   7.108   6.136 -0.2903 -0.1115  1.7792
   26DOPE   C36 3317   0.320   7.060   5.999  0.4696  0.0474 -0.1537
   26DOPE   H6X 3318   0.414   7.002   5.985  0.0412 -0.0679 -3.4802
   26DOPE   H6Y 3319   0.336   7.164   5.963  0.0674  0.5524  1.0853
   26DOPE   C37 3320   0.219   6.986   5.904 -0.5441 -0.0677 -0.3154
   26DOPE   H7X 3321   0.199   6.883   5.940  2.0354 -1.0921 -1.5747
   26DOPE   H7Y 3322   0.127   7.044   5.927 -0.1388  1.0340 -1.3527
   26DOPE   C38 3323   0.246   6.992   5.754  0.4610 -0.1069  0.2000
   26DOPE   H8X 3324   0.334   6.926   5.738 -0.3316 -1.5253  1.4268
   26DOPE   H8Y 3325   0.276   7.094   5.722  2.2716 -1.0136 -1.2202
   26DOPE   C39 3326   0.126   6.949   5.672 -0.4545 -0.6617 -0.6460
   26DOPE   H9X 3327   0.035   7.009   5.683 -1.2555 -2.1425  1.3674
   26DOPE  C310 3328   0.115   6.835   5.598 -0.3585  0.6513  0.1569
   26DOPE  H10X 3329   0.028   6.828   5.531 -0.7302 -0.0373  0.6949
   26DOPE  C311 3330   0.217   6.726   5.585 -0.0871 -0.3713  0.7070
   26DOPE  H11X 3331   0.297   6.744   5.661  0.5862  1.3287 -0.3596
   26DOPE  H11Y 3332   0.159   6.632   5.597 -1.6731  0.4846  0.0615
   26DOPE  C312 3333   0.294   6.728   5.450  0.5874 -0.0407  0.0851
   26DOPE  H12X 3334   0.233   6.698   5.362  0.1437  2.5640 -0.5753
   26DOPE  H12Y 3335   0.382   6.660   5.451  0.5130 -0.1432 -0.1995
   26DOPE  C313 3336   0.367   6.860   5.421 -0.4734 -0.0752  0.4453
   26DOPE  H13X 3337   0.296   6.944   5.407 -1.1540 -0.6700  0.2942
   26DOPE  H13Y 3338   0.433   6.883   5.508  0.5908 -0.0226 -0.3441
   26DOPE  C314 3339   0.483   6.850   5.322  0.5373  0.1819 -0.3966
   26DOPE  H14X 3340   0.430   6.806   5.235 -0.6618 -0.5621  0.6726
   26DOPE  H14Y 3341   0.555   6.770   5.348 -1.5419 -0.7930  3.1215
   26DOPE  C315 3342   0.548   6.983   5.286  0.3282 -0.2078 -0.4984
   26DOPE  H15X 3343   0.581   7.020   5.385  0.6059 -0.9333 -0.3161
   26DOPE  H15Y 3344   0.484   7.064   5.245  1.3811  0.8626 -0.0770
   26DOPE  C316 3345   0.674   6.968   5.196  0.0401  0.4181  0.0250
   26DOPE  H16X 3346   0.651   6.927   5.095  2.8463 -1.1101 -0.1054
   26DOPE  H16Y 3347   0.755   6.905   5.237  1.3548  2.0409  0.0206
   26DOPE  C317 3348   0.733   7.108   5.171 -0.0650  0.1762  0.1711
   26DOPE  H17X 3349   0.649   7.151   5.112  0.7491  0.8053 -0.5464
   26DOPE  H17Y 3350   0.757   7.164   5.263 -3.0348  0.4203  0.8924
   26DOPE  C318 3351   0.852   7.101   5.074 -0.3540 -0.4262  0.4149
   26DOPE  H18X 3352   0.922   7.188   5.068  1.9515 -2.1990  0.3208
   26DOPE  H18Y 3353   0.907   7.006   5.093 -2.4477 -2.4500 -2.7328
   26DOPE  H18Z 3354   0.812   7.084   4.972 -0.2685 -1.5126  0.5587
   27DOPE     N 3355   6.738   0.229   7.607  0.3074 -0.2037  0.2092
   27DOPE   HN1 3356   6.698   0.236   7.511  0.4903 -2.1741 -0.0608
   27DOPE   HN2 3357   6.787   0.318   7.629 -0.1831  0.1491 -0.0915
   27DOPE   HN3 3358   6.808   0.152   7.608  0.2228 -0.2720  0.9473
   27DOPE   C12 3359   6.623   0.198   7.698 -0.2216  0.4876  0.2396
   27DOPE  H12A 3360   6.577   0.106   7.657 -1.8075  0.6290  1.5969
   27DOPE  H12B 3361   6.552   0.283   7.693 -1.1214 -0.1920  1.0240
   27DOPE   C11 3362   6.668   0.176   7.846  0.0048  0.1780 -0.3215
   27DOPE  H11A 3363   6.722   0.271   7.870 -0.1928  0.1401  0.2686
   27DOPE  H11B 3364   6.749   0.101   7.859  2.4873  2.6678 -0.3102
   27DOPE     P 3365   6.480   0.029   7.948 -0.0459 -0.1921  0.0850
   27DOPE   O13 3366   6.416   0.036   8.080 -0.1761 -0.4198  0.1122
   27DOPE   O14 3367   6.573  -0.083   7.940 -0.0855  0.4531 -0.3302
   27DOPE   O11 3368   6.384   0.007   7.827  0.4896 -0.3188 -0.5238
   27DOPE   O12 3369   6.557   0.167   7.934 -0.3869  0.0662 -0.3811
   27DOPE    C1 3370   6.287   0.115   7.804 -0.3234  0.3035  0.3966
   27DOPE    HA 3371   6.343   0.209   7.788  1.1474 -0.3190  1.5979
   27DOPE    HB 3372   6.222   0.135   7.892  3.6574  1.0017  3.4217
   27DOPE    C2 3373   6.195   0.083   7.688  0.1847  0.1396 -0.5666
   27DOPE    HS 3374   6.139  -0.012   7.697  1.4334 -0.4672  1.3755
   27DOPE   O21 3375   6.280   0.091   7.576  0.1335 -0.2436 -0.1714
   27DOPE   C21 3376   6.275  -0.006   7.488 -0.4145  0.5329  0.7676
   27DOPE   O22 3377   6.216  -0.111   7.490  0.3557  0.4296  0.5355
   27DOPE   C22 3378   6.363   0.043   7.362 -0.1777  0.6892  0.0294
   27DOPE   H2R 3379   6.465   0.047   7.406 -0.6041 -1.5383  1.3859
   27DOPE   H2S 3380   6.331   0.143   7.327 -2.4825 -0.7309 -2.2264
   27DOPE    C3 3381   6.093   0.201   7.684  0.1628 -0.3023  0.8620
   27DOPE    HX 3382   6.143   0.297   7.663 -0.6157 -0.4087 -1.9700
   27DOPE    HY 3383   6.054   0.210   7.788 -2.4140 -2.5579  0.2293
   27DOPE   O31 3384   5.982   0.166   7.586 -0.6983 -0.8323  0.3183
   27DOPE   C31 3385   5.984   0.232   7.474 -0.0217 -0.5448  0.2432
   27DOPE   O32 3386   6.070   0.310   7.437  0.2902  0.0299 -0.6236
   27DOPE   C32 3387   5.846   0.199   7.402  0.0456 -0.0359  0.0154
   27DOPE   H2X 3388   5.840   0.088   7.405  1.9494 -0.3762 -3.6546
   27DOPE   H2Y 3389   5.771   0.247   7.470 -0.1912 -1.0300  0.4797
   27DOPE   C23 3390   6.353  -0.053   7.239 -0.5064 -0.2383 -0.5850
   27DOPE   H3R 3391   6.250  -0.042   7.199 -0.9268  3.6015  1.1393
   27DOPE   H3S 3392   6.375  -0.159   7.266 -0.3483 -0.2926 -0.9120
   27DOPE   C24 3393   6.452  -0.013   7.134  0.4768  0.4887  0.7784
   27DOPE   H4R 3394   6.557  -0.033   7.162  0.7587 -0.4958 -0.8254
   27DOPE   H4S 3395   6.440   0.094   7.106 -2.8949 -0.4548 -2.1935
   27DOPE   C25 3396   6.420  -0.091   7.005 -0.4694  0.9440  0.7490
   27DOPE   H5R 3397   6.310  -0.104   7.001 -0.9804  4.2798  1.1861
   27DOPE   H5S 3398   6.470  -0.190   6.999  1.6291  1.9414  1.0523
   27DOPE   C26 3399   6.477  -0.025   6.876  0.3861  0.3515  0.1092
   27DOPE   H6R 3400   6.588  -0.028   6.873  0.4350 -0.5267  1.7685
   27DOPE   H6S 3401   6.436   0.078   6.867 -0.8033 -0.2385 -1.7011
   27DOPE   C27 3402   6.436  -0.104   6.754  0.8472  0.2321 -0.2240
   27DOPE   H7R 3403   6.326  -0.096   6.743  1.0505  2.2539 -1.3046
   27DOPE   H7S 3404   6.474  -0.206   6.773  1.5763  0.7757  1.4222
   27DOPE   C28 3405   6.501  -0.065   6.627  0.4830 -0.4291 -0.0138
   27DOPE   H8R 3406   6.609  -0.072   6.647  0.1870 -2.6404  1.0751
   27DOPE   H8S 3407   6.467   0.040   6.616  1.0238 -0.2743 -0.2260
   27DOPE   C29 3408   6.454  -0.138   6.503 -0.0151  0.4332  0.4501
   27DOPE   H9R 3409   6.346  -0.161   6.492 -0.0864  0.1822  1.5285
   27DOPE  C210 3410   6.543  -0.161   6.401  0.4126 -0.4791  0.0300
   27DOPE  H10R 3411   6.510  -0.216   6.313  0.2085 -0.5674  0.1606
   27DOPE  C211 3412   6.682  -0.095   6.404  0.0398 -0.4436 -0.5376
   27DOPE  H11R 3413   6.736  -0.127   6.495  0.4157  1.3708 -0.0916
   27DOPE  H11S 3414   6.680   0.015   6.410 -1.2533 -0.5320  1.7254
   27DOPE  C212 3415   6.759  -0.143   6.281  0.2343 -0.5418 -0.0016
   27DOPE  H12R 3416   6.733  -0.249   6.258  0.1708 -0.6990  0.7632
   27DOPE  H12S 3417   6.869  -0.131   6.293  0.6483 -1.2541 -2.5089
   27DOPE  C213 3418   6.729  -0.063   6.154  0.3915  0.4372  0.6246
   27DOPE  H13R 3419   6.734   0.040   6.195  1.0447  0.1519  1.2722
   27DOPE  H13S 3420   6.622  -0.084   6.133  0.0972  0.1717  2.2749
   27DOPE  C214 3421   6.825  -0.107   6.041 -0.0135 -0.9569 -0.2975
   27DOPE  H14R 3422   6.772  -0.097   5.945 -0.8925 -1.5011  0.1196
   27DOPE  H14S 3423   6.864  -0.211   6.046  1.1681 -1.0079 -5.6066
   27DOPE  C215 3424   6.925   0.009   6.024  0.3727 -0.0793 -0.3610
   27DOPE  H15R 3425   6.998   0.022   6.107 -1.7735 -0.2378  1.6544
   27DOPE  H15S 3426   6.872   0.105   6.004  1.1821  1.0182  2.3467
   27DOPE  C216 3427   6.997   0.002   5.885  0.0817  0.3567 -0.9101
   27DOPE  H16R 3428   6.924  -0.016   5.803  0.0471 -0.5005 -0.7055
   27DOPE  H16S 3429   7.066  -0.085   5.886  0.6417  0.7136  2.1988
   27DOPE  C217 3430   7.066   0.135   5.859  1.0722  1.0159  0.5169
   27DOPE  H17R 3431   7.169   0.129   5.900  1.7819  0.1701 -1.2628
   27DOPE  H17S 3432   7.005   0.224   5.890  0.1167  0.4145  0.4060
   27DOPE  C218 3433   7.072   0.140   5.706 -0.5906 -0.1038 -0.9331
   27DOPE  H18R 3434   7.153   0.209   5.675  0.1628 -1.0132 -1.0267
   27DOPE  H18S 3435   6.975   0.168   5.660 -2.1198 -1.2511  1.3892
   27DOPE  H18T 3436   7.083   0.042   5.656 -0.9702  0.2976 -1.8303
   27DOPE   C33 3437   5.851   0.254   7.254  0.8646  0.0829 -0.0966
   27DOPE   H3X 3438   5.923   0.194   7.194  0.2368 -1.4284  0.6093
   27DOPE   H3Y 3439   5.867   0.364   7.257 -1.0188  0.3854 -0.0379
   27DOPE   C34 3440   5.711   0.241   7.200 -0.0175 -0.0749 -0.3039
   27DOPE   H4X 3441   5.696   0.134   7.174 -0.2835  0.1175 -0.9633
   27DOPE   H4Y 3442   5.638   0.250   7.283 -0.6493 -1.3795 -0.7006
   27DOPE   C35 3443   5.688   0.337   7.083  0.1358 -0.1469  0.1860
   27DOPE   H5X 3444   5.690   0.442   7.119  1.9611 -0.3789  0.8876
   27DOPE   H5Y 3445   5.584   0.324   7.048  1.2243  0.0254 -3.5130
   27DOPE   C36 3446   5.777   0.312   6.962  0.3718 -0.5910 -0.0198
   27DOPE   H6X 3447   5.797   0.206   6.936  1.6983 -0.1665 -0.8076
   27DOPE   H6Y 3448   5.881   0.348   6.977 -0.0200  0.1161  1.0995
   27DOPE   C37 3449   5.726   0.380   6.836  0.2202 -0.5827 -0.2028
   27DOPE   H7X 3450   5.619   0.358   6.820 -0.2708  0.4947  1.3741
   27DOPE   H7Y 3451   5.733   0.490   6.851 -1.2337 -0.6910  1.6067
   27DOPE   C38 3452   5.816   0.356   6.711 -0.9109  0.1465  0.5862
   27DOPE   H8X 3453   5.918   0.325   6.740 -2.1487 -3.4784  1.6462
   27DOPE   H8Y 3454   5.819   0.456   6.661 -2.0499 -1.1006 -2.1867
   27DOPE   C39 3455   5.765   0.270   6.598 -0.0347  0.4640 -1.1385
   27DOPE   H9X 3456   5.690   0.198   6.634 -1.4556  1.8813 -1.1619
   27DOPE  C310 3457   5.804   0.279   6.475 -0.4826 -0.1955  0.2719
   27DOPE  H10X 3458   5.777   0.214   6.390  2.7492  0.4516 -1.4295
   27DOPE  C311 3459   5.905   0.372   6.418  1.1119 -1.0152 -0.5906
   27DOPE  H11X 3460   5.850   0.433   6.343 -0.2690  0.3533  1.4343
   27DOPE  H11Y 3461   5.944   0.445   6.492 -0.0998  1.0342 -1.8737
   27DOPE  C312 3462   6.020   0.298   6.358 -0.0323  0.0841 -0.2096
   27DOPE  H12X 3463   6.069   0.232   6.433 -0.0355  2.3257  1.8809
   27DOPE  H12Y 3464   6.085   0.379   6.320 -1.0010  1.2213  0.4993
   27DOPE  C313 3465   5.973   0.206   6.234  0.1140  0.1009  0.2753
   27DOPE  H13X 3466   5.912   0.129   6.287  0.7756  0.9385  2.3656
   27DOPE  H13Y 3467   5.900   0.264   6.173 -0.6733 -0.1019  1.0000
   27DOPE  C314 3468   6.088   0.142   6.148 -0.9513  0.1469 -0.6056
   27DOPE  H14X 3469   6.135   0.060   6.205 -1.0244 -0.2983 -1.1826
   27DOPE  H14Y 3470   6.159   0.224   6.122  1.8398 -1.8825  0.1857
   27DOPE  C315 3471   6.045   0.100   6.012  0.4524  0.8218  0.0565
   27DOPE  H15X 3472   5.992   0.181   5.957  0.7258 -0.5638 -2.3957
   27DOPE  H15Y 3473   5.966   0.022   6.010 -0.2360  1.5131 -0.7174
   27DOPE  C316 3474   6.164   0.044   5.929  0.5278  0.4293 -0.0558
   27DOPE  H16X 3475   6.231   0.131   5.916  2.3345 -0.9070 -0.0180
   27DOPE  H16Y 3476   6.110   0.036   5.832 -1.6434  0.3279  1.0821
   27DOPE  C317 3477   6.229  -0.079   5.990 -0.3218  0.5845  0.0108
   27DOPE  H17X 3478   6.294  -0.055   6.077 -0.9266  2.0019  0.1018
   27DOPE  H17Y 3479   6.163  -0.164   6.018  0.3052  0.2070  0.3656
   27DOPE  C318 3480   6.331  -0.134   5.885 -0.4220 -0.2907  1.1264
   27DOPE  H18X 3481   6.272  -0.178   5.802  0.0040 -0.9554  1.1616
   27DOPE  H18Y 3482   6.386  -0.049   5.840 -2.3739 -0.2358 -1.3340
   27DOPE  H18Z 3483   6.397  -0.207   5.938  0.5206  0.7905  1.4829
   28DOPE     N 3484   0.773   6.768   7.012 -0.2680 -0.3728 -0.6399
   28DOPE   HN1 3485   0.728   6.675   7.023 -1.3068  0.1703 -0.1451
   28DOPE   HN2 3486   0.875   6.751   7.015 -0.1015  0.6638  0.5473
   28DOPE   HN3 3487   0.748   6.830   7.092 -2.3114  0.2739 -1.7033
   28DOPE   C12 3488   0.724   6.835   6.891  0.3622 -0.3522 -0.3143
   28DOPE  H12A 3489   0.618   6.860   6.911  0.9366  1.7052  0.2880
   28DOPE  H12B 3490   0.737   6.769   6.802  0.5001 -0.2615 -0.3617
   28DOPE   C11 3491   0.791   6.970   6.866 -0.2997  0.3248  0.1720
   28DOPE  H11A 3492   0.758   7.012   6.769  2.6178  0.0065 -1.0514
   28DOPE  H11B 3493   0.896   6.934   6.858 -0.7622 -1.0054 -0.1802
   28DOPE     P 3494   0.797   7.209   6.977 -0.0733  0.0770  0.1833
   28DOPE   O13 3495   0.938   7.249   6.958  0.3450  0.0819  0.5458
   28DOPE   O14 3496   0.732   7.280   7.091  0.4359  0.1772  0.2578
   28DOPE   O11 3497   0.723   7.244   6.847 -0.4121  0.4323  0.0242
   28DOPE   O12 3498   0.785   7.048   6.986  0.0724 -0.5512  0.2559
   28DOPE    C1 3499   0.745   7.361   6.765  0.8397 -0.1324  0.1676
   28DOPE    HA 3500   0.852   7.387   6.753  0.9880 -0.6523  0.3384
   28DOPE    HB 3501   0.698   7.452   6.809  1.6562  0.1716  0.4265
   28DOPE    C2 3502   0.694   7.338   6.623  0.2037  0.3045  0.7967
   28DOPE    HS 3503   0.713   7.433   6.567  3.5332 -0.2133  0.8657
   28DOPE   O21 3504   0.558   7.299   6.621  0.1081 -0.0781 -0.1655
   28DOPE   C21 3505   0.469   7.391   6.639 -0.6299 -0.3556 -0.2329
   28DOPE   O22 3506   0.485   7.509   6.660 -0.3637 -0.7487  0.1096
   28DOPE   C22 3507   0.328   7.329   6.643 -0.2435  0.2661 -0.4143
   28DOPE   H2R 3508   0.297   7.325   6.749 -3.0531 -0.0529 -1.1528
   28DOPE   H2S 3509   0.333   7.223   6.613  1.0901 -0.7902  3.0969
   28DOPE    C3 3510   0.780   7.241   6.542  0.7368  0.7227 -0.0802
   28DOPE    HX 3511   0.771   7.151   6.607 -2.7997  1.5019  0.6890
   28DOPE    HY 3512   0.883   7.283   6.541  0.8019  0.5698  0.1049
   28DOPE   O31 3513   0.736   7.207   6.412  0.1131 -0.0495  0.4494
   28DOPE   C31 3514   0.746   7.301   6.318 -0.2217  0.4589 -0.1546
   28DOPE   O32 3515   0.790   7.413   6.334  0.8463 -0.2363 -0.3363
   28DOPE   C32 3516   0.671   7.258   6.200  0.4077 -0.2807 -0.7776
   28DOPE   H2X 3517   0.722   7.169   6.156  1.9375  1.7495 -3.4150
   28DOPE   H2Y 3518   0.567   7.245   6.235  0.2880  1.0212 -0.5983
   28DOPE   C23 3519   0.231   7.427   6.563  0.2856 -0.1820 -0.1901
   28DOPE   H3R 3520   0.243   7.534   6.591 -0.1192  0.4256 -2.1829
   28DOPE   H3S 3521   0.129   7.403   6.601  0.3401  1.3652  1.0312
   28DOPE   C24 3522   0.219   7.396   6.413 -0.5544  0.5930  0.2830
   28DOPE   H4R 3523   0.222   7.286   6.401  0.8022  0.4304  1.7747
   28DOPE   H4S 3524   0.313   7.426   6.362 -0.8666  1.6785  0.3165
   28DOPE   C25 3525   0.097   7.457   6.349  0.5148 -0.1029  0.0154
   28DOPE   H5R 3526   0.120   7.527   6.266 -1.7162  0.6424 -0.0365
   28DOPE   H5S 3527   0.058   7.530   6.423 -0.1369 -1.1668  0.7429
   28DOPE   C26 3528  -0.014   7.352   6.320 -0.1391  0.3011  0.2912
   28DOPE   H6R 3529  -0.028   7.296   6.414  0.1957  1.1891  0.8873
   28DOPE   H6S 3530   0.019   7.280   6.242 -1.9372 -0.5960  0.3306
   28DOPE   C27 3531  -0.146   7.421   6.296  0.9333 -0.5270 -0.0985
   28DOPE   H7R 3532  -0.148   7.511   6.361  2.9522 -0.2580 -0.3448
   28DOPE   H7S 3533  -0.226   7.353   6.330  0.2486  0.2152 -0.1853
   28DOPE   C28 3534  -0.165   7.458   6.151  0.1321 -0.2527 -0.2815
   28DOPE   H8R 3535  -0.173   7.361   6.097  0.6742 -1.7682  2.1659
   28DOPE   H8S 3536  -0.072   7.510   6.121 -1.1457  1.2904 -1.7624
   28DOPE   C29 3537  -0.288   7.540   6.136  0.4063  0.4276 -0.4959
   28DOPE   H9R 3538  -0.383   7.486   6.148  0.9673 -0.7446 -1.2063
   28DOPE  C210 3539  -0.302   7.666   6.098 -0.3513  0.3373 -0.1659
   28DOPE  H10R 3540  -0.399   7.717   6.105 -0.3112  0.5723 -1.1227
   28DOPE  C211 3541  -0.198   7.762   6.066  0.1063 -0.2937 -0.1750
   28DOPE  H11R 3542  -0.250   7.846   6.016 -1.0595 -1.2013 -0.5413
   28DOPE  H11S 3543  -0.135   7.707   5.992  2.6570 -0.8428  2.2329
   28DOPE  C212 3544  -0.114   7.820   6.185 -0.1094  0.4226  0.3823
   28DOPE  H12R 3545  -0.084   7.726   6.235 -0.0185 -0.5226 -1.3657
   28DOPE  H12S 3546  -0.171   7.884   6.255 -1.7132  1.7062 -1.9641
   28DOPE  C213 3547   0.023   7.864   6.141 -0.2676 -0.4694  0.4909
   28DOPE  H13R 3548   0.008   7.931   6.054 -2.4184 -1.4198  0.0582
   28DOPE  H13S 3549   0.087   7.785   6.098  0.8145  0.9503 -0.6013
   28DOPE  C214 3550   0.108   7.927   6.247 -0.1453 -0.5815 -0.1605
   28DOPE  H14R 3551   0.065   8.028   6.261  1.6417  0.0219  1.2740
   28DOPE  H14S 3552   0.215   7.931   6.218 -0.2044 -1.7332 -0.5956
   28DOPE  C215 3553   0.103   7.861   6.384  0.2593  0.7821  0.6287
   28DOPE  H15R 3554   0.148   7.759   6.381 -3.6548 -1.1324  0.8999
   28DOPE  H15S 3555  -0.002   7.846   6.419 -0.4012 -2.7942 -2.3094
   28DOPE  C216 3556   0.178   7.939   6.498 -0.2263  0.2085 -0.5378
   28DOPE  H16R 3557   0.137   8.042   6.507 -0.4050  0.3797 -2.7178
   28DOPE  H16S 3558   0.287   7.949   6.483  0.0930  1.4933  2.1586
   28DOPE  C217 3559   0.165   7.869   6.640  0.0079  0.6615  0.3033
   28DOPE  H17R 3560   0.218   7.771   6.634 -0.6809  0.3331 -0.5556
   28DOPE  H17S 3561   0.058   7.838   6.648  0.2352  0.2667  2.8156
   28DOPE  C218 3562   0.213   7.945   6.763  0.5200  0.3365  0.3057
   28DOPE  H18R 3563   0.141   8.028   6.776 -1.3068 -1.2142  0.4810
   28DOPE  H18S 3564   0.315   7.988   6.753  0.5635 -0.2064 -2.3507
   28DOPE  H18T 3565   0.203   7.878   6.851 -3.4422  0.6250  0.2314
   28DOPE   C33 3566   0.658   7.374   6.097 -0.2049 -0.7670 -0.4891
   28DOPE   H3X 3567   0.761   7.413   6.081 -0.1582 -0.4839  0.4564
   28DOPE   H3Y 3568   0.594   7.449   6.147 -0.2558 -1.3812  0.3819
   28DOPE   C34 3569   0.605   7.318   5.969 -0.0724  0.3608  0.5925
   28DOPE   H4X 3570   0.644   7.215   5.958  1.2229  1.0083 -1.4462
   28DOPE   H4Y 3571   0.494   7.309   5.969 -0.1500  1.2237  0.8143
   28DOPE   C35 3572   0.669   7.390   5.851 -0.3666  0.2837  0.0747
   28DOPE   H5X 3573   0.778   7.378   5.865 -0.2106  1.1604 -0.3178
   28DOPE   H5Y 3574   0.643   7.498   5.854  0.3352  0.5534 -1.9813
   28DOPE   C36 3575   0.634   7.329   5.715  0.6322 -0.2905 -0.2773
   28DOPE   H6X 3576   0.665   7.224   5.728 -0.2515 -0.3928  1.1858
   28DOPE   H6Y 3577   0.693   7.385   5.639  1.5061  2.0923  1.9952
   28DOPE   C37 3578   0.480   7.336   5.687 -0.7094  0.2922  0.7095
   28DOPE   H7X 3579   0.427   7.285   5.770 -0.5758 -1.1129 -0.0488
   28DOPE   H7Y 3580   0.436   7.438   5.678  0.3592  0.7225  0.1343
   28DOPE   C38 3581   0.441   7.265   5.553 -0.1482  0.1027 -1.1612
   28DOPE   H8X 3582   0.330   7.276   5.551 -0.3309 -0.9399  0.5976
   28DOPE   H8Y 3583   0.463   7.157   5.569 -0.2445  0.4662  2.0427
   28DOPE   C39 3584   0.512   7.320   5.431 -0.0998 -0.0988  0.2996
   28DOPE   H9X 3585   0.592   7.258   5.388 -1.1569 -0.7003 -0.8521
   28DOPE  C310 3586   0.490   7.432   5.363  0.0995 -0.5722 -0.5360
   28DOPE  H10X 3587   0.567   7.450   5.286  0.4804 -3.5597 -0.9497
   28DOPE  C311 3588   0.365   7.523   5.372 -0.2402  0.2580  0.0374
   28DOPE  H11X 3589   0.294   7.477   5.444  0.1422 -2.3283 -1.1507
   28DOPE  H11Y 3590   0.401   7.623   5.406 -0.2396  0.0412  0.6844
   28DOPE  C312 3591   0.297   7.538   5.231 -0.5955  0.2323  0.6161
   28DOPE  H12X 3592   0.195   7.577   5.251  0.7423  3.3137  2.0902
   28DOPE  H12Y 3593   0.294   7.444   5.172  1.2664  0.6949 -0.2892
   28DOPE  C313 3594   0.373   7.630   5.138 -0.4187  0.2795  0.1728
   28DOPE  H13X 3595   0.480   7.600   5.145  0.2258  2.0915 -1.1429
   28DOPE  H13Y 3596   0.352   7.600   5.033  1.5859 -1.2592  0.1450
   28DOPE  C314 3597   0.362   7.775   5.167 -0.4530  0.2835  0.0427
   28DOPE  H14X 3598   0.418   7.802   5.260 -1.6540  0.6973  0.6660
   28DOPE  H14Y 3599   0.258   7.799   5.198 -0.3956 -0.0879  0.5447
   28DOPE  C315 3600   0.419   7.856   5.055  0.1968  0.2741  0.1295
   28DOPE  H15X 3601   0.386   7.811   4.959  0.7660  0.2041 -0.0371
   28DOPE  H15Y 3602   0.529   7.850   5.056  0.1478 -1.0725 -0.1267
   28DOPE  C316 3603   0.375   8.005   5.062 -0.3604 -0.7404 -1.0663
   28DOPE  H16X 3604   0.264   8.004   5.069 -0.2717 -0.6017  1.3226
   28DOPE  H16Y 3605   0.404   8.056   4.968  0.7511  1.8426  0.5454
   28DOPE  C317 3606   0.451   8.089   5.169 -0.3779  1.1071 -0.8699
   28DOPE  H17X 3607   0.416   8.066   5.272  2.2747 -0.1183 -0.1564
   28DOPE  H17Y 3608   0.558   8.058   5.169 -1.0169 -1.3871 -0.0969
   28DOPE  C318 3609   0.444   8.238   5.148 -0.8867 -0.3079 -0.3040
   28DOPE  H18X 3610   0.336   8.266   5.151 -1.0872 -0.5692 -2.8914
   28DOPE  H18Y 3611   0.507   8.290   5.224 -0.8829 -3.6377  2.1975
   28DOPE  H18Z 3612   0.473   8.271   5.046 -0.2981  1.6809  0.4643
   29DOPE     N 3613   0.887   0.374   7.466  0.2103  0.1871  0.7060
   29DOPE   HN1 3614   0.881   0.341   7.564 -0.4652 -2.2900 -0.0960
   29DOPE   HN2 3615   0.808   0.337   7.409  1.8976 -1.5224 -0.6880
   29DOPE   HN3 3616   0.974   0.334   7.425  2.4942  2.5230  2.9462
   29DOPE   C12 3617   0.890   0.526   7.473  0.3067 -0.2255 -0.6825
   29DOPE  H12A 3618   0.966   0.541   7.553 -2.5505 -0.5405  2.2692
   29DOPE  H12B 3619   0.791   0.560   7.510  0.7532  0.7190 -0.3149
   29DOPE   C11 3620   0.915   0.586   7.335 -0.0571  0.1223  0.4421
   29DOPE  H11A 3621   0.942   0.692   7.357 -0.8612  0.6691 -1.0573
   29DOPE  H11B 3622   0.817   0.580   7.282 -0.6252  0.5385  1.4100
   29DOPE     P 3623   1.068   0.594   7.126 -0.1753 -0.2030  0.0121
   29DOPE   O13 3624   1.128   0.492   7.034  0.5604 -0.5471 -0.4410
   29DOPE   O14 3625   1.160   0.701   7.168 -0.1923 -0.3614  0.1712
   29DOPE   O11 3626   0.943   0.661   7.053  0.0057 -0.8315 -0.5812
   29DOPE   O12 3627   1.014   0.521   7.255 -0.6774  0.1693  0.6134
   29DOPE    C1 3628   0.821   0.591   7.023  0.6307 -0.5551  0.3837
   29DOPE    HA 3629   0.738   0.663   7.040  1.8048  1.4976 -1.8146
   29DOPE    HB 3630   0.801   0.501   7.084 -2.0344 -0.4676 -0.2638
   29DOPE    C2 3631   0.814   0.543   6.875  0.1488 -0.1383 -0.0280
   29DOPE    HS 3632   0.890   0.462   6.869  0.0062 -0.3063  0.4123
   29DOPE   O21 3633   0.857   0.647   6.788  0.6123 -0.1016  0.2025
   29DOPE   C21 3634   0.950   0.625   6.699  0.5996  0.4080  0.0711
   29DOPE   O22 3635   0.987   0.512   6.663  0.1614 -0.0073  0.5327
   29DOPE   C22 3636   1.008   0.754   6.655 -0.4973 -0.5166  0.3519
   29DOPE   H2R 3637   1.111   0.736   6.617  0.4170  2.8874  0.9191
   29DOPE   H2S 3638   1.020   0.825   6.739 -0.4841 -0.1321  0.0272
   29DOPE    C3 3639   0.681   0.497   6.828  0.3010 -0.6610  0.0520
   29DOPE    HX 3640   0.631   0.594   6.806 -1.0909 -0.8745  1.9978
   29DOPE    HY 3641   0.621   0.439   6.901 -0.7246 -1.3718 -1.3053
   29DOPE   O31 3642   0.685   0.424   6.702 -0.0679 -0.2469  0.4130
   29DOPE   C31 3643   0.688   0.293   6.709  0.3366  0.5985  0.2475
   29DOPE   O32 3644   0.680   0.224   6.808 -0.1932  0.2659 -0.5732
   29DOPE   C32 3645   0.704   0.241   6.562  0.5377  0.1932  0.8365
   29DOPE   H2X 3646   0.727   0.324   6.492  1.4464  1.5455  2.6569
   29DOPE   H2Y 3647   0.790   0.172   6.557  0.2384 -0.3241  2.2197
   29DOPE   C23 3648   0.918   0.808   6.539  0.3428  0.4226  0.0721
   29DOPE   H3R 3649   0.947   0.914   6.527 -2.8829  1.5527  1.1203
   29DOPE   H3S 3650   0.809   0.807   6.563  0.0923  1.4387 -0.9282
   29DOPE   C24 3651   0.941   0.733   6.407 -0.1293 -0.3906 -0.0786
   29DOPE   H4R 3652   0.933   0.622   6.402  1.5769 -0.5626  0.2132
   29DOPE   H4S 3653   1.049   0.754   6.389 -0.5355  0.3181 -1.9507
   29DOPE   C25 3654   0.859   0.792   6.294 -0.1399 -0.2496  0.1572
   29DOPE   H5R 3655   0.894   0.897   6.305 -0.5678 -0.0294 -0.5181
   29DOPE   H5S 3656   0.749   0.795   6.307 -0.0965 -1.4394  0.9593
   29DOPE   C26 3657   0.885   0.731   6.155  0.0725 -0.3229  0.4124
   29DOPE   H6R 3658   0.840   0.797   6.077  2.3752  0.7956 -0.0714
   29DOPE   H6S 3659   0.840   0.630   6.159  2.6394 -1.5507  0.6129
   29DOPE   C27 3660   1.028   0.716   6.111  0.4877 -0.1057 -0.0277
   29DOPE   H7R 3661   1.075   0.654   6.190 -0.4449  0.1946  0.7773
   29DOPE   H7S 3662   1.086   0.809   6.102  2.5456 -1.4360 -1.3938
   29DOPE   C28 3663   1.027   0.647   5.976 -0.0671 -0.2848  0.0837
   29DOPE   H8R 3664   0.974   0.709   5.901  0.0159  0.3000  0.5106
   29DOPE   H8S 3665   0.975   0.548   5.985  0.4295 -0.5915 -0.3632
   29DOPE   C29 3666   1.168   0.615   5.923 -0.0959 -0.5867  0.0737
   29DOPE   H9R 3667   1.239   0.579   5.999 -0.0248 -0.9569 -0.1643
   29DOPE  C210 3668   1.220   0.630   5.797 -0.0498 -0.4493 -0.4193
   29DOPE  H10R 3669   1.322   0.607   5.763  1.1044  1.6696  1.3600
   29DOPE  C211 3670   1.149   0.685   5.673 -0.2593 -0.3654 -0.3185
   29DOPE  H11R 3671   1.221   0.714   5.593  0.6408  0.1396  0.6597
   29DOPE  H11S 3672   1.108   0.784   5.702  1.1001  1.1728 -3.1970
   29DOPE  C212 3673   1.039   0.597   5.612 -0.1259  0.5922 -0.9839
   29DOPE  H12R 3674   0.972   0.555   5.690 -0.3355  2.0195 -0.3691
   29DOPE  H12S 3675   1.100   0.510   5.581  1.1120  1.9096 -2.3933
   29DOPE  C213 3676   0.953   0.660   5.502 -0.4579  0.4563  0.0797
   29DOPE  H13R 3677   0.890   0.740   5.546  1.2683  1.2004  1.2821
   29DOPE  H13S 3678   0.873   0.585   5.482 -2.3959  2.6544 -0.9269
   29DOPE  C214 3679   1.032   0.707   5.383  0.0432  0.3904  0.7531
   29DOPE  H14R 3680   1.097   0.625   5.347 -1.0804 -0.6239  0.9735
   29DOPE  H14S 3681   1.087   0.801   5.406 -0.5538  0.8545  0.3124
   29DOPE  C215 3682   0.939   0.738   5.263 -0.2176  0.2378 -0.1828
   29DOPE  H15R 3683   0.868   0.819   5.291 -0.4854 -0.8224  2.5314
   29DOPE  H15S 3684   0.877   0.648   5.243 -0.7807  0.7687 -0.8858
   29DOPE  C216 3685   1.012   0.797   5.135 -0.6396  0.2443  0.3976
   29DOPE  H16R 3686   1.079   0.717   5.096 -0.3437  1.4394 -1.7017
   29DOPE  H16S 3687   1.085   0.878   5.156  3.2102 -1.7368 -3.6359
   29DOPE  C217 3688   0.913   0.837   5.020 -0.0421 -1.1074  0.4219
   29DOPE  H17R 3689   0.976   0.872   4.935  0.4190 -0.1603  1.1290
   29DOPE  H17S 3690   0.848   0.918   5.059  0.6406  0.0997 -0.8219
   29DOPE  C218 3691   0.817   0.728   4.972  0.1946  0.3451  0.8362
   29DOPE  H18R 3692   0.762   0.761   4.882  1.7218 -0.5550 -0.4656
   29DOPE  H18S 3693   0.746   0.692   5.050  1.7095 -0.8740  1.7228
   29DOPE  H18T 3694   0.885   0.641   4.958  0.0231  0.5328 -1.4359
   29DOPE   C33 3695   0.596   0.149   6.519 -0.3143  0.2923  0.1759
   29DOPE   H3X 3696   0.500   0.205   6.520  0.4977  1.8023  2.5503
   29DOPE   H3Y 3697   0.588   0.061   6.585 -1.2517 -1.1489 -1.7554
   29DOPE   C34 3698   0.614   0.115   6.369 -0.0150  0.5803 -0.6320
   29DOPE   H4X 3699   0.624   0.208   6.309 -0.3761  0.5442 -0.7523
   29DOPE   H4Y 3700   0.707   0.058   6.349 -0.8286 -2.5233  3.1727
   29DOPE   C35 3701   0.487   0.038   6.310 -0.5345 -0.1084  0.0481
   29DOPE   H5X 3702   0.398   0.083   6.360 -0.4073 -0.4675  0.6168
   29DOPE   H5Y 3703   0.488  -0.065   6.353  0.5590 -0.8388 -1.5972
   29DOPE   C36 3704   0.476   0.044   6.159  0.5450 -0.5717  0.0979
   29DOPE   H6X 3705   0.566   0.001   6.111  0.8144  1.7975 -1.6867
   29DOPE   H6Y 3706   0.456   0.145   6.118  0.9061  0.6947  2.7751
   29DOPE   C37 3707   0.353  -0.043   6.117  0.2518 -0.0250  0.2368
   29DOPE   H7X 3708   0.355  -0.141   6.169 -0.9786 -0.2826 -0.1656
   29DOPE   H7Y 3709   0.265   0.015   6.153  1.2027  0.7536  1.3670
   29DOPE   C38 3710   0.329  -0.076   5.967 -0.1261  0.2160 -0.5585
   29DOPE   H8X 3711   0.238  -0.139   5.975 -0.6001  0.9738  0.2191
   29DOPE   H8Y 3712   0.416  -0.130   5.925 -0.0654  0.3091 -0.5521
   29DOPE   C39 3713   0.305   0.046   5.882 -0.3970 -0.1741  0.5496
   29DOPE   H9X 3714   0.360   0.137   5.912 -0.0678  0.0690 -0.7615
   29DOPE  C310 3715   0.229   0.053   5.774  0.1845  0.3419  0.2518
   29DOPE  H10X 3716   0.231   0.144   5.714 -1.6991  2.6147  3.3322
   29DOPE  C311 3717   0.145  -0.061   5.725  0.1400 -0.0032  0.2677
   29DOPE  H11X 3718   0.148  -0.081   5.616 -0.4092  1.2030  0.0177
   29DOPE  H11Y 3719   0.149  -0.153   5.787 -0.4150 -2.0846 -2.5876
   29DOPE  C312 3720   0.001  -0.011   5.746  0.1961 -0.5126  0.2438
   29DOPE  H12X 3721  -0.031   0.051   5.660 -1.5411 -1.2139  0.3518
   29DOPE  H12Y 3722  -0.005   0.034   5.847 -0.0930  1.4282 -0.5931
   29DOPE  C313 3723  -0.088  -0.135   5.747  0.2198  0.4732  0.3497
   29DOPE  H13X 3724  -0.043  -0.211   5.814  0.0812 -0.5152 -0.6511
   29DOPE  H13Y 3725  -0.178  -0.107   5.806 -0.1293 -1.8456  1.0320
   29DOPE  C314 3726  -0.133  -0.202   5.613  0.1445 -0.3083  0.5063
   29DOPE  H14X 3727  -0.159  -0.128   5.534  2.3669  0.3113  0.2796
   29DOPE  H14Y 3728  -0.222  -0.265   5.631  0.6579 -0.4953  2.6104
   29DOPE  C315 3729  -0.024  -0.302   5.557 -0.1680  0.4561 -0.4208
   29DOPE  H15X 3730   0.005  -0.369   5.641  1.3061  1.3208 -0.1956
   29DOPE  H15Y 3731   0.070  -0.255   5.519 -0.9269  2.0210 -0.4055
   29DOPE  C316 3732  -0.086  -0.401   5.451 -0.0212 -0.2575 -0.2637
   29DOPE  H16X 3733  -0.139  -0.352   5.366 -0.8746  0.1985  0.5173
   29DOPE  H16Y 3734  -0.174  -0.444   5.504 -1.3450  1.5627 -0.8910
   29DOPE  C317 3735   0.010  -0.509   5.401  0.2276 -0.6589  0.1455
   29DOPE  H17X 3736   0.096  -0.530   5.469  0.1804 -0.8263  0.1549
   29DOPE  H17Y 3737  -0.045  -0.603   5.380 -0.0458 -0.5280  0.2809
   29DOPE  C318 3738   0.089  -0.455   5.282  0.0453 -0.5421  0.6220
   29DOPE  H18X 3739   0.164  -0.529   5.246  0.9642  1.0162 -0.8465
   29DOPE  H18Y 3740   0.026  -0.434   5.193  1.0374  0.4403  0.1158
   29DOPE  H18Z 3741   0.147  -0.363   5.306  0.0520  0.0574 -1.4699
   30DOPE     N 3742   1.336   0.464   6.874 -0.1067  0.0321 -0.7786
   30DOPE   HN1 3743   1.366   0.368   6.846  0.8120 -0.0242  0.3305
   30DOPE   HN2 3744   1.383   0.501   6.959  0.9117  0.3869 -1.4822
   30DOPE   HN3 3745   1.235   0.447   6.892 -0.8116  2.4335 -2.0433
   30DOPE   C12 3746   1.344   0.565   6.765  0.0789 -0.0624  1.2696
   30DOPE  H12A 3747   1.289   0.654   6.800 -0.3356 -0.2112  1.0051
   30DOPE  H12B 3748   1.282   0.525   6.682 -0.6563  1.7618  0.8930
   30DOPE   C11 3749   1.489   0.585   6.721  0.0850  0.4762  0.5205
   30DOPE  H11A 3750   1.480   0.657   6.637  0.7914  0.3232  0.3123
   30DOPE  H11B 3751   1.530   0.490   6.681  0.8155  1.6128 -1.5499
   30DOPE     P 3752   1.597   0.790   6.846  0.1046  0.2030  0.1188
   30DOPE   O13 3753   1.729   0.816   6.913  0.2783  0.3022 -0.1045
   30DOPE   O14 3754   1.474   0.836   6.914 -0.1617 -0.4351 -0.1853
   30DOPE   O11 3755   1.602   0.842   6.692  0.0907  0.6175 -0.3370
   30DOPE   O12 3756   1.582   0.636   6.818  0.1877  0.2615  0.5855
   30DOPE    C1 3757   1.593   0.980   6.658 -0.3274  0.4109  0.4175
   30DOPE    HA 3758   1.688   1.011   6.611 -0.2989 -0.5506 -0.1886
   30DOPE    HB 3759   1.585   1.038   6.752  1.6729 -0.9285  1.4788
   30DOPE    C2 3760   1.472   0.997   6.563  0.6487 -0.2957  0.6042
   30DOPE    HS 3761   1.391   0.943   6.616 -0.4126  1.0215  0.3996
   30DOPE   O21 3762   1.498   0.923   6.438  0.1055  0.3895 -0.0964
   30DOPE   C21 3763   1.388   0.851   6.401  0.2870  0.4357  0.3534
   30DOPE   O22 3764   1.279   0.852   6.449 -0.6356 -0.4258  0.0507
   30DOPE   C22 3765   1.428   0.759   6.284 -0.1325  0.3729 -0.7656
   30DOPE   H2R 3766   1.532   0.786   6.258 -0.0779  1.1852  0.2704
   30DOPE   H2S 3767   1.350   0.797   6.214 -2.0131  1.6206  1.8379
   30DOPE    C3 3768   1.436   1.142   6.537  0.4762 -0.3200  0.1486
   30DOPE    HX 3769   1.511   1.197   6.477 -0.1651  1.4060  0.8555
   30DOPE    HY 3770   1.435   1.194   6.635  0.9655 -1.3035  0.6940
   30DOPE   O31 3771   1.300   1.162   6.485  0.1767  0.1762  0.2626
   30DOPE   C31 3772   1.203   1.137   6.572 -0.2157 -0.6637 -0.8560
   30DOPE   O32 3773   1.212   1.087   6.686 -0.2884 -0.1427 -0.4516
   30DOPE   C32 3774   1.075   1.191   6.504  0.4019 -0.2692 -0.5168
   30DOPE   H2X 3775   1.112   1.259   6.424  2.9973  0.3047  1.0492
   30DOPE   H2Y 3776   1.018   1.100   6.475 -0.8681  0.2604  0.2041
   30DOPE   C23 3777   1.439   0.610   6.317  0.3406  0.1249  0.3819
   30DOPE   H3R 3778   1.505   0.594   6.405  0.7832 -2.9959 -0.4049
   30DOPE   H3S 3779   1.487   0.563   6.229  0.7267  0.1073  0.5991
   30DOPE   C24 3780   1.307   0.542   6.348  0.2300  0.8136  0.7644
   30DOPE   H4R 3781   1.228   0.551   6.270 -0.7728  1.9231  1.8417
   30DOPE   H4S 3782   1.258   0.597   6.432  0.0688 -1.1461  2.0337
   30DOPE   C25 3783   1.317   0.399   6.389 -0.5287  0.0310  0.3380
   30DOPE   H5R 3784   1.386   0.395   6.475 -1.2127 -1.0899  0.8557
   30DOPE   H5S 3785   1.367   0.345   6.305  1.1858  1.7797  0.1685
   30DOPE   C26 3786   1.183   0.339   6.444  0.5960 -0.0663 -0.3391
   30DOPE   H6R 3787   1.135   0.406   6.518  1.3639 -1.1982  1.2376
   30DOPE   H6S 3788   1.203   0.246   6.501 -0.6572  0.0946  0.3996
   30DOPE   C27 3789   1.075   0.305   6.337 -0.7894  0.1199  0.0527
   30DOPE   H7R 3790   1.031   0.404   6.313 -1.0503 -0.3605 -1.5797
   30DOPE   H7S 3791   1.008   0.246   6.402 -0.1302 -0.3576  0.3097
   30DOPE   C28 3792   1.113   0.228   6.212 -0.1119 -0.5183  0.0178
   30DOPE   H8R 3793   1.200   0.164   6.237 -0.1731 -1.3448 -1.7757
   30DOPE   H8S 3794   1.136   0.302   6.133  0.7959 -1.5836 -0.7530
   30DOPE   C29 3795   0.993   0.141   6.182 -0.2386  0.5173  0.6866
   30DOPE   H9R 3796   1.007   0.036   6.213 -2.1864 -0.2939 -0.9009
   30DOPE  C210 3797   0.871   0.169   6.131  0.0470  0.5688  0.2271
   30DOPE  H10R 3798   0.800   0.090   6.103  0.1584  0.0896  1.2482
   30DOPE  C211 3799   0.819   0.287   6.069  0.0245 -0.2458 -0.4610
   30DOPE  H11R 3800   0.866   0.373   6.122  0.7013 -1.5258  1.1164
   30DOPE  H11S 3801   0.709   0.292   6.083 -0.1029  3.6525 -1.7585
   30DOPE  C212 3802   0.873   0.294   5.925  0.5194  0.8876 -0.6128
   30DOPE  H12R 3803   0.983   0.295   5.909  0.4416  0.6068 -1.2106
   30DOPE  H12S 3804   0.825   0.388   5.890  0.5516  1.1702  0.0830
   30DOPE  C213 3805   0.807   0.184   5.837  0.1898 -0.0166  0.0747
   30DOPE  H13R 3806   0.699   0.171   5.862  0.1459 -1.1643 -0.6474
   30DOPE  H13S 3807   0.851   0.086   5.865  0.4283  0.3235  0.9059
   30DOPE  C214 3808   0.824   0.205   5.691  0.3752 -0.3486  0.6338
   30DOPE  H14R 3809   0.924   0.178   5.652  1.1009  3.5021 -0.5522
   30DOPE  H14S 3810   0.811   0.314   5.678  0.0629  0.0474  3.6211
   30DOPE  C215 3811   0.730   0.120   5.603  0.3622 -0.3113 -0.4386
   30DOPE  H15R 3812   0.632   0.116   5.656  0.3702 -0.5787 -0.4433
   30DOPE  H15S 3813   0.773   0.019   5.589  1.7675  0.3536 -1.0860
   30DOPE  C216 3814   0.703   0.190   5.472  0.6785  0.0978  0.6550
   30DOPE  H16R 3815   0.632   0.274   5.490  2.0367  1.7431 -1.2383
   30DOPE  H16S 3816   0.645   0.125   5.403 -0.6795  2.1957 -0.2783
   30DOPE  C217 3817   0.827   0.235   5.394  0.7359  0.5767  0.8845
   30DOPE  H17R 3818   0.878   0.139   5.368 -1.7384 -0.0807 -2.0340
   30DOPE  H17S 3819   0.889   0.297   5.462  0.1238  1.5721  0.5521
   30DOPE  C218 3820   0.798   0.318   5.265 -0.4612 -0.7216  0.3163
   30DOPE  H18R 3821   0.731   0.264   5.195 -0.1673  0.0393 -0.5718
   30DOPE  H18S 3822   0.888   0.338   5.203 -0.9387  0.9595  0.1245
   30DOPE  H18T 3823   0.760   0.419   5.287  1.4057  0.3967 -1.2563
   30DOPE   C33 3824   0.991   1.286   6.593  0.2770  0.1549 -0.2421
   30DOPE   H3X 3825   1.043   1.382   6.614  0.7771  0.3741 -2.2615
   30DOPE   H3Y 3826   0.965   1.242   6.691 -0.2050  0.4428 -0.2362
   30DOPE   C34 3827   0.854   1.316   6.523  0.4638  0.1622 -0.1761
   30DOPE   H4X 3828   0.803   1.396   6.582 -2.0438 -1.1686 -0.3785
   30DOPE   H4Y 3829   0.871   1.330   6.415  0.6072 -1.3792 -0.3768
   30DOPE   C35 3830   0.746   1.205   6.532  0.2807 -0.2029  0.0243
   30DOPE   H5X 3831   0.760   1.153   6.629  0.1580 -0.9434 -0.3506
   30DOPE   H5Y 3832   0.770   1.132   6.452 -0.8346  0.9092 -1.3901
   30DOPE   C36 3833   0.606   1.250   6.514 -0.7064 -0.6873 -0.6184
   30DOPE   H6X 3834   0.607   1.314   6.423  1.6775  2.4798  1.4346
   30DOPE   H6Y 3835   0.573   1.314   6.599  1.7823  0.5446 -0.4999
   30DOPE   C37 3836   0.510   1.134   6.488 -0.3292 -0.3533  0.6287
   30DOPE   H7X 3837   0.550   1.084   6.397 -0.5911  1.0892 -0.3154
   30DOPE   H7Y 3838   0.507   1.065   6.575  1.2901  0.0063  1.0033
   30DOPE   C38 3839   0.367   1.189   6.461 -0.2784  0.3838  0.0654
   30DOPE   H8X 3840   0.378   1.257   6.374 -0.4447 -1.2204 -1.2601
   30DOPE   H8Y 3841   0.344   1.251   6.550  0.9948 -0.6392  1.1458
   30DOPE   C39 3842   0.267   1.075   6.421 -0.3433 -0.0771 -0.0752
   30DOPE   H9X 3843   0.275   1.038   6.318 -0.4460  1.9466 -0.8513
   30DOPE  C310 3844   0.160   1.044   6.497 -0.4706  0.1296  0.4080
   30DOPE  H10X 3845   0.090   0.973   6.451  0.0920  0.0952 -0.4115
   30DOPE  C311 3846   0.132   1.089   6.637  0.6811  0.3895  0.4919
   30DOPE  H11X 3847   0.198   1.040   6.712 -0.3536 -2.0284 -0.1103
   30DOPE  H11Y 3848   0.152   1.198   6.646 -1.3264  0.8199  0.1280
   30DOPE  C312 3849  -0.012   1.066   6.684  0.4392  0.4578  1.1176
   30DOPE  H12X 3850  -0.089   1.100   6.612 -1.6813  0.6480  3.3270
   30DOPE  H12Y 3851  -0.033   1.127   6.775  0.2793  2.8238 -0.4366
   30DOPE  C313 3852  -0.044   0.916   6.702  0.4162 -0.9316 -0.0322
   30DOPE  H13X 3853  -0.038   0.862   6.605  2.4016 -0.6122 -0.1207
   30DOPE  H13Y 3854   0.028   0.870   6.772  1.2362  0.6927  0.2387
   30DOPE  C314 3855  -0.176   0.890   6.772 -1.0261 -0.0035 -0.0758
   30DOPE  H14X 3856  -0.206   0.785   6.754 -0.3181  0.1097 -2.2561
   30DOPE  H14Y 3857  -0.258   0.950   6.727  0.4176  1.1789 -1.2258
   30DOPE  C315 3858  -0.183   0.918   6.922 -0.1730  0.3982 -0.5490
   30DOPE  H15X 3859  -0.151   1.022   6.942  1.2200 -0.0322 -0.4741
   30DOPE  H15Y 3860  -0.111   0.854   6.977 -0.2199  1.6411  1.0194
   30DOPE  C316 3861  -0.333   0.896   6.974 -0.5622  0.5651  0.3333
   30DOPE  H16X 3862  -0.347   0.787   6.988  0.7425  0.4810  1.0685
   30DOPE  H16Y 3863  -0.398   0.943   6.896 -0.3285 -0.2681 -0.3720
   30DOPE  C317 3864  -0.376   0.965   7.111 -0.7589  0.3035  0.1035
   30DOPE  H17X 3865  -0.301   0.942   7.190  0.4252  0.0096 -1.0606
   30DOPE  H17Y 3866  -0.366   1.073   7.088 -1.4781 -0.3100 -3.8937
   30DOPE  C318 3867  -0.512   0.927   7.152  0.7261 -0.1863  0.0869
   30DOPE  H18X 3868  -0.562   0.883   7.063 -2.0472 -1.5193  2.1566
   30DOPE  H18Y 3869  -0.509   0.842   7.223 -0.7937  0.6535  1.2099
   30DOPE  H18Z 3870  -0.578   1.001   7.201 -1.0456 -1.1917 -0.6873
   31DOPE     N 3871   1.648   3.866   2.367 -0.6611  0.5020 -1.0588
   31DOPE   HN1 3872   1.544   3.858   2.371 -0.6109  0.1634  0.1205
   31DOPE   HN2 3873   1.683   3.854   2.270  2.3047  0.3472 -0.0626
   31DOPE   HN3 3874   1.694   3.793   2.425  0.7509  0.4602 -2.1735
   31DOPE   C12 3875   1.695   4.009   2.395 -0.6127  0.3049  0.1202
   31DOPE  H12A 3876   1.623   4.080   2.351  2.6552  2.2405 -2.5886
   31DOPE  H12B 3877   1.794   4.019   2.345 -0.4279 -0.2964  0.3478
   31DOPE   C11 3878   1.712   4.035   2.545 -0.0925 -0.1350 -0.5950
   31DOPE  H11A 3879   1.611   4.029   2.590 -1.2206 -0.3246 -3.0337
   31DOPE  H11B 3880   1.747   4.140   2.558 -0.2324 -0.0467 -0.9278
   31DOPE     P 3881   1.956   3.961   2.610 -0.0549  0.2152  0.0837
   31DOPE   O13 3882   2.001   3.980   2.469  0.1055  0.2211 -0.2594
   31DOPE   O14 3883   2.023   3.852   2.680  0.5925  0.0242 -0.0674
   31DOPE   O11 3884   1.983   4.096   2.689  0.1026  0.3512  0.1997
   31DOPE   O12 3885   1.796   3.941   2.618  0.0697  0.2909 -0.0561
   31DOPE    C1 3886   1.898   4.113   2.807  0.7812 -0.2853 -0.0632
   31DOPE    HA 3887   1.809   4.048   2.823  1.2612 -0.4357  2.3874
   31DOPE    HB 3888   1.852   4.212   2.787 -0.4586 -1.0083 -0.9549
   31DOPE    C2 3889   1.958   4.138   2.951  0.4079 -0.4542 -0.2393
   31DOPE    HS 3890   1.928   4.240   2.984 -0.1644 -0.1741 -1.5828
   31DOPE   O21 3891   2.102   4.125   2.950  0.0980 -0.5759 -0.1653
   31DOPE   C21 3892   2.163   4.221   2.883 -0.0939  0.2534  0.1747
   31DOPE   O22 3893   2.120   4.325   2.834 -0.1062  0.2564 -0.0546
   31DOPE   C22 3894   2.312   4.184   2.881 -0.9144  0.2726 -0.3080
   31DOPE   H2R 3895   2.364   4.252   2.810  1.2925 -1.4722 -0.4780
   31DOPE   H2S 3896   2.311   4.082   2.838 -0.3651  0.9610 -2.0278
   31DOPE    C3 3897   1.892   4.041   3.057 -0.1393 -0.5811  0.0734
   31DOPE    HX 3898   1.942   4.073   3.151  0.4147  1.4652 -0.8613
   31DOPE    HY 3899   1.928   3.938   3.032 -2.2744 -0.6479 -3.5286
   31DOPE   O31 3900   1.750   4.039   3.044 -0.3099 -0.2597  0.0489
   31DOPE   C31 3901   1.689   4.095   3.140  0.1179 -0.7461  0.0912
   31DOPE   O32 3902   1.739   4.158   3.230  0.0840  0.1356  0.0232
   31DOPE   C32 3903   1.538   4.079   3.126 -0.3804 -0.0198 -0.9516
   31DOPE   H2X 3904   1.510   4.167   3.064  1.5586  2.0693  1.0014
   31DOPE   H2Y 3905   1.508   3.987   3.071 -0.9343  0.8822 -2.2182
   31DOPE   C23 3906   2.390   4.191   3.024  0.3520 -0.2940  0.1270
   31DOPE   H3R 3907   2.350   4.273   3.088  1.7643  0.3379  0.2208
   31DOPE   H3S 3908   2.494   4.208   2.990 -0.2682 -0.4667 -1.9442
   31DOPE   C24 3909   2.384   4.070   3.114 -0.0954 -0.0004 -0.5574
   31DOPE   H4R 3910   2.483   4.018   3.110  0.6046  1.2870 -0.5151
   31DOPE   H4S 3911   2.312   3.992   3.081  0.4111 -1.7653  2.1041
   31DOPE   C25 3912   2.352   4.097   3.259  0.0174 -0.0970 -0.2311
   31DOPE   H5R 3913   2.411   4.184   3.292  0.6180 -0.2202 -0.9471
   31DOPE   H5S 3914   2.368   4.005   3.319 -0.0824  0.1074  0.1116
   31DOPE   C26 3915   2.202   4.126   3.290 -0.8619 -0.4169  0.1232
   31DOPE   H6R 3916   2.142   4.039   3.253 -1.5506  0.0138  0.2106
   31DOPE   H6S 3917   2.175   4.211   3.224  0.6561  0.3764  0.5011
   31DOPE   C27 3918   2.179   4.159   3.433  0.5265  0.5860 -0.1967
   31DOPE   H7R 3919   2.139   4.262   3.446  1.7737  1.0312  0.2911
   31DOPE   H7S 3920   2.275   4.154   3.490  1.4992  3.2316 -1.4101
   31DOPE   C28 3921   2.088   4.054   3.506 -0.1163  0.9448 -0.5752
   31DOPE   H8R 3922   2.093   4.070   3.616 -1.0356 -1.1752 -0.1771
   31DOPE   H8S 3923   2.138   3.956   3.492 -0.5950  0.5140  0.6582
   31DOPE   C29 3924   1.944   4.050   3.457  0.1701 -0.2240  0.0896
   31DOPE   H9R 3925   1.918   4.146   3.412  0.2562  0.1870  0.8966
   31DOPE  C210 3926   1.846   3.972   3.508 -0.6221 -0.6040 -0.3718
   31DOPE  H10R 3927   1.742   4.005   3.497 -0.7235 -0.6912  0.3279
   31DOPE  C211 3928   1.867   3.849   3.586 -0.2703  0.8481 -0.8690
   31DOPE  H11R 3929   1.971   3.811   3.578  0.8290  3.2295  1.1897
   31DOPE  H11S 3930   1.803   3.767   3.546 -2.1404  0.7985  1.9260
   31DOPE  C212 3931   1.845   3.866   3.733 -0.1880  0.3781  0.2747
   31DOPE  H12R 3932   1.747   3.914   3.755 -0.1445  0.7371 -0.2942
   31DOPE  H12S 3933   1.920   3.942   3.762  1.1166 -0.4309 -0.8803
   31DOPE  C213 3934   1.867   3.740   3.816 -0.3980  0.1971 -0.1502
   31DOPE  H13R 3935   1.969   3.698   3.806 -1.0834 -1.4135 -0.9117
   31DOPE  H13S 3936   1.797   3.670   3.765 -2.0426  2.5005 -1.1892
   31DOPE  C214 3937   1.839   3.760   3.960 -0.2639 -0.2511 -0.1748
   31DOPE  H14R 3938   1.739   3.808   3.968  0.3513  0.7454  3.2118
   31DOPE  H14S 3939   1.915   3.834   3.995 -0.9989  0.3614  0.1713
   31DOPE  C215 3940   1.838   3.636   4.049  0.1682  0.2079 -0.4261
   31DOPE  H15R 3941   1.937   3.587   4.056  0.1788  0.0306 -1.6530
   31DOPE  H15S 3942   1.758   3.569   4.010 -0.6265  1.8511 -1.7548
   31DOPE  C216 3943   1.813   3.678   4.196  0.2994 -0.1973  0.1172
   31DOPE  H16R 3944   1.708   3.713   4.204  0.8142  2.7332 -3.2931
   31DOPE  H16S 3945   1.894   3.752   4.214 -0.5428  0.5949  0.7535
   31DOPE  C217 3946   1.845   3.571   4.298 -0.0758 -0.8257  0.3479
   31DOPE  H17R 3947   1.891   3.614   4.390  0.8284  0.2035 -0.5518
   31DOPE  H17S 3948   1.920   3.507   4.247  1.5091  1.4144 -0.3081
   31DOPE  C218 3949   1.718   3.494   4.349 -0.0291  0.0248  0.2600
   31DOPE  H18R 3950   1.641   3.569   4.380  3.6841  4.3048  0.2035
   31DOPE  H18S 3951   1.764   3.438   4.433  1.1828  0.8426  0.1672
   31DOPE  H18T 3952   1.683   3.436   4.261 -1.8470 -0.5869  1.3356
   31DOPE   C33 3953   1.467   4.095   3.258 -0.2998 -0.9413 -0.1436
   31DOPE   H3X 3954   1.358   4.106   3.235 -0.2105 -3.3302 -2.0442
   31DOPE   H3Y 3955   1.487   4.192   3.308  1.6622 -0.4180 -1.8215
   31DOPE   C34 3956   1.478   3.983   3.356  1.2081 -0.4551  0.1986
   31DOPE   H4X 3957   1.463   3.894   3.291 -1.2070 -0.2566  0.4133
   31DOPE   H4Y 3958   1.586   3.987   3.381  1.5315  0.0324 -1.1710
   31DOPE   C35 3959   1.404   4.020   3.489  0.6362  0.3278 -0.0178
   31DOPE   H5X 3960   1.294   4.019   3.471  0.7317  1.8675 -0.8783
   31DOPE   H5Y 3961   1.434   4.125   3.508  0.5591  1.4225 -4.6719
   31DOPE   C36 3962   1.442   3.932   3.604 -0.1374 -0.6163  0.0644
   31DOPE   H6X 3963   1.552   3.938   3.618 -0.3270 -1.4249  2.2040
   31DOPE   H6Y 3964   1.428   3.827   3.573 -1.3324  0.4455 -3.5767
   31DOPE   C37 3965   1.379   3.972   3.743 -0.1717 -0.3184  0.1504
   31DOPE   H7X 3966   1.426   3.913   3.824 -1.2243 -1.0831  0.2318
   31DOPE   H7Y 3967   1.389   4.081   3.762  1.6493 -0.0425 -1.9431
   31DOPE   C38 3968   1.226   3.944   3.741  0.1809  0.2237  0.5768
   31DOPE   H8X 3969   1.224   3.836   3.713 -3.6333  0.2777  0.1004
   31DOPE   H8Y 3970   1.181   3.999   3.656 -3.9050 -0.0571  2.3329
   31DOPE   C39 3971   1.139   3.963   3.866 -0.5021  0.3908  0.6884
   31DOPE   H9X 3972   1.104   4.066   3.886  1.5774  1.0141  1.3972
   31DOPE  C310 3973   1.106   3.865   3.953  0.1905 -0.2067 -0.0057
   31DOPE  H10X 3974   1.031   3.881   4.032 -0.4497 -1.8437 -0.2540
   31DOPE  C311 3975   1.158   3.720   3.949  0.2178  0.9750  1.2078
   31DOPE  H11X 3976   1.223   3.694   3.863  1.8762  1.1680  2.3273
   31DOPE  H11Y 3977   1.213   3.695   4.043 -1.7765  0.0988  2.2050
   31DOPE  C312 3978   1.046   3.616   3.950  0.7585  0.1638  0.2387
   31DOPE  H12X 3979   1.082   3.532   3.886  0.3496  1.0815 -1.2278
   31DOPE  H12Y 3980   0.955   3.651   3.896  0.4368 -0.1740  0.5605
   31DOPE  C313 3981   0.992   3.584   4.092 -0.4058 -0.7299 -0.0697
   31DOPE  H13X 3982   1.068   3.582   4.173  0.2243  1.4824 -0.5454
   31DOPE  H13Y 3983   0.924   3.669   4.115  0.1086 -0.0416 -1.0431
   31DOPE  C314 3984   0.912   3.449   4.089 -0.5473  0.2874  0.2185
   31DOPE  H14X 3985   0.966   3.365   4.040 -2.3327 -0.2777 -0.9050
   31DOPE  H14Y 3986   0.813   3.466   4.042 -0.8074 -0.6620  0.3941
   31DOPE  C315 3987   0.877   3.397   4.229 -0.1741 -0.0405  0.4235
   31DOPE  H15X 3988   0.980   3.384   4.268  0.2963 -0.4336 -0.9048
   31DOPE  H15Y 3989   0.828   3.297   4.225 -0.7981  0.2900 -0.6530
   31DOPE  C316 3990   0.778   3.482   4.311 -0.4863  0.6275  0.1220
   31DOPE  H16X 3991   0.685   3.489   4.250 -0.5853  0.7227  0.2851
   31DOPE  H16Y 3992   0.823   3.583   4.321  0.4855  0.2654 -0.4678
   31DOPE  C317 3993   0.746   3.424   4.448  0.2829  0.3262 -0.0067
   31DOPE  H17X 3994   0.832   3.437   4.517  0.8561 -2.1877 -0.1676
   31DOPE  H17Y 3995   0.659   3.470   4.501  1.1270  0.6693  1.1451
   31DOPE  C318 3996   0.704   3.270   4.447 -0.3077 -0.2641  0.1374
   31DOPE  H18X 3997   0.630   3.248   4.367  0.7193 -0.7697 -0.6869
   31DOPE  H18Y 3998   0.787   3.196   4.451  0.0719  0.0595 -1.3654
   31DOPE  H18Z 3999   0.649   3.244   4.541 -0.7628 -1.6480 -0.4881
   32DOPE     N 4000   2.843   3.184   2.469  0.0086  0.0154 -0.7683
   32DOPE   HN1 4001   2.904   3.118   2.416  0.2846 -0.1027 -0.3071
   32DOPE   HN2 4002   2.754   3.136   2.492 -0.8677  2.1422  0.5543
   32DOPE   HN3 4003   2.828   3.256   2.395 -0.9930  1.4037  0.7128
   32DOPE   C12 4004   2.911   3.235   2.591 -0.1291  0.0608 -0.2194
   32DOPE  H12A 4005   2.906   3.146   2.658 -0.7487  0.2429 -0.0204
   32DOPE  H12B 4006   2.859   3.319   2.641 -1.6616 -1.5011  0.9359
   32DOPE   C11 4007   3.060   3.250   2.562 -0.4247 -0.0649  0.7176
   32DOPE  H11A 4008   3.128   3.260   2.649  0.6030 -2.1305  0.2102
   32DOPE  H11B 4009   3.068   3.341   2.499  2.7966 -1.1553 -0.6500
   32DOPE     P 4010   3.255   3.131   2.428  0.0975 -0.4978 -0.2361
   32DOPE   O13 4011   3.261   3.241   2.329  0.2262  0.3781 -0.0175
   32DOPE   O14 4012   3.288   2.995   2.384 -0.0015 -0.5820 -0.3225
   32DOPE   O11 4013   3.346   3.171   2.547  0.9594  0.0109  0.3641
   32DOPE   O12 4014   3.113   3.130   2.497  0.4053  0.3161 -0.7365
   32DOPE    C1 4015   3.411   3.080   2.641 -0.4189 -0.1026 -1.2739
   32DOPE    HA 4016   3.488   3.134   2.700 -2.1305 -0.2274  1.2268
   32DOPE    HB 4017   3.456   2.994   2.587 -1.4032 -0.5583 -1.4066
   32DOPE    C2 4018   3.315   3.022   2.748  0.3557 -0.5890  0.4324
   32DOPE    HS 4019   3.241   2.957   2.696 -2.6901  1.5904  1.6995
   32DOPE   O21 4020   3.251   3.129   2.824 -0.4212  0.1196 -0.1537
   32DOPE   C21 4021   3.138   3.094   2.882  0.3865 -0.1928 -0.2937
   32DOPE   O22 4022   3.087   2.984   2.883  0.3859  0.6381 -0.0952
   32DOPE   C22 4023   3.085   3.216   2.957 -0.1131  0.5499 -0.1575
   32DOPE   H2R 4024   3.001   3.255   2.895 -0.6417 -4.5126 -3.2756
   32DOPE   H2S 4025   3.155   3.302   2.954 -0.8168  1.1228 -1.8713
   32DOPE    C3 4026   3.389   2.913   2.831 -0.0985  0.2935 -0.5024
   32DOPE    HX 4027   3.422   2.828   2.767 -1.0436 -1.1847  0.8777
   32DOPE    HY 4028   3.313   2.859   2.892 -1.0273  0.1225 -1.7619
   32DOPE   O31 4029   3.501   2.960   2.911  0.3734  0.1308 -0.2554
   32DOPE   C31 4030   3.459   3.012   3.026  0.3129  0.5791  0.5184
   32DOPE   O32 4031   3.347   3.000   3.072  0.2180  0.2273 -0.0189
   32DOPE   C32 4032   3.591   3.064   3.099  0.1669  0.2667 -0.3680
   32DOPE   H2X 4033   3.674   2.991   3.092 -0.1088  0.0231 -1.1990
   32DOPE   H2Y 4034   3.622   3.147   3.031 -0.8799 -0.7172 -2.1172
   32DOPE   C23 4035   3.045   3.175   3.106 -0.5168  0.0863  0.2270
   32DOPE   H3R 4036   3.126   3.124   3.162  0.2077  1.2233  0.2483
   32DOPE   H3S 4037   2.953   3.116   3.085 -0.8750  1.6485 -3.2345
   32DOPE   C24 4038   2.986   3.293   3.185 -0.3966  0.1780 -0.2587
   32DOPE   H4R 4039   2.920   3.346   3.113  1.2704  0.2236 -1.8219
   32DOPE   H4S 4040   3.072   3.356   3.217  0.6727  0.1013 -2.7536
   32DOPE   C25 4041   2.911   3.254   3.312 -0.4403  0.5893 -0.8022
   32DOPE   H5R 4042   2.984   3.208   3.382  1.6037  2.8502 -1.3459
   32DOPE   H5S 4043   2.835   3.175   3.290  0.3635  0.0813 -1.8713
   32DOPE   C26 4044   2.851   3.370   3.382  0.0005 -0.2270 -0.6157
   32DOPE   H6R 4045   2.925   3.453   3.387  0.3277 -0.5822  0.8914
   32DOPE   H6S 4046   2.828   3.343   3.487  0.4703 -0.2268 -0.5078
   32DOPE   C27 4047   2.726   3.410   3.318  0.2581 -0.3355  0.6310
   32DOPE   H7R 4048   2.662   3.319   3.324  1.6105 -1.5536 -1.8133
   32DOPE   H7S 4049   2.745   3.420   3.209 -1.4924  0.6084  0.3656
   32DOPE   C28 4050   2.668   3.537   3.373  0.5861 -0.4277  0.1596
   32DOPE   H8R 4051   2.580   3.573   3.316  1.1306  1.4851  0.4441
   32DOPE   H8S 4052   2.730   3.627   3.355  0.5108 -0.2562  0.7193
   32DOPE   C29 4053   2.640   3.547   3.522  0.1066 -0.0383 -0.2650
   32DOPE   H9R 4054   2.722   3.496   3.575 -0.5372  0.0228  0.8303
   32DOPE  C210 4055   2.542   3.618   3.589  0.7284 -0.2483  0.1256
   32DOPE  H10R 4056   2.535   3.596   3.696 -0.6881 -1.4147 -0.1701
   32DOPE  C211 4057   2.438   3.700   3.523  0.2914 -0.0687 -0.2357
   32DOPE  H11R 4058   2.339   3.661   3.556  0.0576  1.3086  0.7877
   32DOPE  H11S 4059   2.431   3.682   3.414 -1.4161  2.1918 -0.5574
   32DOPE  C212 4060   2.449   3.851   3.562 -0.1352 -0.2697  0.2415
   32DOPE  H12R 4061   2.366   3.912   3.520 -0.0542 -0.5418 -0.3182
   32DOPE  H12S 4062   2.540   3.897   3.517 -1.5132  2.0559 -0.3774
   32DOPE  C213 4063   2.444   3.884   3.711 -0.6664  0.3836 -0.0767
   32DOPE  H13R 4064   2.518   3.830   3.774  0.4781  1.3587 -0.5542
   32DOPE  H13S 4065   2.340   3.860   3.742 -2.0363  4.0743 -1.2850
   32DOPE  C214 4066   2.472   4.032   3.726  0.8498 -0.1608  0.6802
   32DOPE  H14R 4067   2.414   4.090   3.651  0.4304 -2.0165 -0.5226
   32DOPE  H14S 4068   2.579   4.050   3.705  0.9426 -0.8889  0.5096
   32DOPE  C215 4069   2.443   4.094   3.866  0.0326  0.2058 -0.3593
   32DOPE  H15R 4070   2.500   4.189   3.879  1.6972 -0.3310 -2.9866
   32DOPE  H15S 4071   2.474   4.013   3.935  0.9510 -0.8634 -1.9564
   32DOPE  C216 4072   2.294   4.113   3.895  0.1424  0.3236 -0.0642
   32DOPE  H16R 4073   2.235   4.018   3.892 -0.2513  0.5876 -2.0396
   32DOPE  H16S 4074   2.244   4.181   3.823  0.4082  1.2374  0.6007
   32DOPE  C217 4075   2.274   4.175   4.030 -0.1718 -0.2455 -0.1254
   32DOPE  H17R 4076   2.289   4.286   4.028  1.2069 -0.4250 -1.6342
   32DOPE  H17S 4077   2.341   4.128   4.105 -0.1876 -1.6810 -0.9833
   32DOPE  C218 4078   2.132   4.166   4.086 -0.1034  0.1226 -0.2616
   32DOPE  H18R 4079   2.137   4.217   4.185  3.5733  1.4476 -0.9605
   32DOPE  H18S 4080   2.094   4.063   4.097 -3.4308  1.3816  1.7635
   32DOPE  H18T 4081   2.059   4.226   4.027  0.1641  1.9207  1.1256
   32DOPE   C33 4082   3.571   3.114   3.248 -0.7037  0.1961  0.6112
   32DOPE   H3X 4083   3.496   3.195   3.240 -1.0266 -0.0898  0.7540
   32DOPE   H3Y 4084   3.663   3.172   3.270  0.2828 -0.8965 -0.4252
   32DOPE   C34 4085   3.536   3.008   3.347 -0.6234  0.2681  0.6430
   32DOPE   H4X 4086   3.447   2.951   3.314 -1.5541  2.0076  0.0112
   32DOPE   H4Y 4087   3.629   2.949   3.360 -1.6719 -1.5311  0.2775
   32DOPE   C35 4088   3.493   3.068   3.482  0.3628  0.4567  0.3168
   32DOPE   H5X 4089   3.435   2.993   3.539 -0.4393 -0.4891 -1.6336
   32DOPE   H5Y 4090   3.415   3.145   3.471  0.4132  0.5995  0.9486
   32DOPE   C36 4091   3.616   3.116   3.565  0.1392 -0.3645  0.0140
   32DOPE   H6X 4092   3.678   3.187   3.506  0.7199 -1.4310 -0.6974
   32DOPE   H6Y 4093   3.673   3.023   3.586  1.0084  0.0169 -0.5937
   32DOPE   C37 4094   3.570   3.170   3.698 -0.0955 -0.1631 -1.0021
   32DOPE   H7X 4095   3.526   3.270   3.678  1.6846  1.6158  2.9869
   32DOPE   H7Y 4096   3.489   3.117   3.752  0.6007  1.8177  2.2451
   32DOPE   C38 4097   3.686   3.181   3.794  0.4432  0.4379 -1.0381
   32DOPE   H8X 4098   3.769   3.243   3.754  0.4365  1.1354 -0.0165
   32DOPE   H8Y 4099   3.732   3.082   3.810 -1.6298 -0.2921  1.0909
   32DOPE   C39 4100   3.640   3.251   3.919 -0.4383  0.6423 -0.1147
   32DOPE   H9X 4101   3.635   3.361   3.914 -1.3018  0.5771 -1.1979
   32DOPE  C310 4102   3.651   3.191   4.039 -0.0496 -0.2568  0.2901
   32DOPE  H10X 4103   3.625   3.245   4.131 -0.0623 -0.1008  0.1951
   32DOPE  C311 4104   3.685   3.048   4.070  0.1299 -0.1883  0.0437
   32DOPE  H11X 4105   3.602   2.996   4.123  1.0138 -0.8278  0.8378
   32DOPE  H11Y 4106   3.690   2.984   3.979 -0.2442 -0.9550  0.5445
   32DOPE  C312 4107   3.804   3.040   4.153 -0.2973 -0.1806  0.3679
   32DOPE  H12X 4108   3.820   2.931   4.170  0.1683  0.1941  2.7573
   32DOPE  H12Y 4109   3.797   3.097   4.248 -1.7137  2.0922 -1.0095
   32DOPE  C313 4110   3.935   3.083   4.085  0.3456 -0.6445  0.0055
   32DOPE  H13X 4111   3.931   3.034   3.985  0.6286 -3.5739  1.3098
   32DOPE  H13Y 4112   3.931   3.193   4.073  0.2420 -0.7903 -1.4780
   32DOPE  C314 4113   4.056   3.041   4.169  0.9032 -0.1211  0.0449
   32DOPE  H14X 4114   4.042   2.934   4.196 -3.0428  0.2451  0.0174
   32DOPE  H14Y 4115   4.056   3.114   4.252 -2.5324 -1.2184  1.1856
   32DOPE  C315 4116   4.191   3.069   4.105 -0.6179 -0.5445 -0.0105
   32DOPE  H15X 4117   4.178   3.173   4.067  0.6423 -0.2275  0.3686
   32DOPE  H15Y 4118   4.218   3.005   4.018 -1.5072 -0.1092 -0.6206
   32DOPE  C316 4119   4.299   3.062   4.219  0.8914 -0.4465  0.2359
   32DOPE  H16X 4120   4.272   2.973   4.281 -2.5207 -0.1205 -0.6084
   32DOPE  H16Y 4121   4.274   3.158   4.269 -2.2304 -1.1285  0.1532
   32DOPE  C317 4122   4.443   3.058   4.168 -0.1454 -0.1649  0.2500
   32DOPE  H17X 4123   4.507   3.024   4.253  1.3702 -0.7556 -1.0722
   32DOPE  H17Y 4124   4.456   2.974   4.096  2.0260  0.5168 -0.2317
   32DOPE  C318 4125   4.486   3.191   4.121 -0.2255  0.0402  0.0823
   32DOPE  H18X 4126   4.573   3.169   4.055 -1.9330 -5.1047 -0.9084
   32DOPE  H18Y 4127   4.414   3.248   4.058 -0.8898  1.3835  1.9516
   32DOPE  H18Z 4128   4.517   3.253   4.207 -0.8403 -0.7212  0.8745
   33DOPE     N 4129   1.932   2.896   2.843  0.2749 -0.4214  0.4960
   33DOPE   HN1 4130   2.004   2.828   2.874 -2.2929 -2.0427  3.5282
   33DOPE   HN2 4131   1.914   2.953   2.928 -0.2149 -1.3554  1.0322
   33DOPE   HN3 4132   1.848   2.838   2.823  0.0438 -0.8236  2.4692
   33DOPE   C12 4133   1.985   2.972   2.725 -0.2645 -0.0565  0.8354
   33DOPE  H12A 4134   1.928   3.068   2.720  1.6908  1.1050 -0.4695
   33DOPE  H12B 4135   1.963   2.924   2.628 -1.2866  0.9373  0.5454
   33DOPE   C11 4136   2.135   3.012   2.735  0.7375  0.1121  0.0957
   33DOPE  H11A 4137   2.156   3.064   2.831  1.2337  0.9297 -0.4404
   33DOPE  H11B 4138   2.153   3.076   2.646  1.8440  0.5610  0.6206
   33DOPE     P 4139   2.374   2.920   2.709 -0.2518  0.0081  0.3197
   33DOPE   O13 4140   2.412   3.060   2.755  0.4670 -0.0425  0.0739
   33DOPE   O14 4141   2.403   2.895   2.567 -0.1504  0.0108  0.7344
   33DOPE   O11 4142   2.458   2.819   2.793  0.1497 -0.0026  0.1902
   33DOPE   O12 4143   2.221   2.897   2.747  0.0464 -0.3398  0.4180
   33DOPE    C1 4144   2.413   2.697   2.853 -0.6060 -0.4585  0.2358
   33DOPE    HA 4145   2.502   2.630   2.860 -0.8312 -0.6980  0.8797
   33DOPE    HB 4146   2.325   2.656   2.800  0.0133 -2.6407  0.7899
   33DOPE    C2 4147   2.347   2.725   2.985 -0.4025  0.1084 -0.0946
   33DOPE    HS 4148   2.285   2.815   2.963 -0.7274  0.4632  2.0258
   33DOPE   O21 4149   2.457   2.752   3.078 -0.0940 -0.1471  0.3202
   33DOPE   C21 4150   2.443   2.857   3.154 -0.3960 -0.6270 -0.7817
   33DOPE   O22 4151   2.341   2.927   3.156 -0.2647 -0.6220  0.2878
   33DOPE   C22 4152   2.565   2.868   3.241  0.1686 -0.0821  0.3206
   33DOPE   H2R 4153   2.607   2.971   3.239  1.5010 -0.5921  0.9513
   33DOPE   H2S 4154   2.648   2.809   3.196  0.2033  1.2961 -1.5328
   33DOPE    C3 4155   2.262   2.612   3.026  0.0511  0.4381 -0.6289
   33DOPE    HX 4156   2.332   2.526   3.034 -1.1314 -0.4657  0.6186
   33DOPE    HY 4157   2.185   2.586   2.950  0.6292  0.2924 -1.1657
   33DOPE   O31 4158   2.204   2.629   3.153  0.5283  0.0746  0.0978
   33DOPE   C31 4159   2.096   2.710   3.159 -0.8518  0.0079 -0.6269
   33DOPE   O32 4160   2.036   2.761   3.063 -0.3784 -0.6863  0.0673
   33DOPE   C32 4161   2.046   2.735   3.304 -0.8573 -0.3997 -0.4556
   33DOPE   H2X 4162   2.012   2.841   3.311 -2.6494 -0.9843  0.2295
   33DOPE   H2Y 4163   1.960   2.669   3.325  0.0350 -1.1194  1.0942
   33DOPE   C23 4164   2.528   2.834   3.386 -0.4128 -0.4735 -0.4089
   33DOPE   H3R 4165   2.617   2.803   3.444 -0.4566 -1.0618 -0.6477
   33DOPE   H3S 4166   2.470   2.740   3.399  1.6817 -2.0104 -1.5867
   33DOPE   C24 4167   2.477   2.946   3.477  0.1412 -0.1008 -0.1982
   33DOPE   H4R 4168   2.465   2.898   3.577 -0.3770  0.2886 -0.0638
   33DOPE   H4S 4169   2.379   2.985   3.444  0.1663  0.1056 -0.0367
   33DOPE   C25 4170   2.577   3.062   3.487  0.6645  0.4410 -0.7473
   33DOPE   H5R 4171   2.590   3.109   3.387 -0.8923 -1.6123 -2.0006
   33DOPE   H5S 4172   2.666   3.002   3.519  0.7171 -1.4826 -3.9817
   33DOPE   C26 4173   2.533   3.186   3.567 -0.7313 -0.5718 -0.2758
   33DOPE   H6R 4174   2.434   3.227   3.539  0.7705  4.5871  1.0187
   33DOPE   H6S 4175   2.605   3.268   3.549 -0.9603 -0.1783  0.5430
   33DOPE   C27 4176   2.532   3.153   3.716 -0.7262  0.5765  0.1317
   33DOPE   H7R 4177   2.637   3.130   3.745 -1.3673 -1.3392  1.0764
   33DOPE   H7S 4178   2.469   3.062   3.731 -1.5406  1.2535  0.9226
   33DOPE   C28 4179   2.471   3.267   3.792  0.1468 -0.1612 -0.8308
   33DOPE   H8R 4180   2.540   3.346   3.756  0.9315 -1.0030 -1.1999
   33DOPE   H8S 4181   2.487   3.256   3.902  2.0550 -1.2316 -1.1775
   33DOPE   C29 4182   2.332   3.293   3.760  0.7905 -0.0303  0.8623
   33DOPE   H9R 4183   2.278   3.207   3.719  0.6372  0.6379 -0.3895
   33DOPE  C210 4184   2.262   3.407   3.789 -0.3024 -0.1031 -0.0115
   33DOPE  H10R 4185   2.153   3.410   3.776 -0.2565  2.7841 -0.4649
   33DOPE  C211 4186   2.307   3.532   3.860 -0.0860 -0.1823  0.4678
   33DOPE  H11R 4187   2.274   3.625   3.808 -0.1768 -0.0972  0.6781
   33DOPE  H11S 4188   2.417   3.537   3.869  0.0142  0.8001 -0.9056
   33DOPE  C212 4189   2.248   3.544   4.006  0.0719 -0.8877  0.1995
   33DOPE  H12R 4190   2.310   3.471   4.063 -0.2269 -0.6461  0.8492
   33DOPE  H12S 4191   2.141   3.514   4.005  0.0792 -1.4086  3.4432
   33DOPE  C213 4192   2.254   3.689   4.056  0.0327 -1.0203  0.3471
   33DOPE  H13R 4193   2.185   3.751   3.995  0.4475 -2.5876 -1.7954
   33DOPE  H13S 4194   2.359   3.724   4.041 -0.2452 -0.2622  0.0837
   33DOPE  C214 4195   2.225   3.696   4.215 -0.4433 -0.0089  0.2840
   33DOPE  H14R 4196   2.309   3.637   4.259 -0.4035 -0.0980  0.0925
   33DOPE  H14S 4197   2.124   3.668   4.249 -0.4891  0.1238  0.2571
   33DOPE  C215 4198   2.243   3.837   4.286 -0.0427  0.2713 -0.3200
   33DOPE  H15R 4199   2.205   3.924   4.230 -1.6241 -0.2576 -0.1105
   33DOPE  H15S 4200   2.354   3.826   4.290 -0.0067  0.5515 -0.5524
   33DOPE  C216 4201   2.175   3.826   4.414  0.3703 -0.4490 -0.5927
   33DOPE  H16R 4202   2.204   3.734   4.468 -1.3394 -1.4822 -1.3543
   33DOPE  H16S 4203   2.068   3.821   4.383  0.4153 -0.8439 -0.6889
   33DOPE  C217 4204   2.201   3.943   4.513 -0.4232  1.0459 -0.3724
   33DOPE  H17R 4205   2.312   3.956   4.517 -0.1444 -0.6829 -1.5428
   33DOPE  H17S 4206   2.162   3.913   4.612 -0.4210  2.4797  0.0972
   33DOPE  C218 4207   2.142   4.078   4.486  0.0558 -0.3875 -0.1229
   33DOPE  H18R 4208   2.191   4.120   4.396 -2.0350 -0.9007 -1.5913
   33DOPE  H18S 4209   2.152   4.136   4.580 -2.0591 -0.8873  0.4874
   33DOPE  H18T 4210   2.033   4.090   4.470  0.1918  0.6873 -0.2622
   33DOPE   C33 4211   2.154   2.702   3.404  0.4638  0.3031 -0.3518
   33DOPE   H3X 4212   2.243   2.762   3.375  0.2867  0.9993  0.5072
   33DOPE   H3Y 4213   2.176   2.593   3.398  3.2815  0.7402  0.7631
   33DOPE   C34 4214   2.127   2.754   3.549  0.4912  0.2192  0.2462
   33DOPE   H4X 4215   2.142   2.864   3.556 -0.1693  0.3798 -0.5878
   33DOPE   H4Y 4216   2.028   2.731   3.596  0.5261  1.5428  1.0123
   33DOPE   C35 4217   2.220   2.677   3.647  0.5972  0.0994 -0.2039
   33DOPE   H5X 4218   2.326   2.679   3.613 -0.2224  1.7170 -3.0302
   33DOPE   H5Y 4219   2.192   2.570   3.638 -1.4837  0.4874  1.0638
   33DOPE   C36 4220   2.197   2.741   3.783 -0.1298 -0.3904  0.0464
   33DOPE   H6X 4221   2.095   2.781   3.800  0.2187  2.8038 -3.9020
   33DOPE   H6Y 4222   2.273   2.823   3.788  0.3686 -0.7498 -1.3530
   33DOPE   C37 4223   2.234   2.641   3.892 -0.5187 -0.1120  0.3136
   33DOPE   H7X 4224   2.155   2.564   3.899 -2.5628  1.9344  0.9626
   33DOPE   H7Y 4225   2.329   2.590   3.866 -1.9392 -1.6135 -2.2309
   33DOPE   C38 4226   2.218   2.718   4.030 -0.7896  0.0849 -0.5742
   33DOPE   H8X 4227   2.215   2.638   4.106 -1.7012  0.1111 -0.5655
   33DOPE   H8Y 4228   2.116   2.760   4.043 -1.5919 -2.0761  0.6505
   33DOPE   C39 4229   2.325   2.826   4.047 -0.1986 -0.0703 -0.3065
   33DOPE   H9X 4230   2.317   2.920   3.990  1.0912  0.8940  1.0285
   33DOPE  C310 4231   2.440   2.827   4.124  0.5797  0.3150  0.1625
   33DOPE  H10X 4232   2.511   2.910   4.112 -0.5297  1.4699  1.2463
   33DOPE  C311 4233   2.482   2.707   4.211  0.4278 -0.4682 -0.2730
   33DOPE  H11X 4234   2.436   2.615   4.169 -0.0028  0.5966 -2.2841
   33DOPE  H11Y 4235   2.588   2.683   4.190  0.5804  0.4237 -0.5518
   33DOPE  C312 4236   2.443   2.718   4.361 -0.6775  0.0879  0.6879
   33DOPE  H12X 4237   2.336   2.748   4.362 -1.1257 -1.1719 -1.7650
   33DOPE  H12Y 4238   2.505   2.801   4.401  1.8305 -1.1776 -0.3570
   33DOPE  C313 4239   2.483   2.594   4.439 -0.1443  0.7770 -0.0563
   33DOPE  H13X 4240   2.412   2.520   4.394 -1.2603  0.3965  2.2080
   33DOPE  H13Y 4241   2.591   2.579   4.417  0.3323 -0.1279  2.5335
   33DOPE  C314 4242   2.456   2.598   4.592  1.1512  0.1197  0.3514
   33DOPE  H14X 4243   2.449   2.496   4.634 -1.6417  0.8603  2.0047
   33DOPE  H14Y 4244   2.353   2.635   4.612  1.4290  0.1255  1.9330
   33DOPE  C315 4245   2.552   2.667   4.681 -0.2139 -0.2527 -0.8867
   33DOPE  H15X 4246   2.554   2.778   4.670  0.4324 -0.0312  1.1159
   33DOPE  H15Y 4247   2.657   2.634   4.666 -0.5130 -2.2141  0.9258
   33DOPE  C316 4248   2.511   2.648   4.829  0.0853 -0.6362  0.2940
   33DOPE  H16X 4249   2.537   2.544   4.859 -1.9466 -0.9668  1.0817
   33DOPE  H16Y 4250   2.401   2.660   4.837  0.2255  0.1627  1.2524
   33DOPE  C317 4251   2.597   2.730   4.927 -0.1107 -0.4001  0.0493
   33DOPE  H17X 4252   2.701   2.712   4.893  0.0652 -3.0375  1.6506
   33DOPE  H17Y 4253   2.559   2.834   4.916 -0.5261 -0.3155  1.9303
   33DOPE  C318 4254   2.593   2.704   5.079 -0.3382 -0.1332  0.0978
   33DOPE  H18X 4255   2.494   2.665   5.111 -0.9418  0.6027 -0.8132
   33DOPE  H18Y 4256   2.666   2.623   5.102 -0.4871 -0.3567 -0.2129
   33DOPE  H18Z 4257   2.622   2.794   5.138 -3.2352  1.6491 -0.9688
   34DOPE     N 4258   2.748   3.954   2.316  0.6848 -0.3957  0.4804
   34DOPE   HN1 4259   2.737   3.914   2.220  0.7405  1.0682 -0.1649
   34DOPE   HN2 4260   2.741   3.868   2.374 -0.8158 -2.0707 -1.9929
   34DOPE   HN3 4261   2.669   4.021   2.326  0.5436 -0.0932 -1.9897
   34DOPE   C12 4262   2.868   4.038   2.334  0.5474  0.6146  0.8647
   34DOPE  H12A 4263   2.961   3.980   2.317  1.2544  2.0627 -0.5628
   34DOPE  H12B 4264   2.862   4.069   2.440 -2.2339 -2.4777  1.7642
   34DOPE   C11 4265   2.875   4.169   2.245  0.8835  0.3345  0.1609
   34DOPE  H11A 4266   2.890   4.129   2.143  0.5699 -1.8986  0.9317
   34DOPE  H11B 4267   2.954   4.239   2.280 -0.0407  1.6169 -0.2498
   34DOPE     P 4268   2.737   4.388   2.254  0.0007 -0.7145  0.1971
   34DOPE   O13 4269   2.599   4.425   2.221  0.8829 -0.4791 -0.3409
   34DOPE   O14 4270   2.846   4.445   2.178 -0.2670 -0.4309  0.1017
   34DOPE   O11 4271   2.769   4.408   2.409 -0.1640 -0.4705 -0.1799
   34DOPE   O12 4272   2.750   4.235   2.245 -0.1045  0.2499 -0.4341
   34DOPE    C1 4273   2.698   4.336   2.510 -0.6609 -0.5450 -0.7357
   34DOPE    HA 4274   2.742   4.236   2.528 -0.1716 -0.4547 -1.3870
   34DOPE    HB 4275   2.595   4.318   2.472 -0.6893 -0.0029 -0.9285
   34DOPE    C2 4276   2.697   4.416   2.645 -0.2609  0.5638  0.2081
   34DOPE    HS 4277   2.666   4.520   2.622  0.1250  0.6893  0.2663
   34DOPE   O21 4278   2.824   4.412   2.708  0.2027 -0.0940 -0.4893
   34DOPE   C21 4279   2.847   4.519   2.784 -0.3709  0.1533 -0.1196
   34DOPE   O22 4280   2.770   4.617   2.788  0.2441 -0.5260  0.7999
   34DOPE   C22 4281   2.980   4.513   2.842 -0.0187  0.5431  0.4635
   34DOPE   H2R 4282   3.064   4.529   2.771 -0.1338  1.7908  0.5896
   34DOPE   H2S 4283   2.996   4.416   2.896  2.0646  2.1574  3.0444
   34DOPE    C3 4284   2.597   4.356   2.741 -0.4598 -0.1950 -1.1473
   34DOPE    HX 4285   2.606   4.247   2.759  0.9813  0.0539 -0.1969
   34DOPE    HY 4286   2.491   4.363   2.706 -1.1896 -0.0641  0.9280
   34DOPE   O31 4287   2.600   4.410   2.876 -0.4861 -0.2439 -0.0781
   34DOPE   C31 4288   2.516   4.517   2.901 -0.9504 -0.6589  0.2496
   34DOPE   O32 4289   2.449   4.578   2.821 -0.2894 -0.2670  0.2996
   34DOPE   C32 4290   2.522   4.551   3.048 -0.1502  0.4946  0.1946
   34DOPE   H2X 4291   2.552   4.461   3.106 -0.4827 -1.0933 -1.9921
   34DOPE   H2Y 4292   2.589   4.639   3.057 -1.7462  1.6061  1.9781
   34DOPE   C23 4293   3.022   4.616   2.945 -0.8878 -0.7058 -0.7548
   34DOPE   H3R 4294   3.033   4.719   2.906 -1.4666  0.1980  1.3488
   34DOPE   H3S 4295   3.121   4.591   2.990 -0.6777  0.5510 -0.4783
   34DOPE   C24 4296   2.927   4.624   3.061 -0.0694 -0.2344  0.8111
   34DOPE   H4R 4297   2.911   4.528   3.114  0.0851 -1.7051 -1.6251
   34DOPE   H4S 4298   2.829   4.654   3.020  0.5914  2.0793  0.7883
   34DOPE   C25 4299   2.948   4.736   3.158  0.7716  0.0023 -0.4943
   34DOPE   H5R 4300   2.984   4.827   3.105  0.6785  0.4350  0.1742
   34DOPE   H5S 4301   3.035   4.714   3.222  0.5151 -1.0451 -0.4729
   34DOPE   C26 4302   2.827   4.767   3.247 -0.6835  0.3051 -0.7695
   34DOPE   H6R 4303   2.787   4.678   3.300 -1.1727 -0.0192 -1.6627
   34DOPE   H6S 4304   2.749   4.811   3.181 -1.2406 -1.0225 -1.0321
   34DOPE   C27 4305   2.858   4.882   3.344 -0.4367  0.0122 -0.3561
   34DOPE   H7R 4306   2.908   4.962   3.286  1.6080 -0.7356  0.2939
   34DOPE   H7S 4307   2.934   4.844   3.416 -1.4571 -2.3889 -0.4577
   34DOPE   C28 4308   2.733   4.935   3.412 -0.0169  0.2361 -1.1768
   34DOPE   H8R 4309   2.665   4.857   3.451  2.2064 -0.9550  0.5579
   34DOPE   H8S 4310   2.678   4.990   3.333 -0.6951 -0.2666 -1.0611
   34DOPE   C29 4311   2.779   5.028   3.525  0.4916 -0.2152  0.3786
   34DOPE   H9R 4312   2.822   5.119   3.481 -3.4947  1.5365 -0.3459
   34DOPE  C210 4313   2.765   5.012   3.657 -0.0368  0.0379 -0.0781
   34DOPE  H10R 4314   2.791   5.095   3.724 -0.4438  0.7809 -0.8217
   34DOPE  C211 4315   2.702   4.898   3.728 -0.6176  0.1691 -0.3404
   34DOPE  H11R 4316   2.773   4.836   3.788  0.7163  0.5629 -1.4726
   34DOPE  H11S 4317   2.665   4.833   3.646  0.2805  0.0026 -0.6268
   34DOPE  C212 4318   2.579   4.936   3.822 -0.6463  0.6213  0.0460
   34DOPE  H12R 4319   2.533   4.844   3.864  1.0452  0.2736  1.2172
   34DOPE  H12S 4320   2.504   4.975   3.749  0.4518  1.0047 -0.9076
   34DOPE  C213 4321   2.594   5.038   3.933  0.5262 -0.5400 -0.7612
   34DOPE  H13R 4322   2.564   5.141   3.905 -0.7363 -0.7706 -0.2970
   34DOPE  H13S 4323   2.704   5.036   3.950  0.4311  0.6554  0.1337
   34DOPE  C214 4324   2.520   5.000   4.060  0.9979  0.3420 -0.1867
   34DOPE  H14R 4325   2.413   4.974   4.041  0.3083  1.6407  1.6665
   34DOPE  H14S 4326   2.511   5.085   4.131  1.6239  1.2882 -1.2127
   34DOPE  C215 4327   2.563   4.867   4.135 -0.3215 -0.3157  0.4694
   34DOPE  H15R 4328   2.673   4.876   4.149 -0.3285  1.8438 -0.6138
   34DOPE  H15S 4329   2.554   4.784   4.062 -0.6151  0.6276 -0.5904
   34DOPE  C216 4330   2.488   4.837   4.259  0.0656 -0.3375  0.2058
   34DOPE  H16R 4331   2.538   4.767   4.329  0.2995  1.0723  1.5162
   34DOPE  H16S 4332   2.388   4.798   4.232 -1.7548  1.8050  3.2659
   34DOPE  C217 4333   2.455   4.963   4.341  0.0737  0.4195 -0.3141
   34DOPE  H17R 4334   2.382   5.029   4.290 -1.2842 -0.7874 -0.0199
   34DOPE  H17S 4335   2.552   5.015   4.351 -0.2146  1.4458 -2.4614
   34DOPE  C218 4336   2.414   4.940   4.485  0.0510 -0.2644  0.2208
   34DOPE  H18R 4337   2.415   5.041   4.531  1.5762 -0.4056  0.5569
   34DOPE  H18S 4338   2.483   4.883   4.551 -1.1561  1.0043  2.7304
   34DOPE  H18T 4339   2.317   4.888   4.499  0.9795 -1.4334  3.0322
   34DOPE   C33 4340   2.404   4.619   3.119  0.1011  0.4728 -0.7088
   34DOPE   H3X 4341   2.312   4.560   3.099  0.4948 -0.0544 -0.9457
   34DOPE   H3Y 4342   2.394   4.724   3.084 -2.5686  1.8596  3.3896
   34DOPE   C34 4343   2.428   4.636   3.272  0.0771 -0.5679 -0.2269
   34DOPE   H4X 4344   2.518   4.697   3.292  1.4178 -2.4906 -0.0549
   34DOPE   H4Y 4345   2.338   4.690   3.308  0.1246  0.3752 -1.4512
   34DOPE   C35 4346   2.443   4.499   3.351  0.1231 -0.7141 -0.3570
   34DOPE   H5X 4347   2.550   4.478   3.373  0.0768 -1.8762 -1.1375
   34DOPE   H5Y 4348   2.407   4.415   3.288  0.3487 -1.3805  0.3933
   34DOPE   C36 4349   2.359   4.499   3.482 -0.2514  0.0793  0.8411
   34DOPE   H6X 4350   2.377   4.407   3.541 -0.1176  0.5399  1.5356
   34DOPE   H6Y 4351   2.252   4.498   3.453  0.1926 -0.1317 -0.8913
   34DOPE   C37 4352   2.375   4.630   3.561  0.8683 -1.2220  0.0378
   34DOPE   H7X 4353   2.481   4.644   3.592  0.2289 -1.3002  2.4702
   34DOPE   H7Y 4354   2.344   4.726   3.513  0.2289 -0.5851  1.6713
   34DOPE   C38 4355   2.286   4.610   3.686 -0.0988 -0.2925  0.4201
   34DOPE   H8X 4356   2.200   4.548   3.654  0.5647 -1.4327  0.7821
   34DOPE   H8Y 4357   2.245   4.704   3.727 -2.6521 -1.3255  0.4195
   34DOPE   C39 4358   2.357   4.527   3.795  0.1935 -0.9959 -0.0481
   34DOPE   H9X 4359   2.408   4.435   3.764  0.8661 -0.5318 -0.3135
   34DOPE  C310 4360   2.331   4.550   3.928 -0.4593 -0.0199  0.4020
   34DOPE  H10X 4361   2.408   4.507   3.995  2.3382  2.4375 -0.9910
   34DOPE  C311 4362   2.246   4.659   3.989  0.0292 -0.8153 -0.2214
   34DOPE  H11X 4363   2.311   4.736   4.037 -1.6406  1.6636 -1.6690
   34DOPE  H11Y 4364   2.198   4.728   3.916 -1.7649 -0.2697  1.3931
   34DOPE  C312 4365   2.137   4.619   4.094 -0.6175 -0.5042 -0.0300
   34DOPE  H12X 4366   2.188   4.582   4.185  0.5015 -0.9320 -0.8114
   34DOPE  H12Y 4367   2.075   4.540   4.046 -0.8061  0.1891 -0.9602
   34DOPE  C313 4368   2.033   4.726   4.134 -0.3199  0.1729 -0.4973
   34DOPE  H13X 4369   2.094   4.815   4.161 -0.5632  0.5997 -1.3312
   34DOPE  H13Y 4370   1.960   4.742   4.052 -1.7654  1.2985  0.9348
   34DOPE  C314 4371   1.959   4.669   4.253 -0.8114 -0.0966 -0.5955
   34DOPE  H14X 4372   2.026   4.620   4.326 -0.7779 -0.1093 -0.6346
   34DOPE  H14Y 4373   1.889   4.588   4.223 -0.2347 -0.3597 -1.2464
   34DOPE  C315 4374   1.873   4.778   4.328  0.0107 -0.8653 -0.2680
   34DOPE  H15X 4375   1.805   4.824   4.253  0.3111  1.1196  0.6212
   34DOPE  H15Y 4376   1.940   4.858   4.364 -1.5960  0.3356  0.1549
   34DOPE  C316 4377   1.782   4.712   4.439 -0.0131  0.0640 -0.6118
   34DOPE  H16X 4378   1.726   4.628   4.393 -0.1790 -0.4510  0.4745
   34DOPE  H16Y 4379   1.711   4.793   4.465 -0.8940 -0.7872 -0.2980
   34DOPE  C317 4380   1.861   4.656   4.561 -0.4485 -0.0292 -0.0464
   34DOPE  H17X 4381   1.931   4.572   4.544  0.6574  0.5952  1.2248
   34DOPE  H17Y 4382   1.931   4.739   4.586 -0.6678  0.5506 -1.2949
   34DOPE  C318 4383   1.775   4.630   4.680 -0.0013 -0.1984 -0.2408
   34DOPE  H18X 4384   1.690   4.698   4.700  0.9214  1.5457 -1.9040
   34DOPE  H18Y 4385   1.726   4.532   4.662  1.3307 -1.4762  2.5351
   34DOPE  H18Z 4386   1.838   4.622   4.771 -0.1102 -1.2015 -0.2449
   35DOPE     N 4387   3.927   3.650   2.308  0.1613 -0.0518  1.0604
   35DOPE   HN1 4388   3.945   3.551   2.284  1.2358  0.4167 -0.2597
   35DOPE   HN2 4389   3.830   3.676   2.283  0.8293  1.0377 -0.5757
   35DOPE   HN3 4390   3.985   3.717   2.253 -1.6512  1.2980  0.7120
   35DOPE   C12 4391   3.944   3.683   2.454  0.0553 -0.1154  0.4851
   35DOPE  H12A 4392   3.855   3.632   2.498 -0.1876 -1.6949 -1.6894
   35DOPE  H12B 4393   3.927   3.792   2.461  0.4338 -0.0317  0.1099
   35DOPE   C11 4394   4.069   3.629   2.523  0.8221  0.3006  0.3652
   35DOPE  H11A 4395   4.035   3.605   2.626 -2.3207  1.7504 -0.2355
   35DOPE  H11B 4396   4.148   3.707   2.518  2.1427 -1.0330 -0.2922
   35DOPE     P 4397   4.241   3.436   2.520 -0.1996 -0.2075 -0.4068
   35DOPE   O13 4398   4.360   3.518   2.489 -0.1906 -0.2139 -0.2686
   35DOPE   O14 4399   4.239   3.299   2.462 -0.2837 -0.2501 -0.0134
   35DOPE   O11 4400   4.226   3.424   2.673  0.5843  0.0109  0.0308
   35DOPE   O12 4401   4.111   3.506   2.458 -0.3898  0.1445 -0.1400
   35DOPE    C1 4402   4.320   3.481   2.763  0.3874 -0.2546  0.2287
   35DOPE    HA 4403   4.280   3.478   2.867 -0.8284 -1.7630 -0.2488
   35DOPE    HB 4404   4.352   3.585   2.742 -0.0803  0.1504  1.4399
   35DOPE    C2 4405   4.456   3.396   2.765  0.4050 -0.2479  0.3338
   35DOPE    HS 4406   4.486   3.402   2.658  0.5565 -1.8289  0.2627
   35DOPE   O21 4407   4.425   3.269   2.821  0.5323  0.1448  0.0014
   35DOPE   C21 4408   4.489   3.165   2.764  0.5239 -0.5955  0.2135
   35DOPE   O22 4409   4.567   3.180   2.669  0.2089  0.0662  0.4430
   35DOPE   C22 4410   4.459   3.032   2.832 -0.4440  0.1934  0.1146
   35DOPE   H2R 4411   4.503   2.956   2.763  0.6470  1.7532 -0.9852
   35DOPE   H2S 4412   4.350   3.014   2.832 -0.2197 -1.3460 -0.5623
   35DOPE    C3 4413   4.577   3.456   2.849 -0.5108  0.5528  0.2941
   35DOPE    HX 4414   4.599   3.552   2.798 -0.3415  0.3621  0.0039
   35DOPE    HY 4415   4.656   3.380   2.832 -0.2514  0.7910  0.4212
   35DOPE   O31 4416   4.556   3.469   2.992  0.0451 -0.4113  0.0243
   35DOPE   C31 4417   4.539   3.583   3.048 -0.9600 -0.6769  0.6420
   35DOPE   O32 4418   4.549   3.695   3.000 -0.0623 -0.6536 -0.3713
   35DOPE   C32 4419   4.509   3.562   3.188 -0.3650  0.2537  0.4924
   35DOPE   H2X 4420   4.413   3.506   3.196 -0.6246  0.7314  0.7856
   35DOPE   H2Y 4421   4.581   3.495   3.239  0.5031  0.9101  0.1579
   35DOPE   C23 4422   4.526   3.035   2.971  0.4108  0.3420 -0.1588
   35DOPE   H3R 4423   4.479   2.955   3.032 -0.7056  0.5073 -0.7649
   35DOPE   H3S 4424   4.511   3.136   3.015  3.1187 -0.0399  1.8587
   35DOPE   C24 4425   4.677   3.009   2.972  0.1683  0.2027 -0.5700
   35DOPE   H4R 4426   4.730   3.100   2.935 -0.5547  1.1396  0.5961
   35DOPE   H4S 4427   4.698   2.920   2.909 -2.7796 -1.3304  0.4481
   35DOPE   C25 4428   4.723   2.968   3.114  0.2855  0.1900 -0.1075
   35DOPE   H5R 4429   4.830   2.939   3.102  0.1142  0.2507 -1.9513
   35DOPE   H5S 4430   4.660   2.888   3.158 -0.3590  1.5497  1.5566
   35DOPE   C26 4431   4.717   3.098   3.194  0.3731  0.1870  0.1061
   35DOPE   H6R 4432   4.608   3.118   3.204 -0.1883 -0.8597 -2.9110
   35DOPE   H6S 4433   4.752   3.187   3.138 -3.3810  1.0303 -1.1910
   35DOPE   C27 4434   4.809   3.105   3.316  0.3862  0.3025 -0.4792
   35DOPE   H7R 4435   4.905   3.132   3.266  0.4352 -1.5452 -1.4631
   35DOPE   H7S 4436   4.832   3.005   3.357 -3.7910 -0.4435  0.4440
   35DOPE   C28 4437   4.780   3.207   3.422  0.2179  0.4853 -0.1317
   35DOPE   H8R 4438   4.775   3.311   3.383 -0.5320  1.4815  2.4203
   35DOPE   H8S 4439   4.872   3.209   3.485  0.7584 -2.1506 -0.6893
   35DOPE   C29 4440   4.657   3.182   3.504  0.2286  0.1497  0.1306
   35DOPE   H9R 4441   4.564   3.203   3.449  1.1069  3.1316 -0.4124
   35DOPE  C210 4442   4.653   3.138   3.631  0.5099 -0.2181 -0.1797
   35DOPE  H10R 4443   4.558   3.123   3.684  0.6867  1.5751  0.7300
   35DOPE  C211 4444   4.768   3.120   3.725 -0.1726  0.1327  0.1829
   35DOPE  H11R 4445   4.859   3.077   3.679 -1.1086 -2.1232  0.3118
   35DOPE  H11S 4446   4.740   3.037   3.793  1.6921 -2.0270 -1.5401
   35DOPE  C212 4447   4.808   3.251   3.802  1.2024  0.3101  1.1694
   35DOPE  H12R 4448   4.713   3.279   3.853  0.1228  2.2096 -1.6149
   35DOPE  H12S 4449   4.839   3.327   3.727 -1.7234  0.0777 -0.4238
   35DOPE  C213 4450   4.909   3.233   3.906 -0.0081 -0.1436 -0.2788
   35DOPE  H13R 4451   5.009   3.218   3.860  0.3246  0.6847  0.1632
   35DOPE  H13S 4452   4.893   3.140   3.966  2.1623  0.1650  0.8589
   35DOPE  C214 4453   4.922   3.348   3.999 -0.3981  0.1861 -0.7668
   35DOPE  H14R 4454   4.919   3.440   3.937  0.0311 -0.5032 -1.8483
   35DOPE  H14S 4455   5.023   3.337   4.045 -0.1498 -0.5809 -1.4528
   35DOPE  C215 4456   4.811   3.353   4.106 -0.1815  0.4998  0.5634
   35DOPE  H15R 4457   4.833   3.285   4.191 -2.5681 -0.7425  0.2942
   35DOPE  H15S 4458   4.712   3.314   4.072 -1.0183  1.6756  1.5580
   35DOPE  C216 4459   4.782   3.493   4.176  0.5366 -0.2316  0.4189
   35DOPE  H16R 4460   4.881   3.526   4.214 -0.4175  0.8571  2.0712
   35DOPE  H16S 4461   4.711   3.480   4.260  0.0133 -0.1471 -0.0036
   35DOPE  C217 4462   4.710   3.582   4.070 -0.3890  0.0241  0.0993
   35DOPE  H17R 4463   4.611   3.546   4.032  0.0732 -1.3643  0.1530
   35DOPE  H17S 4464   4.781   3.587   3.985 -1.0400 -0.3308 -0.4751
   35DOPE  C218 4465   4.693   3.727   4.111 -0.1034 -0.1723  0.2460
   35DOPE  H18R 4466   4.788   3.768   4.152 -0.5845  0.3914  0.8171
   35DOPE  H18S 4467   4.616   3.728   4.192 -0.2850 -1.3406  0.1053
   35DOPE  H18T 4468   4.654   3.799   4.036  2.4095 -0.0109 -1.0017
   35DOPE   C33 4469   4.513   3.692   3.275  0.1234  0.3118  0.1001
   35DOPE   H3X 4470   4.457   3.772   3.222 -0.3146 -0.8351 -1.2359
   35DOPE   H3Y 4471   4.621   3.713   3.289  0.2000 -1.0948  1.9588
   35DOPE   C34 4472   4.457   3.672   3.413  0.5719  0.3969  0.0782
   35DOPE   H4X 4473   4.449   3.768   3.469 -1.5428  0.2387  0.0981
   35DOPE   H4Y 4474   4.351   3.642   3.400  0.6313  0.9296 -2.0026
   35DOPE   C35 4475   4.520   3.565   3.501 -0.0378  0.3046 -0.2669
   35DOPE   H5X 4476   4.630   3.566   3.484  0.3547 -0.0711  1.9699
   35DOPE   H5Y 4477   4.477   3.469   3.467  0.5737 -0.9568  2.2523
   35DOPE   C36 4478   4.488   3.570   3.658  1.3334 -0.3117  0.1173
   35DOPE   H6X 4479   4.530   3.665   3.696  2.7354 -1.3928  1.3939
   35DOPE   H6Y 4480   4.533   3.482   3.708 -1.3357 -0.1042  3.1567
   35DOPE   C37 4481   4.337   3.576   3.684  0.6772 -0.6648 -0.3360
   35DOPE   H7X 4482   4.299   3.678   3.662  0.5293 -0.7482 -0.4758
   35DOPE   H7Y 4483   4.287   3.503   3.616 -0.1998 -0.9581  0.6015
   35DOPE   C38 4484   4.296   3.530   3.824 -0.2210  0.3392  0.2327
   35DOPE   H8X 4485   4.368   3.556   3.905  0.0573  4.0930 -1.0386
   35DOPE   H8Y 4486   4.284   3.420   3.819 -2.8216  0.6201 -3.0748
   35DOPE   C39 4487   4.158   3.564   3.883  0.1280 -0.7460 -0.3311
   35DOPE   H9X 4488   4.076   3.573   3.810 -1.3170  2.6904  1.4517
   35DOPE  C310 4489   4.130   3.603   4.009  0.3683  0.2254  0.0703
   35DOPE  H10X 4490   4.026   3.631   4.029 -0.2044 -0.5969 -1.5347
   35DOPE  C311 4491   4.223   3.599   4.130  0.5523 -0.5228  0.9480
   35DOPE  H11X 4492   4.330   3.584   4.104  0.0547 -1.3620 -0.8180
   35DOPE  H11Y 4493   4.226   3.699   4.178  0.4008 -0.4765  0.8624
   35DOPE  C312 4494   4.179   3.494   4.234 -0.4520  0.7045 -0.0028
   35DOPE  H12X 4495   4.225   3.504   4.335  1.2439 -1.3919 -0.4912
   35DOPE  H12Y 4496   4.229   3.408   4.184 -1.9673  0.5427 -1.3122
   35DOPE  C313 4497   4.029   3.473   4.259 -0.9488 -0.6384  0.3688
   35DOPE  H13X 4498   3.978   3.468   4.160  0.6630 -3.8050 -0.4514
   35DOPE  H13Y 4499   4.013   3.381   4.318 -2.3257  0.0366  1.0925
   35DOPE  C314 4500   3.964   3.590   4.340 -0.7467  0.0422 -0.2281
   35DOPE  H14X 4501   3.972   3.683   4.281  0.1646  1.4090  1.8994
   35DOPE  H14Y 4502   4.024   3.608   4.432  0.2124 -0.0335 -0.8238
   35DOPE  C315 4503   3.819   3.560   4.377  0.1138 -0.9786 -0.2728
   35DOPE  H15X 4504   3.820   3.475   4.448  0.7854  0.3452  1.4007
   35DOPE  H15Y 4505   3.774   3.527   4.282 -1.8650 -0.7375  0.5469
   35DOPE  C316 4506   3.743   3.676   4.445  0.6145  0.2019 -0.5776
   35DOPE  H16X 4507   3.637   3.644   4.450 -0.4546  3.3132 -1.0970
   35DOPE  H16Y 4508   3.737   3.759   4.371 -0.2778  0.5544 -0.1256
   35DOPE  C317 4509   3.794   3.729   4.579  0.0150 -0.7845  0.4161
   35DOPE  H17X 4510   3.828   3.644   4.641  1.8529 -1.5616 -1.5295
   35DOPE  H17Y 4511   3.887   3.789   4.569  0.5710 -1.7878 -0.6481
   35DOPE  C318 4512   3.691   3.814   4.665 -0.5196  0.1240  0.7370
   35DOPE  H18X 4513   3.611   3.747   4.704 -1.9146  0.8976 -0.6892
   35DOPE  H18Y 4514   3.755   3.867   4.739  2.3227  1.4320 -2.3751
   35DOPE  H18Z 4515   3.645   3.896   4.605  0.4094  1.4726  1.7998
   36DOPE     N 4516   6.390   4.281   2.025 -0.0843 -0.0156 -0.9314
   36DOPE   HN1 4517   6.414   4.376   1.989 -0.3233  0.1243 -0.7246
   36DOPE   HN2 4518   6.348   4.286   2.120  1.1376  2.2453 -0.4405
   36DOPE   HN3 4519   6.482   4.233   2.020  0.6672  1.4673 -2.5929
   36DOPE   C12 4520   6.275   4.221   1.945 -0.3677 -0.0892 -0.1626
   36DOPE  H12A 4521   6.224   4.147   2.010 -0.6653 -0.3701 -0.7085
   36DOPE  H12B 4522   6.314   4.178   1.851 -1.7337  1.4067 -1.5016
   36DOPE   C11 4523   6.175   4.327   1.897 -0.4321 -0.2846 -0.7549
   36DOPE  H11A 4524   6.119   4.373   1.982  0.3422  1.4738 -1.1476
   36DOPE  H11B 4525   6.110   4.260   1.837  0.8328 -1.8660 -0.4223
   36DOPE     P 4526   6.177   4.556   1.779  0.1426 -0.0422  0.0135
   36DOPE   O13 4527   6.089   4.526   1.663 -0.1251  0.0972  0.1934
   36DOPE   O14 4528   6.277   4.667   1.754  0.3724 -0.3550  0.2096
   36DOPE   O11 4529   6.090   4.590   1.903 -0.1045  0.0240  0.0531
   36DOPE   O12 4530   6.247   4.424   1.826 -0.0745 -0.5265 -0.6182
   36DOPE    C1 4531   6.066   4.732   1.933 -0.1367  0.0296  0.2494
   36DOPE    HA 4532   5.988   4.771   1.864 -0.9736  1.3550  1.8459
   36DOPE    HB 4533   6.152   4.802   1.945  0.1921 -0.5511  1.3592
   36DOPE    C2 4534   6.001   4.718   2.075  0.2785  0.1311 -0.4788
   36DOPE    HS 4535   5.977   4.819   2.116  0.5133 -0.0880  0.2166
   36DOPE   O21 4536   6.090   4.645   2.155 -0.2060  0.2204  0.1186
   36DOPE   C21 4537   6.196   4.716   2.188  0.1560  0.0462  0.0183
   36DOPE   O22 4538   6.226   4.833   2.161 -0.1843  0.1889  0.2924
   36DOPE   C22 4539   6.291   4.629   2.267 -0.4738 -0.0639  0.4635
   36DOPE   H2R 4540   6.393   4.664   2.242  0.0391 -1.2946  0.7329
   36DOPE   H2S 4541   6.284   4.525   2.228  1.8063  0.2168 -0.8650
   36DOPE    C3 4542   5.866   4.645   2.073  0.4212  0.1527  0.3303
   36DOPE    HX 4543   5.888   4.551   2.018 -2.5197 -0.4206 -0.0301
   36DOPE    HY 4544   5.796   4.698   2.005 -0.0058  0.3772  0.9267
   36DOPE   O31 4545   5.808   4.633   2.201  0.2995 -0.1311  0.1238
   36DOPE   C31 4546   5.753   4.517   2.219 -0.3825 -0.7182 -0.4657
   36DOPE   O32 4547   5.754   4.422   2.142 -0.1573 -0.2122 -0.0848
   36DOPE   C32 4548   5.695   4.524   2.367  0.4293 -0.8377 -0.2326
   36DOPE   H2X 4549   5.779   4.537   2.439 -0.5328 -0.7553  0.8908
   36DOPE   H2Y 4550   5.625   4.609   2.377  1.2381 -0.1385 -0.3275
   36DOPE   C23 4551   6.272   4.618   2.421  0.0607 -0.8593  0.0090
   36DOPE   H3R 4552   6.273   4.723   2.458 -1.2303 -0.1374 -1.8272
   36DOPE   H3S 4553   6.352   4.554   2.463  0.8292  0.5926  0.8453
   36DOPE   C24 4554   6.136   4.553   2.459 -0.2713 -0.0715 -0.5562
   36DOPE   H4R 4555   6.151   4.443   2.452 -2.6290 -0.4595 -0.3598
   36DOPE   H4S 4556   6.055   4.597   2.397 -0.5477 -0.6157 -0.5895
   36DOPE   C25 4557   6.083   4.580   2.604  0.2615  0.3614 -0.2070
   36DOPE   H5R 4558   5.988   4.523   2.615  2.0521 -3.1507 -1.3356
   36DOPE   H5S 4559   6.050   4.686   2.603 -0.2933  0.2310 -2.3699
   36DOPE   C26 4560   6.175   4.548   2.723 -0.7255  0.4221 -0.1407
   36DOPE   H6R 4561   6.131   4.577   2.821  1.2402  0.8126  0.6690
   36DOPE   H6S 4562   6.257   4.622   2.719 -1.5430  1.2883 -1.3810
   36DOPE   C27 4563   6.237   4.409   2.720  0.0709  0.2347 -0.2861
   36DOPE   H7R 4564   6.297   4.407   2.814 -1.3922 -1.3719  0.6822
   36DOPE   H7S 4565   6.297   4.388   2.629  1.5565  0.5285  0.5997
   36DOPE   C28 4566   6.139   4.296   2.732  0.2384  0.2557 -0.3863
   36DOPE   H8R 4567   6.067   4.287   2.648  2.1558  1.8261 -2.3033
   36DOPE   H8S 4568   6.072   4.327   2.816  0.7134 -1.0482  0.5050
   36DOPE   C29 4569   6.194   4.158   2.757 -1.1898 -0.8174 -0.0624
   36DOPE   H9R 4570   6.263   4.117   2.683  0.0843  0.8257  0.1613
   36DOPE  C210 4571   6.154   4.079   2.860 -0.2057 -0.0886  0.9310
   36DOPE  H10R 4572   6.194   3.977   2.869 -1.4730 -0.5293  1.8641
   36DOPE  C211 4573   6.056   4.118   2.970  0.1851  1.2645  1.2323
   36DOPE  H11R 4574   5.952   4.081   2.953  0.3782 -0.3457  3.2314
   36DOPE  H11S 4575   6.048   4.228   2.981  0.7888  1.7455 -2.0594
   36DOPE  C212 4576   6.109   4.065   3.106  0.7748 -0.2228 -0.2513
   36DOPE  H12R 4577   6.213   4.100   3.121  2.2607 -4.0931 -0.3201
   36DOPE  H12S 4578   6.114   3.954   3.099 -1.6104 -0.3303 -1.2770
   36DOPE  C213 4579   6.012   4.107   3.215 -0.0410  0.3341 -0.4622
   36DOPE  H13R 4580   6.045   4.057   3.309 -2.7375  0.4328  0.6420
   36DOPE  H13S 4581   5.918   4.055   3.185 -0.0572  0.2788 -0.3156
   36DOPE  C214 4582   5.972   4.255   3.242  0.2262  0.5232  0.0039
   36DOPE  H14R 4583   6.060   4.310   3.205  1.3138  1.2854  3.3980
   36DOPE  H14S 4584   5.962   4.278   3.350 -0.1136  1.5595 -0.2324
   36DOPE  C215 4585   5.840   4.286   3.173 -0.5947 -0.0570  0.4531
   36DOPE  H15R 4586   5.759   4.228   3.224 -0.2697 -0.5580  0.4081
   36DOPE  H15S 4587   5.838   4.236   3.074  0.6277  0.7808 -0.0023
   36DOPE  C216 4588   5.803   4.430   3.155  0.3233 -0.9010  0.3534
   36DOPE  H16R 4589   5.850   4.478   3.067 -0.7130 -0.9078 -0.2221
   36DOPE  H16S 4590   5.848   4.487   3.239 -1.9158 -1.0518  1.7419
   36DOPE  C217 4591   5.655   4.446   3.158  0.8466 -1.0303 -0.8532
   36DOPE  H17R 4592   5.620   4.416   3.259  2.6853  0.1909  0.2103
   36DOPE  H17S 4593   5.614   4.383   3.076  0.9370  0.0789 -1.7743
   36DOPE  C218 4594   5.616   4.598   3.137 -0.6614 -0.1158  0.9464
   36DOPE  H18R 4595   5.505   4.611   3.139 -0.5391  0.9743  1.7040
   36DOPE  H18S 4596   5.653   4.628   3.036 -0.0384  2.2114  1.8081
   36DOPE  H18T 4597   5.661   4.657   3.219  0.4117 -0.1195  0.3760
   36DOPE   C33 4598   5.626   4.395   2.408 -0.3616  0.4706  0.0703
   36DOPE   H3X 4599   5.698   4.312   2.389 -0.8735  0.1800 -0.6705
   36DOPE   H3Y 4600   5.529   4.379   2.357 -0.9014  0.5426  1.0576
   36DOPE   C34 4601   5.584   4.386   2.555 -0.2772  0.1809  0.4028
   36DOPE   H4X 4602   5.538   4.482   2.588  1.1330  0.7142  0.8777
   36DOPE   H4Y 4603   5.499   4.316   2.568 -1.6160  2.1491  3.5732
   36DOPE   C35 4604   5.699   4.355   2.650 -0.0041 -0.2686  0.3226
   36DOPE   H5X 4605   5.760   4.448   2.650  0.5500 -0.6234 -0.1816
   36DOPE   H5Y 4606   5.757   4.281   2.591 -0.3978 -0.4281  0.1320
   36DOPE   C36 4607   5.666   4.308   2.783  0.4222  0.0376 -0.2354
   36DOPE   H6X 4608   5.632   4.398   2.838  0.2097 -0.5446  0.6011
   36DOPE   H6Y 4609   5.761   4.277   2.833  0.0154  0.6708  0.9544
   36DOPE   C37 4610   5.555   4.197   2.791  0.3717  0.6087 -0.2895
   36DOPE   H7X 4611   5.455   4.246   2.783  0.8562  1.7768  0.6145
   36DOPE   H7Y 4612   5.571   4.127   2.706  0.4603  1.0754 -0.6613
   36DOPE   C38 4613   5.582   4.123   2.929  0.4565  0.7590 -0.3257
   36DOPE   H8X 4614   5.574   4.190   3.017 -0.6058  0.1893  0.0361
   36DOPE   H8Y 4615   5.687   4.089   2.930  0.2786  0.0320 -2.2939
   36DOPE   C39 4616   5.496   3.997   2.955  0.1288 -0.0595  0.7997
   36DOPE   H9X 4617   5.501   3.933   2.865  0.1812 -0.2741  0.9538
   36DOPE  C310 4618   5.422   3.965   3.065  1.1924  0.2407  0.1999
   36DOPE  H10X 4619   5.361   3.874   3.067  0.2812  0.7891 -1.1557
   36DOPE  C311 4620   5.401   4.059   3.181 -0.4000 -0.2708  0.6729
   36DOPE  H11X 4621   5.434   4.164   3.162  1.6966 -1.2928 -1.8015
   36DOPE  H11Y 4622   5.290   4.064   3.192 -0.5475 -1.1102 -0.3786
   36DOPE  C312 4623   5.475   4.031   3.310  0.4836  0.8918 -0.7820
   36DOPE  H12X 4624   5.582   4.035   3.282  0.8837  1.3043  0.6902
   36DOPE  H12Y 4625   5.460   3.926   3.345  0.3500  1.3152  0.4969
   36DOPE  C313 4626   5.468   4.136   3.420  0.0493 -0.5150  0.5316
   36DOPE  H13X 4627   5.490   4.231   3.366 -0.6305 -1.5734 -1.6974
   36DOPE  H13Y 4628   5.360   4.132   3.444  0.0772 -1.3786  0.5505
   36DOPE  C314 4629   5.565   4.110   3.532  0.5085  0.0725 -0.4487
   36DOPE  H14X 4630   5.664   4.082   3.490  0.2676  0.4050 -1.2538
   36DOPE  H14Y 4631   5.544   4.020   3.594 -2.4161  0.8048 -0.2461
   36DOPE  C315 4632   5.593   4.228   3.630  0.1219  0.0951 -0.4689
   36DOPE  H15X 4633   5.670   4.202   3.707 -0.7561  1.4317  0.9200
   36DOPE  H15Y 4634   5.508   4.256   3.695 -0.5995 -1.0521 -0.8910
   36DOPE  C316 4635   5.628   4.366   3.574  0.4702 -0.4232 -0.3487
   36DOPE  H16X 4636   5.532   4.402   3.530 -0.6674 -0.8620  1.6387
   36DOPE  H16Y 4637   5.709   4.349   3.500 -1.1189 -1.5288 -1.9452
   36DOPE  C317 4638   5.679   4.465   3.686  0.2377 -0.1144  0.3399
   36DOPE  H17X 4639   5.599   4.475   3.763  1.3692 -1.4419  1.7508
   36DOPE  H17Y 4640   5.766   4.425   3.742  1.2005  1.1263 -0.2408
   36DOPE  C318 4641   5.718   4.596   3.620 -0.3838  0.2170  0.6277
   36DOPE  H18X 4642   5.770   4.651   3.700  0.4465 -0.8678  0.8530
   36DOPE  H18Y 4643   5.784   4.581   3.532 -1.0034 -0.4190  0.2577
   36DOPE  H18Z 4644   5.637   4.656   3.572 -1.1102 -2.3418 -1.6016
   37DOPE     N 4645   0.507   3.061   2.408  0.5962  0.0358  0.4096
   37DOPE   HN1 4646   0.467   3.151   2.376 -0.3762 -0.1248  1.1229
   37DOPE   HN2 4647   0.597   3.079   2.456  0.8519  1.4803 -0.5664
   37DOPE   HN3 4648   0.536   3.005   2.324 -0.6242 -0.3974  0.2587
   37DOPE   C12 4649   0.402   2.996   2.493 -0.2071  0.0886 -0.3996
   37DOPE  H12A 4650   0.342   2.927   2.429  0.8689 -2.0372  0.8003
   37DOPE  H12B 4651   0.343   3.086   2.520  1.9436  1.9599 -1.5413
   37DOPE   C11 4652   0.463   2.935   2.621  0.5915  0.0502  0.2299
   37DOPE  H11A 4653   0.381   2.893   2.683  0.2918 -1.1942 -0.9622
   37DOPE  H11B 4654   0.511   3.013   2.685  0.1946  0.9131 -0.4935
   37DOPE     P 4655   0.532   2.680   2.629  0.2058  0.2122  0.1927
   37DOPE   O13 4656   0.655   2.599   2.592  0.1241 -0.3119  0.1817
   37DOPE   O14 4657   0.400   2.653   2.564  0.4492 -0.1358 -0.1257
   37DOPE   O11 4658   0.528   2.674   2.785 -0.3347  0.1890  0.1502
   37DOPE   O12 4659   0.556   2.832   2.594 -0.7883 -0.2712 -0.3159
   37DOPE    C1 4660   0.647   2.720   2.847  0.1799 -0.1236 -0.1849
   37DOPE    HA 4661   0.710   2.793   2.792  2.1329  0.4992  2.6510
   37DOPE    HB 4662   0.699   2.630   2.888 -0.5013  0.9588  3.3427
   37DOPE    C2 4663   0.612   2.805   2.977  0.1457  0.0351  0.2914
   37DOPE    HS 4664   0.564   2.896   2.936 -0.1106 -0.9821 -1.8298
   37DOPE   O21 4665   0.729   2.820   3.065  0.2495 -0.8998  0.4730
   37DOPE   C21 4666   0.815   2.918   3.023  0.3378 -0.0061 -1.2080
   37DOPE   O22 4667   0.796   2.995   2.934  0.3662  0.0782 -0.6969
   37DOPE   C22 4668   0.943   2.912   3.112 -0.1735 -0.2831  0.4187
   37DOPE   H2R 4669   0.987   2.814   3.083  0.5928 -0.0367  0.7468
   37DOPE   H2S 4670   0.920   2.907   3.221  1.1906 -2.2614  0.6676
   37DOPE    C3 4671   0.505   2.745   3.069  0.3520 -0.1163 -0.2999
   37DOPE    HX 4672   0.550   2.653   3.113 -0.2321  0.0137  0.5962
   37DOPE    HY 4673   0.420   2.705   3.010 -0.4068 -0.6172  1.0895
   37DOPE   O31 4674   0.473   2.831   3.177 -0.0268 -0.5345  0.6340
   37DOPE   C31 4675   0.392   2.933   3.142 -0.0414  0.4292 -0.3321
   37DOPE   O32 4676   0.348   2.955   3.033 -0.0242 -0.1742  0.1287
   37DOPE   C32 4677   0.362   3.028   3.267 -0.7886  0.2477  0.3629
   37DOPE   H2X 4678   0.280   3.098   3.238 -0.9620 -0.3022 -0.5256
   37DOPE   H2Y 4679   0.323   2.962   3.348  0.0178  2.3273  2.5359
   37DOPE   C23 4680   1.041   3.026   3.089 -0.7771 -0.1552  0.9547
   37DOPE   H3R 4681   0.981   3.119   3.102 -2.8168 -1.5150  1.7375
   37DOPE   H3S 4682   1.084   3.025   2.986 -1.6769  1.7669  0.5050
   37DOPE   C24 4683   1.149   3.013   3.205  0.1664  0.3319 -0.1468
   37DOPE   H4R 4684   1.210   2.920   3.196  2.6620  2.0238 -2.6451
   37DOPE   H4S 4685   1.094   3.004   3.301 -1.9913 -1.6392 -1.4695
   37DOPE   C25 4686   1.255   3.119   3.207  0.0772  0.3451 -0.0818
   37DOPE   H5R 4687   1.311   3.109   3.302 -1.6849 -2.1633  0.7995
   37DOPE   H5S 4688   1.204   3.217   3.207 -0.8870 -0.1314 -0.8274
   37DOPE   C26 4689   1.362   3.114   3.086  0.3308 -1.1252  0.5581
   37DOPE   H6R 4690   1.430   3.196   3.115  0.1859 -0.9980  0.5382
   37DOPE   H6S 4691   1.334   3.141   2.982  1.1592 -3.4892 -0.3468
   37DOPE   C27 4692   1.463   2.994   3.088 -0.2821 -0.0591 -0.3055
   37DOPE   H7R 4693   1.507   2.970   2.989 -1.5020 -0.2459 -0.8251
   37DOPE   H7S 4694   1.404   2.902   3.107 -1.3146  0.3355 -1.4715
   37DOPE   C28 4695   1.570   3.017   3.191  0.2306 -0.2520 -0.3028
   37DOPE   H8R 4696   1.530   3.070   3.280  0.7656 -0.9041  0.3419
   37DOPE   H8S 4697   1.646   3.090   3.156  0.6238 -1.3950 -1.9456
   37DOPE   C29 4698   1.642   2.892   3.239  0.1959 -0.0359  0.7069
   37DOPE   H9R 4699   1.697   2.840   3.159  0.8985  1.2628  0.3178
   37DOPE  C210 4700   1.637   2.843   3.365  0.3000  0.7298 -0.2551
   37DOPE  H10R 4701   1.690   2.748   3.383  0.4987  1.1634  1.5920
   37DOPE  C211 4702   1.572   2.910   3.483 -0.4358 -0.6158  0.6562
   37DOPE  H11R 4703   1.567   3.020   3.469  1.5186 -0.5540  0.1841
   37DOPE  H11S 4704   1.629   2.894   3.577 -1.9641  1.0476  1.9397
   37DOPE  C212 4705   1.425   2.857   3.517  0.3005 -0.3916  0.2646
   37DOPE  H12R 4706   1.425   2.749   3.542  0.7797 -0.1255  1.4916
   37DOPE  H12S 4707   1.371   2.862   3.420  3.0620 -1.2768 -1.4433
   37DOPE  C213 4708   1.349   2.934   3.627 -0.3627  0.2125 -0.0579
   37DOPE  H13R 4709   1.243   2.908   3.645 -0.3126  0.5531  0.7964
   37DOPE  H13S 4710   1.339   3.041   3.601  0.6242  0.8416  1.9136
   37DOPE  C214 4711   1.423   2.926   3.759  0.3112  0.2664 -0.3104
   37DOPE  H14R 4712   1.499   3.003   3.784 -1.0773  1.4439  0.4308
   37DOPE  H14S 4713   1.487   2.835   3.756  2.2254  1.5306  0.1122
   37DOPE  C215 4714   1.328   2.909   3.870  0.8105  0.2053 -0.6383
   37DOPE  H15R 4715   1.247   2.836   3.846  1.1819  0.0369 -1.4196
   37DOPE  H15S 4716   1.280   3.010   3.877  0.1811  0.0114 -1.8010
   37DOPE  C216 4717   1.390   2.862   4.008  0.2003 -0.0316  1.4946
   37DOPE  H16R 4718   1.486   2.918   4.008 -0.2956  0.8573  0.3705
   37DOPE  H16S 4719   1.396   2.751   4.004 -2.8982 -0.3792  3.2934
   37DOPE  C217 4720   1.299   2.906   4.117 -0.6408  0.8597 -0.2836
   37DOPE  H17R 4721   1.195   2.869   4.099 -1.2857  0.9677  2.7407
   37DOPE  H17S 4722   1.292   3.017   4.117  0.6507  0.9528 -0.2403
   37DOPE  C218 4723   1.336   2.848   4.255 -0.2445 -0.4569  0.1897
   37DOPE  H18R 4724   1.299   2.744   4.266  0.8060 -0.8287  0.2478
   37DOPE  H18S 4725   1.279   2.896   4.338 -3.4197 -3.0020 -0.3387
   37DOPE  H18T 4726   1.443   2.843   4.282 -0.4461 -2.1482  0.7596
   37DOPE   C33 4727   0.498   3.081   3.321 -0.3208 -0.1996 -0.5619
   37DOPE   H3X 4728   0.569   2.996   3.333  0.7864  0.8932  1.1200
   37DOPE   H3Y 4729   0.481   3.126   3.421 -0.0519  1.3137 -1.1747
   37DOPE   C34 4730   0.567   3.188   3.235  0.4467  0.1492 -0.3851
   37DOPE   H4X 4731   0.576   3.163   3.128  0.0139  1.7784 -0.8382
   37DOPE   H4Y 4732   0.519   3.288   3.248  1.1722  0.3518  0.9690
   37DOPE   C35 4733   0.715   3.200   3.276 -0.0621  0.0061  0.0332
   37DOPE   H5X 4734   0.771   3.114   3.233  2.8534  1.4458  0.7097
   37DOPE   H5Y 4735   0.736   3.203   3.385  3.0104  0.0215 -0.4662
   37DOPE   C36 4736   0.789   3.317   3.207  0.1132 -0.9079  0.1371
   37DOPE   H6X 4737   0.891   3.314   3.251 -0.1143 -0.6946  0.6935
   37DOPE   H6Y 4738   0.737   3.408   3.245 -0.1473 -1.3506  0.8666
   37DOPE   C37 4739   0.792   3.331   3.056 -0.2763  0.0822 -0.8609
   37DOPE   H7X 4740   0.849   3.245   3.016  0.7410  0.0392  0.6042
   37DOPE   H7Y 4741   0.691   3.325   3.010  0.3744 -0.8001 -2.2704
   37DOPE   C38 4742   0.861   3.459   3.015 -0.1496 -0.3682 -0.5813
   37DOPE   H8X 4743   0.804   3.535   3.074  0.2400 -1.0535  0.7167
   37DOPE   H8Y 4744   0.846   3.482   2.908 -1.3605 -2.4146 -0.9130
   37DOPE   C39 4745   1.010   3.460   3.043 -0.6727 -0.8251 -0.0171
   37DOPE   H9X 4746   1.077   3.397   2.983 -0.5538 -1.7372  1.0386
   37DOPE  C310 4747   1.072   3.550   3.125  0.2180 -0.6786 -0.0637
   37DOPE  H10X 4748   1.181   3.533   3.137  0.4168  1.7170  2.5704
   37DOPE  C311 4749   1.008   3.668   3.197 -0.1505 -0.2681  0.4343
   37DOPE  H11X 4750   1.080   3.751   3.187 -0.0871 -0.5430 -1.8316
   37DOPE  H11Y 4751   0.925   3.709   3.137  1.5274  0.0682 -1.8118
   37DOPE  C312 4752   0.971   3.648   3.343  0.4016 -0.7938 -0.1727
   37DOPE  H12X 4753   0.907   3.558   3.350  0.4136 -0.7560  0.4757
   37DOPE  H12Y 4754   0.908   3.736   3.368  0.3349 -0.7836 -0.3697
   37DOPE  C313 4755   1.092   3.642   3.443  0.3571 -0.0161  0.8623
   37DOPE  H13X 4756   1.161   3.565   3.402 -0.3125 -0.8397  1.2501
   37DOPE  H13Y 4757   1.135   3.742   3.419 -2.4423  0.9696 -0.6163
   37DOPE  C314 4758   1.048   3.629   3.591  0.8476 -0.2083  0.9678
   37DOPE  H14X 4759   0.971   3.709   3.600 -0.2484 -0.5050 -3.3985
   37DOPE  H14Y 4760   1.138   3.648   3.653  0.7300  0.1811  1.0222
   37DOPE  C315 4761   0.997   3.486   3.617 -0.1766  0.4143  0.2637
   37DOPE  H15X 4762   0.899   3.465   3.569 -1.2899  1.0983  2.0986
   37DOPE  H15Y 4763   0.965   3.484   3.724 -0.4314 -1.3174  0.1778
   37DOPE  C316 4764   1.102   3.377   3.592  0.1754  0.1015  0.2663
   37DOPE  H16X 4765   1.192   3.395   3.656  0.2996  1.0583 -0.1624
   37DOPE  H16Y 4766   1.133   3.369   3.486  0.4011  1.5773  0.2051
   37DOPE  C317 4767   1.057   3.232   3.619  0.4678  0.3276 -0.1048
   37DOPE  H17X 4768   0.966   3.239   3.557  0.0344  1.2525  0.6115
   37DOPE  H17Y 4769   1.132   3.157   3.585  0.7793  0.4279  0.3437
   37DOPE  C318 4770   1.030   3.208   3.763 -0.4004 -0.3560 -0.1102
   37DOPE  H18X 4771   1.120   3.222   3.828 -0.0606 -0.5525 -0.5335
   37DOPE  H18Y 4772   0.948   3.258   3.818  1.3640 -1.2633  3.7212
   37DOPE  H18Z 4773   1.007   3.101   3.785 -0.7443  0.3445  3.5783
   38DOPE     N 4774   5.261   4.996   1.675  0.7055 -0.0087  0.7872
   38DOPE   HN1 4775   5.207   5.054   1.742  0.0255 -0.3259  0.5222
   38DOPE   HN2 4776   5.295   5.054   1.596  2.6938 -2.7793 -0.5581
   38DOPE   HN3 4777   5.196   4.927   1.632 -0.3848  0.9720  0.8250
   38DOPE   C12 4778   5.384   4.943   1.733  0.1202 -0.0914  0.1171
   38DOPE  H12A 4779   5.448   5.029   1.762 -1.9072  0.7565  2.3582
   38DOPE  H12B 4780   5.438   4.875   1.664  2.6111 -0.5470  2.3866
   38DOPE   C11 4781   5.347   4.853   1.860 -0.0836  0.2539 -0.7966
   38DOPE  H11A 4782   5.439   4.825   1.916 -0.2125  0.7074 -0.3582
   38DOPE  H11B 4783   5.307   4.760   1.813  1.4518  0.0964 -1.8914
   38DOPE     P 4784   5.270   5.003   2.061 -0.0411 -0.0886 -0.1984
   38DOPE   O13 4785   5.143   5.021   2.132  0.2101 -0.2985  0.4742
   38DOPE   O14 4786   5.342   5.123   2.024  0.2318  0.2446 -0.1596
   38DOPE   O11 4787   5.359   4.911   2.150  0.5123 -0.1903  0.0991
   38DOPE   O12 4788   5.239   4.909   1.941 -0.1632  0.5135 -0.4305
   38DOPE    C1 4789   5.351   4.902   2.292 -0.1513  0.7827 -0.5662
   38DOPE    HA 4790   5.294   4.812   2.325 -0.9267  1.6494  0.5337
   38DOPE    HB 4791   5.297   4.985   2.342 -0.3226  0.5400 -0.3421
   38DOPE    C2 4792   5.498   4.895   2.357 -0.3555 -0.6284  0.3054
   38DOPE    HS 4793   5.535   4.792   2.340  0.2171 -0.3678 -0.0742
   38DOPE   O21 4794   5.482   4.932   2.496  0.3003  0.2901  0.4850
   38DOPE   C21 4795   5.421   4.845   2.568 -0.7023  0.0201 -0.0179
   38DOPE   O22 4796   5.390   4.730   2.535 -0.5166 -0.1007  0.2323
   38DOPE   C22 4797   5.384   4.902   2.700  0.7785  0.4272 -0.4479
   38DOPE   H2R 4798   5.289   4.953   2.674  0.4115 -1.5139 -3.3301
   38DOPE   H2S 4799   5.458   4.968   2.750  0.3369  0.0793  0.6975
   38DOPE    C3 4800   5.606   4.995   2.296 -0.2799  0.4871  0.1668
   38DOPE    HX 4801   5.570   5.099   2.312 -0.7402  0.6915 -1.9009
   38DOPE    HY 4802   5.624   4.972   2.189  0.0249  3.1309 -0.4167
   38DOPE   O31 4803   5.734   4.977   2.373  0.4125 -0.0212  0.7898
   38DOPE   C31 4804   5.846   4.983   2.301  0.3307  0.2799 -0.5939
   38DOPE   O32 4805   5.854   5.010   2.184  0.4597 -0.2266 -0.1069
   38DOPE   C32 4806   5.973   4.945   2.383  0.4783  0.2871  0.3160
   38DOPE   H2X 4807   5.976   4.835   2.395  0.0983  0.0141 -1.7537
   38DOPE   H2Y 4808   6.063   4.957   2.318  0.0606 -2.9988 -1.0795
   38DOPE   C23 4809   5.336   4.792   2.793  0.0460  0.2486  0.5307
   38DOPE   H3R 4810   5.418   4.729   2.835  1.2577 -1.0998 -3.3952
   38DOPE   H3S 4811   5.260   4.721   2.753  1.3193 -0.7082 -0.2682
   38DOPE   C24 4812   5.258   4.865   2.904  0.8288  0.1414 -0.2256
   38DOPE   H4R 4813   5.174   4.913   2.850 -0.2576 -0.6126  0.7374
   38DOPE   H4S 4814   5.320   4.940   2.957 -2.3980  1.7622  1.5358
   38DOPE   C25 4815   5.183   4.772   3.001  0.0050 -0.1583 -0.3296
   38DOPE   H5R 4816   5.248   4.690   3.036 -0.4944 -0.1502  0.6592
   38DOPE   H5S 4817   5.099   4.719   2.952 -0.7774  0.3473  0.4276
   38DOPE   C26 4818   5.116   4.865   3.111 -0.3659  0.5599 -0.7165
   38DOPE   H6R 4819   5.175   4.956   3.133  0.5644 -0.1277 -0.2744
   38DOPE   H6S 4820   5.116   4.809   3.207  1.0586 -1.8640 -2.0169
   38DOPE   C27 4821   4.976   4.902   3.070 -0.5349 -0.4926  0.0187
   38DOPE   H7R 4822   4.922   4.806   3.053  2.9422 -2.2010 -2.7619
   38DOPE   H7S 4823   4.964   4.954   2.972 -1.6344 -0.2391  0.2778
   38DOPE   C28 4824   4.913   5.006   3.165 -1.2958 -0.1297 -0.0803
   38DOPE   H8R 4825   4.921   4.965   3.268  0.1552 -0.1619 -0.1759
   38DOPE   H8S 4826   4.807   5.001   3.133 -1.3278  1.5317 -0.3417
   38DOPE   C29 4827   4.981   5.138   3.161  0.3822 -0.1301  0.5173
   38DOPE   H9R 4828   4.998   5.175   3.058 -2.5908  0.6841  0.2395
   38DOPE  C210 4829   4.988   5.231   3.255 -0.3842 -0.0427  0.0510
   38DOPE  H10R 4830   5.029   5.330   3.232 -2.2521  0.9096  0.5816
   38DOPE  C211 4831   4.940   5.225   3.396  0.5759 -0.7038 -0.0133
   38DOPE  H11R 4832   4.878   5.316   3.413  1.3972  0.4654 -2.7326
   38DOPE  H11S 4833   5.026   5.247   3.463  0.7916  1.8204 -0.9918
   38DOPE  C212 4834   4.856   5.115   3.464  0.8615  0.1030  0.1118
   38DOPE  H12R 4835   4.916   5.024   3.483 -1.8856 -1.3414  2.6869
   38DOPE  H12S 4836   4.759   5.078   3.424  0.4869 -2.1409  2.7982
   38DOPE  C213 4837   4.821   5.159   3.605  0.3345 -0.2254 -0.2565
   38DOPE  H13R 4838   4.774   5.260   3.603  1.0614  0.1196 -1.5795
   38DOPE  H13S 4839   4.919   5.159   3.658 -0.7007 -4.3380  2.0517
   38DOPE  C214 4840   4.719   5.065   3.666  0.0103 -0.1591  0.1717
   38DOPE  H14R 4841   4.759   4.962   3.655  0.5675  0.1076 -0.3631
   38DOPE  H14S 4842   4.627   5.057   3.604 -0.3688  4.4976 -0.2461
   38DOPE  C215 4843   4.676   5.091   3.812  0.1418 -0.5259  0.1292
   38DOPE  H15R 4844   4.585   5.034   3.840  0.4984 -1.3779 -0.3740
   38DOPE  H15S 4845   4.649   5.198   3.816 -4.4374 -1.5216  3.2584
   38DOPE  C216 4846   4.797   5.084   3.913 -0.6259  0.0518  0.5028
   38DOPE  H16R 4847   4.877   5.139   3.859 -1.1466  0.9745  0.6464
   38DOPE  H16S 4848   4.833   4.981   3.932 -2.3645 -0.6611  0.1402
   38DOPE  C217 4849   4.760   5.146   4.052  0.1204  0.3477 -0.1470
   38DOPE  H17R 4850   4.682   5.076   4.089 -1.0884  1.9213  0.4416
   38DOPE  H17S 4851   4.706   5.241   4.029 -1.0978 -0.7469 -2.0067
   38DOPE  C218 4852   4.872   5.158   4.154 -0.2853 -0.9516 -1.1088
   38DOPE  H18R 4853   4.839   5.180   4.258  2.4125 -1.2586 -0.1056
   38DOPE  H18S 4854   4.936   5.245   4.127 -1.3900  0.3400  0.2436
   38DOPE  H18T 4855   4.935   5.067   4.154 -0.6798 -1.2282 -0.5243
   38DOPE   C33 4856   6.010   5.020   2.521  0.4369 -0.2926  0.4409
   38DOPE   H3X 4857   5.942   4.994   2.605 -0.3193 -0.5210 -0.2299
   38DOPE   H3Y 4858   5.994   5.129   2.507  0.4799 -0.4724 -1.1854
   38DOPE   C34 4859   6.152   4.994   2.563  0.3528 -0.1850 -0.0334
   38DOPE   H4X 4860   6.161   4.884   2.567 -0.5476 -0.2353  0.9279
   38DOPE   H4Y 4861   6.209   5.035   2.477 -0.1949  1.4145  0.3293
   38DOPE   C35 4862   6.190   5.052   2.696 -0.3120 -0.3583 -0.2440
   38DOPE   H5X 4863   6.273   4.991   2.738  0.5358  2.0640  1.9291
   38DOPE   H5Y 4864   6.102   5.032   2.762  1.1574 -0.9247  1.6261
   38DOPE   C36 4865   6.244   5.193   2.683 -0.0303 -0.2581  0.4486
   38DOPE   H6X 4866   6.181   5.248   2.610  0.2716 -0.1489  0.2693
   38DOPE   H6Y 4867   6.341   5.190   2.629 -0.8998  0.6045 -1.2281
   38DOPE   C37 4868   6.271   5.274   2.811 -0.8148  0.0427 -0.7102
   38DOPE   H7X 4869   6.171   5.291   2.856 -0.3617  0.5338  0.1322
   38DOPE   H7Y 4870   6.319   5.206   2.884 -2.0917  1.3665  1.4728
   38DOPE   C38 4871   6.370   5.390   2.802 -0.4500  0.5094 -0.2352
   38DOPE   H8X 4872   6.464   5.366   2.748 -0.9024 -0.2881 -0.6943
   38DOPE   H8Y 4873   6.403   5.403   2.908 -0.9201  1.5450 -0.2051
   38DOPE   C39 4874   6.310   5.526   2.761 -0.8709  0.6579 -0.5203
   38DOPE   H9X 4875   6.216   5.530   2.704 -0.9883 -2.0563 -0.6473
   38DOPE  C310 4876   6.361   5.650   2.781 -0.6239  0.4518  0.4233
   38DOPE  H10X 4877   6.310   5.737   2.739 -1.2985 -0.4045 -0.5886
   38DOPE  C311 4878   6.486   5.685   2.862 -0.6624 -0.4166  0.3895
   38DOPE  H11X 4879   6.504   5.603   2.934  0.1753  0.1250  0.8189
   38DOPE  H11Y 4880   6.572   5.709   2.795  0.1944  1.1162  1.9329
   38DOPE  C312 4881   6.458   5.827   2.928  0.2436  0.1358 -0.0576
   38DOPE  H12X 4882   6.370   5.821   2.995 -0.2698  1.5166 -0.5633
   38DOPE  H12Y 4883   6.443   5.905   2.850  0.6918  0.0335 -0.2487
   38DOPE  C313 4884   6.580   5.868   3.016 -0.5935 -0.5931  0.5716
   38DOPE  H13X 4885   6.587   5.783   3.088 -1.1290 -0.9945  0.1625
   38DOPE  H13Y 4886   6.661   5.864   2.940 -1.7580 -1.5526 -0.6589
   38DOPE  C314 4887   6.566   6.005   3.083  0.1174  0.0372  0.7620
   38DOPE  H14X 4888   6.552   6.085   3.008  0.4017  0.5148  1.2087
   38DOPE  H14Y 4889   6.658   6.034   3.139  0.0862  0.3545  0.6535
   38DOPE  C315 4890   6.453   5.993   3.184  0.5262 -0.0585  0.3163
   38DOPE  H15X 4891   6.476   5.897   3.235  0.1756 -0.7364 -0.7752
   38DOPE  H15Y 4892   6.359   5.991   3.124  1.1979  3.5568 -1.1885
   38DOPE  C316 4893   6.445   6.118   3.271 -0.3221  0.2175  0.2827
   38DOPE  H16X 4894   6.435   6.206   3.203  0.4037 -0.0407 -0.1635
   38DOPE  H16Y 4895   6.537   6.125   3.333  1.5975  0.5413 -2.4259
   38DOPE  C317 4896   6.326   6.118   3.370 -0.0057  0.0026  0.5479
   38DOPE  H17X 4897   6.309   6.025   3.428 -0.5207  1.2088  2.4344
   38DOPE  H17Y 4898   6.348   6.189   3.452  0.6691 -1.4025  1.6116
   38DOPE  C318 4899   6.200   6.158   3.295  0.3222 -0.2494 -0.2476
   38DOPE  H18X 4900   6.206   6.259   3.249  0.2845  0.9046  2.1213
   38DOPE  H18Y 4901   6.165   6.079   3.226  0.7583  2.3096 -3.6500
   38DOPE  H18Z 4902   6.120   6.158   3.372  0.2845  0.2616 -0.2819
   39DOPE     N 4903   7.488   1.816   2.466  0.5485 -0.6758  0.3438
   39DOPE   HN1 4904   7.559   1.835   2.393  1.4024 -1.3101  0.9962
   39DOPE   HN2 4905   7.527   1.797   2.560 -1.2704 -2.0899  0.8922
   39DOPE   HN3 4906   7.435   1.730   2.439  1.6397 -1.2147 -0.1648
   39DOPE   C12 4907   7.396   1.936   2.453 -0.0244  0.1140  0.0414
   39DOPE  H12A 4908   7.322   1.906   2.529  2.2234 -0.2494  2.2320
   39DOPE  H12B 4909   7.342   1.940   2.356 -0.4307  0.6641  0.2857
   39DOPE   C11 4910   7.460   2.073   2.480  0.0814  0.0820 -0.3265
   39DOPE  H11A 4911   7.515   2.081   2.577  2.5479 -1.2295 -1.5310
   39DOPE  H11B 4912   7.372   2.140   2.476 -1.0871 -1.2933  1.1971
   39DOPE     P 4913   7.593   2.258   2.361 -0.4547  0.0166  0.3087
   39DOPE   O13 4914   7.476   2.345   2.333 -0.1494  0.1521 -0.6689
   39DOPE   O14 4915   7.708   2.266   2.267  0.6891 -0.5357 -0.1676
   39DOPE   O11 4916   7.639   2.286   2.507 -0.0407 -0.0970  0.3402
   39DOPE   O12 4917   7.551   2.107   2.369 -0.4013 -0.1278 -0.2131
   39DOPE    C1 4918   7.563   2.369   2.595 -0.0576  0.2046 -0.9227
   39DOPE    HA 4919   7.456   2.340   2.605 -0.7845  0.8712 -4.9525
   39DOPE    HB 4920   7.565   2.471   2.552 -0.7584  0.2990 -0.7409
   39DOPE    C2 4921   7.639   2.378   2.736 -0.1230  0.1421  0.1116
   39DOPE    HS 4922   7.743   2.409   2.712  0.4015  0.0514  2.1037
   39DOPE   O21 4923   7.620   2.254   2.802  0.1305 -0.7025 -0.6706
   39DOPE   C21 4924   7.705   2.235   2.906  0.4523  0.6228 -0.1788
   39DOPE   O22 4925   7.797   2.299   2.930 -0.3128  0.1712  0.1985
   39DOPE   C22 4926   7.660   2.112   2.991  0.0151  0.8044 -0.3550
   39DOPE   H2R 4927   7.663   2.022   2.927  1.4051  1.1750 -0.8413
   39DOPE   H2S 4928   7.553   2.131   3.016  0.2644 -1.0374  2.6717
   39DOPE    C3 4929   7.587   2.501   2.815 -0.0765 -0.8395 -0.0627
   39DOPE    HX 4930   7.606   2.601   2.770  0.6032 -0.4978  0.9499
   39DOPE    HY 4931   7.642   2.503   2.911 -3.2846  0.0397  1.9309
   39DOPE   O31 4932   7.448   2.481   2.847 -0.4043  0.2109 -0.2443
   39DOPE   C31 4933   7.402   2.568   2.940 -0.2921  0.7650 -0.0722
   39DOPE   O32 4934   7.451   2.672   2.966 -0.5623 -0.4662  0.3814
   39DOPE   C32 4935   7.269   2.528   3.007 -0.3196 -0.1618  0.1665
   39DOPE   H2X 4936   7.250   2.610   3.080  3.2464  1.1298 -0.1567
   39DOPE   H2Y 4937   7.196   2.523   2.923  0.5380 -0.5513 -0.5639
   39DOPE   C23 4938   7.741   2.077   3.118  0.3314  1.0508  0.1426
   39DOPE   H3R 4939   7.676   2.003   3.169  1.0906  1.5673  1.9210
   39DOPE   H3S 4940   7.753   2.169   3.179 -0.1228  1.0719  0.2050
   39DOPE   C24 4941   7.886   2.027   3.093 -0.4337 -0.2875  0.0632
   39DOPE   H4R 4942   7.943   2.115   3.057 -0.2687 -0.6179 -0.4954
   39DOPE   H4S 4943   7.889   1.958   3.006  1.1293  2.6354 -2.3744
   39DOPE   C25 4944   7.963   1.958   3.209 -0.4445  0.1609  0.0324
   39DOPE   H5R 4945   8.056   1.903   3.180 -0.1442 -1.0592  2.9922
   39DOPE   H5S 4946   7.897   1.878   3.247  1.0919 -0.6527  1.1144
   39DOPE   C26 4947   7.994   2.048   3.329  0.5586 -0.7679  0.4068
   39DOPE   H6R 4948   8.029   1.990   3.418 -1.0172 -1.9192  0.3273
   39DOPE   H6S 4949   7.891   2.083   3.350  0.4074 -0.5381 -0.6890
   39DOPE   C27 4950   8.083   2.166   3.308 -0.2157 -0.2440 -0.2459
   39DOPE   H7R 4951   8.039   2.230   3.229 -1.1893  0.9098  1.1716
   39DOPE   H7S 4952   8.179   2.124   3.272 -0.3402  0.0971 -1.0041
   39DOPE   C28 4953   8.122   2.247   3.443  0.0459 -0.6496  0.2287
   39DOPE   H8R 4954   8.195   2.324   3.410 -3.7740  3.0797 -0.4976
   39DOPE   H8S 4955   8.174   2.171   3.505 -1.1097 -0.0359  2.0252
   39DOPE   C29 4956   8.020   2.312   3.530  0.1268 -0.3858  0.0122
   39DOPE   H9R 4957   7.943   2.247   3.573  0.8615 -2.0463 -1.0785
   39DOPE  C210 4958   8.024   2.446   3.571 -0.3678 -0.1634 -0.2978
   39DOPE  H10R 4959   7.942   2.490   3.630  1.0779  1.0007  0.9203
   39DOPE  C211 4960   8.113   2.554   3.514  0.7675 -0.2016 -0.0568
   39DOPE  H11R 4961   8.126   2.534   3.406 -0.5066 -2.5317  0.1617
   39DOPE  H11S 4962   8.210   2.562   3.567  0.6375 -1.7200  0.4584
   39DOPE  C212 4963   8.039   2.692   3.515  0.5135  0.4882  0.8738
   39DOPE  H12R 4964   7.941   2.686   3.465  1.2490 -2.4660 -0.4073
   39DOPE  H12S 4965   8.099   2.759   3.450  1.5769 -0.4668  0.8367
   39DOPE  C213 4966   8.028   2.748   3.655 -0.0727 -0.6940 -0.1128
   39DOPE  H13R 4967   8.129   2.763   3.699 -0.5031 -0.7542  0.9288
   39DOPE  H13S 4968   7.966   2.690   3.727 -0.7759 -0.7986 -0.7845
   39DOPE  C214 4969   7.944   2.882   3.654  0.4480  0.0712 -0.3249
   39DOPE  H14R 4970   7.855   2.851   3.595  1.1635  0.2859 -1.5534
   39DOPE  H14S 4971   7.993   2.957   3.588  0.3347 -1.0748 -1.7559
   39DOPE  C215 4972   7.915   2.936   3.798  0.0313  0.1862  0.1101
   39DOPE  H15R 4973   8.008   2.982   3.836  0.5566  0.0340 -0.9419
   39DOPE  H15S 4974   7.889   2.849   3.863 -2.1226  0.4506 -0.3157
   39DOPE  C216 4975   7.799   3.032   3.798 -0.0240  0.3924 -0.1323
   39DOPE  H16R 4976   7.713   2.979   3.752  0.9562 -2.8850  1.5115
   39DOPE  H16S 4977   7.824   3.110   3.723  1.3779 -0.4520 -0.5827
   39DOPE  C217 4978   7.750   3.069   3.932 -0.1625  0.2788 -0.5983
   39DOPE  H17R 4979   7.696   2.981   3.974  0.1360 -0.5969 -1.9762
   39DOPE  H17S 4980   7.680   3.155   3.919 -0.3981  0.1778 -0.0461
   39DOPE  C218 4981   7.855   3.125   4.032 -0.5522 -0.3575  0.3361
   39DOPE  H18R 4982   7.814   3.165   4.127  0.7051  1.8164  0.0130
   39DOPE  H18S 4983   7.919   3.198   3.977 -2.3466  0.7331 -0.3941
   39DOPE  H18T 4984   7.924   3.043   4.063 -0.7817 -0.7925 -0.2789
   39DOPE   C33 4985   7.277   2.389   3.084  0.0082 -0.3860  0.1232
   39DOPE   H3X 4986   7.312   2.309   3.014 -1.7971 -0.5141 -0.6856
   39DOPE   H3Y 4987   7.178   2.358   3.123  0.3633 -1.2236  0.3896
   39DOPE   C34 4988   7.360   2.393   3.218 -1.3123 -0.3199 -0.4667
   39DOPE   H4X 4989   7.321   2.300   3.266  0.7823  0.3348  2.8131
   39DOPE   H4Y 4990   7.470   2.391   3.205 -1.3178  1.0905 -0.8653
   39DOPE   C35 4991   7.322   2.509   3.313 -0.2578 -0.4186  0.1869
   39DOPE   H5X 4992   7.215   2.508   3.345 -1.2031  0.9794 -2.5573
   39DOPE   H5Y 4993   7.339   2.604   3.258  0.5500 -0.5828  0.1421
   39DOPE   C36 4994   7.416   2.518   3.437  0.2639 -0.3278  0.5683
   39DOPE   H6X 4995   7.457   2.419   3.466  0.4615 -0.2169  0.6744
   39DOPE   H6Y 4996   7.358   2.560   3.521 -0.9354  0.4715 -0.6282
   39DOPE   C37 4997   7.544   2.598   3.399  0.1240 -0.4155  0.1755
   39DOPE   H7X 4998   7.596   2.538   3.322  0.1661 -2.2567  1.5765
   39DOPE   H7Y 4999   7.512   2.695   3.354 -2.5927 -2.1126 -1.7962
   39DOPE   C38 5000   7.646   2.616   3.512 -0.3288 -0.0026 -0.4007
   39DOPE   H8X 5001   7.734   2.670   3.471 -1.1281  1.5341 -0.1772
   39DOPE   H8Y 5002   7.693   2.522   3.547 -0.1551  1.0391  2.4477
   39DOPE   C39 5003   7.599   2.696   3.623  0.7083  0.4294 -0.5836
   39DOPE   H9X 5004   7.570   2.802   3.609 -0.9053  0.0667 -0.2766
   39DOPE  C310 5005   7.570   2.653   3.754  0.1921  0.6128 -0.2836
   39DOPE  H10X 5006   7.535   2.725   3.828 -1.2009 -0.5802  0.2578
   39DOPE  C311 5007   7.590   2.511   3.804 -0.0954  0.0453 -0.7775
   39DOPE  H11X 5008   7.519   2.477   3.882  2.0989 -2.3597  0.3145
   39DOPE  H11Y 5009   7.599   2.426   3.733 -0.3376 -2.4540  1.9916
   39DOPE  C312 5010   7.724   2.508   3.883 -0.2246  0.1314  0.2427
   39DOPE  H12X 5011   7.811   2.529   3.817 -0.7667 -3.2745 -1.8020
   39DOPE  H12Y 5012   7.736   2.398   3.899 -0.2786  0.1041  0.0905
   39DOPE  C313 5013   7.730   2.581   4.019 -0.3918  0.5501  0.8136
   39DOPE  H13X 5014   7.759   2.686   3.996  1.5204 -0.0659  0.1824
   39DOPE  H13Y 5015   7.633   2.570   4.070 -0.3174  1.3412  1.1293
   39DOPE  C314 5016   7.841   2.520   4.112  0.3206 -0.7915 -0.0375
   39DOPE  H14X 5017   7.940   2.530   4.063 -0.3251  0.9051 -1.0965
   39DOPE  H14Y 5018   7.823   2.410   4.122 -0.6666 -0.5188  1.6492
   39DOPE  C315 5019   7.848   2.564   4.257 -0.0167  0.1205  0.5727
   39DOPE  H15X 5020   7.750   2.541   4.305 -0.3101 -1.3861 -0.6721
   39DOPE  H15Y 5021   7.850   2.674   4.246  0.6975 -0.1598 -4.0093
   39DOPE  C316 5022   7.966   2.503   4.325  0.5297 -0.3067  0.1218
   39DOPE  H16X 5023   8.059   2.544   4.279 -0.2181  2.4180  0.8333
   39DOPE  H16Y 5024   7.967   2.392   4.326 -1.0098 -0.3814 -1.4160
   39DOPE  C317 5025   7.970   2.546   4.477 -0.1951  0.6818  0.3652
   39DOPE  H17X 5026   8.080   2.547   4.495  0.0370  3.2337 -0.7920
   39DOPE  H17Y 5027   7.945   2.653   4.490 -2.1561  0.3848 -0.6512
   39DOPE  C318 5028   7.889   2.458   4.574 -0.1331  0.5199  0.1215
   39DOPE  H18X 5029   7.781   2.479   4.559  0.0549  1.1747 -0.3415
   39DOPE  H18Y 5030   7.907   2.348   4.565  0.6755  0.6884 -0.3960
   39DOPE  H18Z 5031   7.916   2.477   4.680 -0.2632 -0.4525  0.3436
   40DOPE     N 5032   6.068   6.003   2.130 -0.2375 -0.1232 -0.1322
   40DOPE   HN1 5033   6.153   5.996   2.070 -0.6237 -0.0520 -0.6870
   40DOPE   HN2 5034   6.101   6.055   2.214  2.0028  1.9022 -2.1109
   40DOPE   HN3 5035   6.052   5.901   2.148  3.9801 -0.6549  2.0854
   40DOPE   C12 5036   5.939   6.070   2.081 -0.2672  0.3371  0.0273
   40DOPE  H12A 5037   5.909   6.014   1.990  0.3787  2.0929 -1.3304
   40DOPE  H12B 5038   5.958   6.178   2.061  1.4064 -0.1502 -1.2934
   40DOPE   C11 5039   5.839   6.042   2.181 -0.3555 -0.1283 -0.2892
   40DOPE  H11A 5040   5.871   6.072   2.282 -3.3411 -1.1223  1.0812
   40DOPE  H11B 5041   5.815   5.934   2.195  1.8813 -0.9826 -2.2611
   40DOPE     P 5042   5.593   6.047   2.092  0.0438 -0.0578  0.4672
   40DOPE   O13 5043   5.621   5.904   2.069  1.2415  0.3943  0.0935
   40DOPE   O14 5044   5.548   6.135   1.981 -0.3203 -0.5933  0.4512
   40DOPE   O11 5045   5.492   6.055   2.211  0.0543  0.1596 -0.1762
   40DOPE   O12 5046   5.721   6.118   2.156 -0.1529  0.2580 -0.6730
   40DOPE    C1 5047   5.457   6.189   2.259  0.1789  0.4328  0.2129
   40DOPE    HA 5048   5.429   6.254   2.174  1.1812 -1.0013 -1.2588
   40DOPE    HB 5049   5.543   6.240   2.307  0.3064  1.4009 -1.0100
   40DOPE    C2 5050   5.341   6.187   2.364  0.3691  0.2485  0.3218
   40DOPE    HS 5051   5.318   6.293   2.386  1.6204  0.3878  1.0813
   40DOPE   O21 5052   5.377   6.117   2.486 -0.3810  0.1733 -0.0060
   40DOPE   C21 5053   5.470   6.173   2.555 -0.8286 -0.9007 -0.4698
   40DOPE   O22 5054   5.516   6.287   2.529  0.4955  0.5543  0.1167
   40DOPE   C22 5055   5.521   6.098   2.675  0.4354 -0.2058  0.1408
   40DOPE   H2R 5056   5.492   5.991   2.674  0.0299 -0.0959 -0.0669
   40DOPE   H2S 5057   5.483   6.156   2.762 -2.0078  0.6083 -1.3652
   40DOPE    C3 5058   5.212   6.127   2.299 -0.4673  0.0708 -0.1689
   40DOPE    HX 5059   5.251   6.036   2.247 -2.5986 -0.6621 -0.5633
   40DOPE    HY 5060   5.184   6.190   2.212 -1.1381  1.3302  0.9240
   40DOPE   O31 5061   5.102   6.099   2.383 -0.0481 -0.1984 -0.2781
   40DOPE   C31 5062   5.013   6.206   2.398 -0.7017 -0.0714  0.0892
   40DOPE   O32 5063   5.031   6.314   2.347  0.1857 -0.4091  0.2275
   40DOPE   C32 5064   4.894   6.158   2.474  0.0364  0.0981  0.1578
   40DOPE   H2X 5065   4.799   6.175   2.419 -0.3928  3.2293  1.6619
   40DOPE   H2Y 5066   4.899   6.047   2.478  0.6117  0.1229  0.2433
   40DOPE   C23 5067   5.668   6.118   2.694  0.3239  0.3173  0.7002
   40DOPE   H3R 5068   5.703   6.077   2.791 -1.7200 -2.9414  0.2324
   40DOPE   H3S 5069   5.701   6.224   2.694 -0.4376  0.5797 -0.7810
   40DOPE   C24 5070   5.746   6.041   2.584  0.6419 -0.6211  0.4262
   40DOPE   H4R 5071   5.854   6.063   2.591  0.7766 -1.3823  0.9266
   40DOPE   H4S 5072   5.706   6.065   2.483  1.5591  0.3896  0.2912
   40DOPE   C25 5073   5.729   5.885   2.584 -0.3299  0.4853  0.4416
   40DOPE   H5R 5074   5.634   5.837   2.550  0.3459 -0.0532 -0.7621
   40DOPE   H5S 5075   5.747   5.860   2.690 -0.2779  2.1514  0.8480
   40DOPE   C26 5076   5.835   5.815   2.497 -0.4095  0.1549  0.3465
   40DOPE   H6R 5077   5.937   5.848   2.523 -0.4523 -2.1203  4.1734
   40DOPE   H6S 5078   5.829   5.845   2.390 -1.0014 -1.3770 -0.0719
   40DOPE   C27 5079   5.829   5.665   2.521 -0.6072  0.9969 -0.3580
   40DOPE   H7R 5080   5.838   5.611   2.424 -0.9513 -1.5200  0.9201
   40DOPE   H7S 5081   5.733   5.644   2.572 -0.5773  0.5264 -0.4814
   40DOPE   C28 5082   5.939   5.621   2.616 -1.1150 -0.6445  0.3751
   40DOPE   H8R 5083   5.925   5.673   2.713 -0.4224  0.1994  0.0363
   40DOPE   H8S 5084   6.035   5.663   2.579 -1.6177  0.6060  0.4302
   40DOPE   C29 5085   5.945   5.469   2.621 -0.4368 -0.1221 -0.7472
   40DOPE   H9R 5086   5.999   5.427   2.535 -1.4940 -1.1541 -0.9385
   40DOPE  C210 5087   5.881   5.395   2.706  0.1516  0.5733 -0.4856
   40DOPE  H10R 5088   5.884   5.285   2.693 -2.1663  0.3113  0.7700
   40DOPE  C211 5089   5.796   5.444   2.815 -0.1467  0.1861  0.0360
   40DOPE  H11R 5090   5.692   5.412   2.791  0.0190 -1.0680  0.9190
   40DOPE  H11S 5091   5.796   5.554   2.828 -2.1661  0.5600 -2.2882
   40DOPE  C212 5092   5.848   5.384   2.950 -0.1335  0.4944 -0.1291
   40DOPE  H12R 5093   5.779   5.416   3.030  0.1651  1.1382 -0.1277
   40DOPE  H12S 5094   5.953   5.414   2.970  0.5299 -2.0092  0.5369
   40DOPE  C213 5095   5.845   5.233   2.957 -0.1350 -0.5586 -0.1957
   40DOPE  H13R 5096   5.862   5.208   3.064 -3.0731  0.4859  0.6169
   40DOPE  H13S 5097   5.925   5.186   2.895  0.8823  1.1631 -0.2662
   40DOPE  C214 5098   5.702   5.180   2.919  0.7043 -0.3640  0.2216
   40DOPE  H14R 5099   5.680   5.210   2.815 -2.4284 -0.9938  0.5874
   40DOPE  H14S 5100   5.630   5.234   2.984 -0.2603  0.0880 -1.1763
   40DOPE  C215 5101   5.699   5.030   2.934  0.4585  0.3619 -1.1852
   40DOPE  H15R 5102   5.594   4.994   2.948  0.1773  1.6934  0.4662
   40DOPE  H15S 5103   5.770   4.992   3.010  0.8381  1.1393 -1.1485
   40DOPE  C216 5104   5.744   4.965   2.796 -0.3452  0.5183  0.1395
   40DOPE  H16R 5105   5.854   4.979   2.799 -0.0003 -1.2285 -1.9383
   40DOPE  H16S 5106   5.693   5.014   2.711  0.8790  0.3702 -0.6998
   40DOPE  C217 5107   5.729   4.811   2.780  0.5274 -0.1302  1.2953
   40DOPE  H17R 5108   5.735   4.786   2.672  2.2442 -2.8539  1.9259
   40DOPE  H17S 5109   5.629   4.781   2.820  1.3454 -0.2930  3.3401
   40DOPE  C218 5110   5.831   4.730   2.856 -0.3368  0.3235  0.7516
   40DOPE  H18R 5111   5.934   4.746   2.817 -0.9804 -2.0374 -2.3647
   40DOPE  H18S 5112   5.812   4.622   2.839 -2.1039  0.6802  0.1778
   40DOPE  H18T 5113   5.829   4.747   2.965 -2.0937 -0.2554  0.8461
   40DOPE   C33 5114   4.892   6.210   2.614  0.6325 -0.4325  0.6197
   40DOPE   H3X 5115   4.985   6.187   2.671  0.7106 -0.2942  0.5468
   40DOPE   H3Y 5116   4.802   6.172   2.668 -0.2744 -0.6256 -0.9637
   40DOPE   C34 5117   4.873   6.363   2.624 -0.1490  0.1487 -0.0471
   40DOPE   H4X 5118   4.941   6.427   2.564  0.1275  1.1446  1.2765
   40DOPE   H4Y 5119   4.769   6.390   2.597 -0.2765  0.3218  0.6004
   40DOPE   C35 5120   4.890   6.393   2.777  0.3502  0.2829 -0.8526
   40DOPE   H5X 5121   4.996   6.369   2.801  0.0885 -2.7189 -2.2662
   40DOPE   H5Y 5122   4.843   6.321   2.847 -1.8444  2.0336 -0.4441
   40DOPE   C36 5123   4.841   6.531   2.823 -0.7672 -0.5905 -0.9992
   40DOPE   H6X 5124   4.741   6.550   2.779 -1.2430 -0.1635  0.2202
   40DOPE   H6Y 5125   4.914   6.609   2.793  0.4281 -1.0174  0.6666
   40DOPE   C37 5126   4.819   6.532   2.980 -0.7949 -0.0111 -0.3456
   40DOPE   H7X 5127   4.733   6.469   3.013 -1.2925  1.4183  1.2052
   40DOPE   H7Y 5128   4.915   6.496   3.024 -1.2796 -1.3624 -0.3259
   40DOPE   C38 5129   4.790   6.666   3.048  0.7289 -0.5108  0.5236
   40DOPE   H8X 5130   4.742   6.634   3.143 -0.1867 -2.0899 -0.4152
   40DOPE   H8Y 5131   4.696   6.708   3.007  0.9879  0.6802  1.1268
   40DOPE   C39 5132   4.906   6.763   3.047 -0.4751 -0.0993  0.1607
   40DOPE   H9X 5133   4.966   6.762   2.955 -1.8027  1.9008 -0.8007
   40DOPE  C310 5134   4.940   6.848   3.141 -0.0801 -0.2034 -0.1946
   40DOPE  H10X 5135   5.019   6.919   3.111  0.8858 -1.3845 -0.5330
   40DOPE  C311 5136   4.867   6.884   3.267  0.6446 -0.1271  0.5774
   40DOPE  H11X 5137   4.888   6.990   3.295 -1.3245  0.3069  0.5399
   40DOPE  H11Y 5138   4.757   6.871   3.263  0.4192  1.2967  1.4747
   40DOPE  C312 5139   4.923   6.801   3.376 -0.2642  0.5560 -0.6646
   40DOPE  H12X 5140   5.033   6.816   3.388 -0.0344 -2.1700  1.4517
   40DOPE  H12Y 5141   4.900   6.696   3.348 -1.0576  0.8198 -1.0335
   40DOPE  C313 5142   4.855   6.828   3.514  0.1262  0.3930  0.5848
   40DOPE  H13X 5143   4.745   6.818   3.500  0.2468  0.5359 -0.6230
   40DOPE  H13Y 5144   4.889   6.756   3.591  0.9819  1.2938  1.0861
   40DOPE  C314 5145   4.887   6.974   3.569 -0.2069  0.1918 -0.9146
   40DOPE  H14X 5146   4.812   6.997   3.647  0.5110  0.4940 -0.3088
   40DOPE  H14Y 5147   4.887   7.047   3.484  0.2749  0.4404 -0.7028
   40DOPE  C315 5148   5.019   6.988   3.645 -0.5934 -0.8465  0.0057
   40DOPE  H15X 5149   5.051   7.094   3.650  1.0143 -1.3504  2.0781
   40DOPE  H15Y 5150   5.088   6.928   3.582 -0.9841 -0.8412 -0.4326
   40DOPE  C316 5151   5.012   6.935   3.789 -0.3787  0.3491 -0.1517
   40DOPE  H16X 5152   5.111   6.918   3.836  0.1656 -1.1265 -1.6908
   40DOPE  H16Y 5153   4.956   6.839   3.794 -0.4445  0.4782  2.7515
   40DOPE  C317 5154   4.944   7.035   3.882  0.4307  0.8415 -0.8454
   40DOPE  H17X 5155   5.000   7.131   3.887 -1.3835  1.8968  0.7247
   40DOPE  H17Y 5156   4.843   7.060   3.843  0.2196 -0.1179 -0.9363
   40DOPE  C318 5157   4.926   6.992   4.029  0.1151  0.1680  0.3068
   40DOPE  H18X 5158   4.873   7.079   4.075  1.0847  1.1877 -0.4329
   40DOPE  H18Y 5159   4.879   6.894   4.051 -1.1882  1.6113  5.2178
   40DOPE  H18Z 5160   5.027   6.985   4.075  0.4613  2.2735  0.0003
   41DOPE     N 5161   2.360   5.896   2.615 -0.1798 -0.1489 -0.4423
   41DOPE   HN1 5162   2.357   5.878   2.512 -0.2330 -1.6453 -0.2129
   41DOPE   HN2 5163   2.318   5.990   2.623 -0.7349 -0.4346  0.0753
   41DOPE   HN3 5164   2.459   5.901   2.647 -0.0918 -0.6193 -0.6300
   41DOPE   C12 5165   2.267   5.802   2.692  0.1044  0.6418 -0.6688
   41DOPE  H12A 5166   2.313   5.702   2.684  1.3652  1.0295  1.0904
   41DOPE  H12B 5167   2.171   5.813   2.638 -0.3255 -0.3943 -0.1344
   41DOPE   C11 5168   2.264   5.835   2.843 -0.2788 -0.7249  0.1104
   41DOPE  H11A 5169   2.199   5.768   2.902 -0.2464 -0.2885  0.6428
   41DOPE  H11B 5170   2.221   5.936   2.856 -0.0442 -0.8644  2.3629
   41DOPE     P 5171   2.433   5.809   3.053  0.1670 -0.1662  0.2874
   41DOPE   O13 5172   2.327   5.864   3.139  0.1835  0.3008 -0.2717
   41DOPE   O14 5173   2.577   5.849   3.071 -0.1305 -0.1002  0.1146
   41DOPE   O11 5174   2.436   5.657   3.058  0.0113 -0.4754 -0.8253
   41DOPE   O12 5175   2.401   5.831   2.897 -0.0352  0.0958  0.2713
   41DOPE    C1 5176   2.344   5.585   3.137 -0.1593 -0.0479  0.8653
   41DOPE    HA 5177   2.314   5.491   3.085  1.8130 -1.2652  1.8235
   41DOPE    HB 5178   2.251   5.646   3.141  0.6408  1.2240  0.6242
   41DOPE    C2 5179   2.386   5.544   3.286  0.8885  0.1672  0.2647
   41DOPE    HS 5180   2.321   5.460   3.317  0.3326  0.8951  1.1208
   41DOPE   O21 5181   2.374   5.651   3.384  0.0919  0.2338  0.2072
   41DOPE   C21 5182   2.245   5.688   3.400 -0.3655 -0.7815  0.0621
   41DOPE   O22 5183   2.144   5.636   3.352 -0.4706 -0.1263  0.2890
   41DOPE   C22 5184   2.231   5.820   3.481  0.8185 -0.4336  0.5117
   41DOPE   H2R 5185   2.123   5.840   3.495 -0.0901 -2.5378 -2.4479
   41DOPE   H2S 5186   2.287   5.900   3.427  1.0675 -1.3806 -0.6890
   41DOPE    C3 5187   2.532   5.489   3.288 -0.4792  0.2986 -0.6021
   41DOPE    HX 5188   2.593   5.577   3.260 -1.0715  0.9115 -0.0065
   41DOPE    HY 5189   2.541   5.406   3.215 -0.6296 -1.2525  1.0620
   41DOPE   O31 5190   2.561   5.441   3.425 -0.0183  0.2787  0.6615
   41DOPE   C31 5191   2.679   5.467   3.462 -0.5095 -0.2281 -0.1977
   41DOPE   O32 5192   2.771   5.515   3.397  0.3673  0.1879 -0.4394
   41DOPE   C32 5193   2.695   5.412   3.603 -0.2350  0.2302 -0.3774
   41DOPE   H2X 5194   2.610   5.459   3.657 -1.0182 -1.4660 -0.0777
   41DOPE   H2Y 5195   2.657   5.308   3.611 -0.0169  0.1855  0.0616
   41DOPE   C23 5196   2.288   5.805   3.622  0.2920 -0.2375 -0.0040
   41DOPE   H3R 5197   2.288   5.898   3.682 -0.4048  1.3203 -2.2833
   41DOPE   H3S 5198   2.397   5.786   3.616  0.4244  0.5998 -0.3815
   41DOPE   C24 5199   2.240   5.676   3.684 -0.0486 -0.0744  0.4331
   41DOPE   H4R 5200   2.281   5.580   3.646 -1.3251 -0.4318 -0.1044
   41DOPE   H4S 5201   2.130   5.668   3.670 -0.1388 -1.9542  1.7075
   41DOPE   C25 5202   2.263   5.681   3.835  0.2025  0.2634  0.7996
   41DOPE   H5R 5203   2.196   5.613   3.892 -1.4910  0.0845 -1.2799
   41DOPE   H5S 5204   2.247   5.788   3.859  0.7989  0.5568 -0.0637
   41DOPE   C26 5205   2.408   5.644   3.879  0.1124  0.4341  0.8340
   41DOPE   H6R 5206   2.473   5.724   3.839 -0.0393 -0.4048 -1.1938
   41DOPE   H6S 5207   2.439   5.551   3.827  2.6040 -0.1226  3.1209
   41DOPE   C27 5208   2.431   5.634   4.027  0.3961 -0.5918 -0.5965
   41DOPE   H7R 5209   2.394   5.728   4.074  0.7343 -0.6996 -0.1117
   41DOPE   H7S 5210   2.538   5.637   4.053 -0.3478 -1.4330  3.1694
   41DOPE   C28 5211   2.373   5.505   4.090  0.5874 -0.8068 -0.2393
   41DOPE   H8R 5212   2.396   5.421   4.021  0.1693  0.4581 -1.9966
   41DOPE   H8S 5213   2.263   5.510   4.079  0.7620  2.0891 -1.7552
   41DOPE   C29 5214   2.419   5.477   4.228  0.5220 -0.1798 -0.2208
   41DOPE   H9R 5215   2.521   5.509   4.255  0.9668 -1.3960 -0.3927
   41DOPE  C210 5216   2.343   5.436   4.329  0.1687 -0.4640  0.1214
   41DOPE  H10R 5217   2.373   5.443   4.434 -0.2748 -1.3159  0.3156
   41DOPE  C211 5218   2.189   5.408   4.336 -0.4728  0.0850 -0.3164
   41DOPE  H11R 5219   2.153   5.405   4.231  3.2911  0.8537 -1.7583
   41DOPE  H11S 5220   2.140   5.495   4.387  0.3511  0.9706 -1.0102
   41DOPE  C212 5221   2.159   5.275   4.417 -0.4600 -0.2703 -0.0991
   41DOPE  H12R 5222   2.247   5.246   4.477 -0.7347 -2.2794 -0.6164
   41DOPE  H12S 5223   2.150   5.188   4.349 -0.1418  0.8847 -1.7019
   41DOPE  C213 5224   2.034   5.281   4.507 -0.5065  0.7720  0.3087
   41DOPE  H13R 5225   1.948   5.320   4.449 -0.1524  1.7510  0.4314
   41DOPE  H13S 5226   2.062   5.354   4.585 -0.6051 -0.3270  1.4129
   41DOPE  C214 5227   1.994   5.154   4.591 -0.8188 -0.4521 -0.0544
   41DOPE  H14R 5228   2.084   5.103   4.633 -1.3657 -1.1877  0.2513
   41DOPE  H14S 5229   1.943   5.077   4.529  0.8533 -2.0143  0.4144
   41DOPE  C215 5230   1.910   5.197   4.706 -0.3348  0.5747  0.2258
   41DOPE  H15R 5231   1.829   5.258   4.661  0.5556 -0.0192 -2.3585
   41DOPE  H15S 5232   1.975   5.263   4.766  1.1166 -0.0550 -0.5821
   41DOPE  C216 5233   1.851   5.088   4.796  0.3903 -0.5640  1.2767
   41DOPE  H16R 5234   1.813   5.011   4.726  1.2358 -0.7965  1.0594
   41DOPE  H16S 5235   1.759   5.125   4.847 -0.6278 -1.4700  0.1427
   41DOPE  C217 5236   1.953   5.021   4.888 -0.3146  0.0977  0.1107
   41DOPE  H17R 5237   2.048   5.014   4.830  0.0223  1.0115  0.5452
   41DOPE  H17S 5238   1.924   4.919   4.923 -0.3972  0.5841  1.4833
   41DOPE  C218 5239   1.966   5.101   5.021 -0.3190  0.8068  0.2657
   41DOPE  H18R 5240   1.982   5.208   4.995 -0.5219  0.8771  0.4255
   41DOPE  H18S 5241   2.054   5.060   5.075 -0.6889  1.0718  1.0859
   41DOPE  H18T 5242   1.871   5.097   5.077 -1.0071  0.1947 -0.9110
   41DOPE   C33 5243   2.837   5.431   3.652 -0.2407  0.1870  0.3011
   41DOPE   H3X 5244   2.860   5.540   3.645 -1.6343  0.5437  0.9338
   41DOPE   H3Y 5245   2.911   5.395   3.577  1.8065  3.7103  0.3967
   41DOPE   C34 5246   2.866   5.370   3.785 -0.1603  0.3792  0.4304
   41DOPE   H4X 5247   2.897   5.264   3.778  2.0263  1.0097 -0.2527
   41DOPE   H4Y 5248   2.948   5.428   3.833 -1.2451  1.6184  0.8388
   41DOPE   C35 5249   2.760   5.394   3.889 -0.1831 -0.5208 -0.0692
   41DOPE   H5X 5250   2.669   5.342   3.852  1.3136 -1.6277 -2.4115
   41DOPE   H5Y 5251   2.740   5.503   3.894  0.4179 -0.0461 -4.3119
   41DOPE   C36 5252   2.811   5.344   4.019 -0.5555  0.3657  0.0980
   41DOPE   H6X 5253   2.905   5.389   4.057  0.6694 -2.2712  0.3943
   41DOPE   H6Y 5254   2.831   5.238   3.992  0.5176  0.9401 -1.5382
   41DOPE   C37 5255   2.699   5.347   4.120 -0.0218 -0.0818  0.1350
   41DOPE   H7X 5256   2.650   5.447   4.122  0.3396  0.0808  1.0146
   41DOPE   H7Y 5257   2.621   5.278   4.083  0.4958 -0.2222 -0.7342
   41DOPE   C38 5258   2.743   5.309   4.265  1.0650  0.0908  0.1216
   41DOPE   H8X 5259   2.817   5.227   4.252  0.7623 -0.3505  1.0578
   41DOPE   H8Y 5260   2.653   5.275   4.321  1.1565  1.3173  1.0576
   41DOPE   C39 5261   2.801   5.427   4.328  0.0839  0.1114 -0.3605
   41DOPE   H9X 5262   2.898   5.443   4.279  1.8853 -2.2066  2.1597
   41DOPE  C310 5263   2.770   5.482   4.447 -0.3432  0.6625 -0.2839
   41DOPE  H10X 5264   2.837   5.556   4.492  0.9374  0.4806 -1.7804
   41DOPE  C311 5265   2.660   5.441   4.541 -0.0967  0.0899 -0.0617
   41DOPE  H11X 5266   2.607   5.527   4.588 -1.2386  0.2995 -1.6613
   41DOPE  H11Y 5267   2.584   5.385   4.483 -0.9987  0.1618  1.0214
   41DOPE  C312 5268   2.704   5.349   4.657  0.0220  1.0538 -0.1387
   41DOPE  H12X 5269   2.756   5.257   4.622  0.4675  1.4762 -0.6050
   41DOPE  H12Y 5270   2.611   5.306   4.699  3.0149 -2.9679  3.2483
   41DOPE  C313 5271   2.779   5.411   4.769 -0.2664  0.5204  0.1293
   41DOPE  H13X 5272   2.883   5.431   4.734 -0.2508  0.5906  0.2138
   41DOPE  H13Y 5273   2.732   5.510   4.787  0.6135  0.5327  2.7870
   41DOPE  C314 5274   2.783   5.330   4.894  0.0516  0.2012  0.0826
   41DOPE  H14X 5275   2.827   5.229   4.877 -0.0629  0.1578  0.0461
   41DOPE  H14Y 5276   2.681   5.300   4.924  0.1779  0.1363  0.4546
   41DOPE  C315 5277   2.854   5.393   5.019 -0.3784  0.0669 -0.0662
   41DOPE  H15X 5278   2.801   5.482   5.057  0.5196  0.1117  1.1090
   41DOPE  H15Y 5279   2.959   5.407   4.986 -0.6352 -1.0971 -1.5154
   41DOPE  C316 5280   2.857   5.285   5.131 -0.3189  0.1408 -0.2448
   41DOPE  H16X 5281   2.925   5.201   5.106  0.6537  0.7417  0.2977
   41DOPE  H16Y 5282   2.753   5.246   5.132 -0.2533 -0.6050 -4.1608
   41DOPE  C317 5283   2.899   5.344   5.264  0.1743 -0.2776 -0.4776
   41DOPE  H17X 5284   3.009   5.352   5.272  0.3214 -1.2207 -1.3106
   41DOPE  H17Y 5285   2.863   5.449   5.274 -0.4318 -0.4436 -0.8616
   41DOPE  C318 5286   2.852   5.263   5.383  0.3118  0.0849  0.9932
   41DOPE  H18X 5287   2.744   5.264   5.408  0.4972  0.8755  1.8243
   41DOPE  H18Y 5288   2.877   5.160   5.350  1.0464 -0.3662  2.8746
   41DOPE  H18Z 5289   2.910   5.272   5.477 -0.3511  1.6552  1.2846
   42DOPE     N 5290   2.420   4.730   2.601  0.1716  1.0925  0.2794
   42DOPE   HN1 5291   2.323   4.739   2.564 -0.6577 -1.1084  1.7518
   42DOPE   HN2 5292   2.466   4.690   2.517 -0.0233  1.1857  0.1251
   42DOPE   HN3 5293   2.409   4.663   2.679 -0.0445 -0.4142 -0.9963
   42DOPE   C12 5294   2.478   4.858   2.651 -0.4178  0.1150  0.3463
   42DOPE  H12A 5295   2.478   4.924   2.561  1.9402  0.3590  0.4701
   42DOPE  H12B 5296   2.583   4.838   2.679  0.3328 -1.7944 -3.2393
   42DOPE   C11 5297   2.393   4.909   2.765 -0.3443 -0.4422 -0.0312
   42DOPE  H11A 5298   2.439   5.000   2.809  2.0344 -0.9518 -1.2854
   42DOPE  H11B 5299   2.389   4.828   2.840  1.1390 -0.2937  0.2352
   42DOPE     P 5300   2.214   5.080   2.671  0.0465  0.0886 -0.0879
   42DOPE   O13 5301   2.081   5.075   2.602 -0.2948 -0.3294 -0.2344
   42DOPE   O14 5302   2.327   5.141   2.594 -0.5035 -0.1042  0.0206
   42DOPE   O11 5303   2.199   5.169   2.805  0.0998  0.0686 -0.1209
   42DOPE   O12 5304   2.261   4.940   2.723 -0.1014  0.2307 -0.2250
   42DOPE    C1 5305   2.100   5.124   2.897  0.0034  0.0315  0.0464
   42DOPE    HA 5306   2.109   5.018   2.929  0.6664 -0.5569 -1.9395
   42DOPE    HB 5307   1.998   5.137   2.855 -0.0136  0.7174  0.3001
   42DOPE    C2 5308   2.112   5.202   3.026  1.0077 -0.2550  0.0823
   42DOPE    HS 5309   2.140   5.308   3.007  0.3523  0.1104  1.0389
   42DOPE   O21 5310   2.205   5.133   3.115  0.4944 -0.1182  0.5223
   42DOPE   C21 5311   2.331   5.164   3.086 -0.5892  0.2597  0.1545
   42DOPE   O22 5312   2.368   5.256   3.014 -0.4731  0.3760  0.1799
   42DOPE   C22 5313   2.428   5.063   3.151 -0.1449 -0.6024  0.3107
   42DOPE   H2R 5314   2.523   5.119   3.167  0.0419 -0.6999 -0.4056
   42DOPE   H2S 5315   2.458   4.987   3.075 -0.7294  0.7042 -1.2871
   42DOPE    C3 5316   1.980   5.212   3.095 -0.2457  0.5124  0.6383
   42DOPE    HX 5317   1.969   5.108   3.132 -1.0588  0.1747 -0.5276
   42DOPE    HY 5318   1.907   5.240   3.017  0.1922  2.0700  0.7508
   42DOPE   O31 5319   1.980   5.320   3.194  0.2779  0.0598  0.4950
   42DOPE   C31 5320   1.944   5.280   3.316 -0.1421 -0.1186 -0.1413
   42DOPE   O32 5321   1.934   5.164   3.353  0.2265  0.5361 -0.9091
   42DOPE   C32 5322   1.883   5.402   3.389 -0.1139  0.4673 -0.3702
   42DOPE   H2X 5323   1.943   5.491   3.359  0.2519  0.2652 -0.2467
   42DOPE   H2Y 5324   1.781   5.426   3.353  0.4111 -0.5620 -2.7837
   42DOPE   C23 5325   2.375   4.994   3.273  0.2789 -0.2845 -0.1624
   42DOPE   H3R 5326   2.444   4.927   3.329 -1.1587 -1.5239  0.1834
   42DOPE   H3S 5327   2.285   4.938   3.242  0.1389  1.7935 -4.2882
   42DOPE   C24 5328   2.341   5.091   3.388  0.3021  0.1334 -0.7715
   42DOPE   H4R 5329   2.262   5.164   3.362 -0.1071  0.5505  1.4442
   42DOPE   H4S 5330   2.437   5.143   3.411  0.1970 -0.1699  0.4265
   42DOPE   C25 5331   2.277   5.025   3.512 -0.9416  0.3408 -0.0412
   42DOPE   H5R 5332   2.353   4.950   3.542  0.4697  2.1522  1.1202
   42DOPE   H5S 5333   2.182   4.976   3.483 -1.5433  1.3467  0.1590
   42DOPE   C26 5334   2.250   5.131   3.617 -0.5914 -0.3340  0.1502
   42DOPE   H6R 5335   2.179   5.208   3.580  0.4803  1.2844  1.2860
   42DOPE   H6S 5336   2.337   5.199   3.628 -0.5832  0.1789 -2.3851
   42DOPE   C27 5337   2.195   5.085   3.751 -0.3556  0.0879 -0.7529
   42DOPE   H7R 5338   2.260   5.008   3.798 -1.2461  1.0148  2.2745
   42DOPE   H7S 5339   2.103   5.035   3.714 -1.2756  2.1848 -1.4417
   42DOPE   C28 5340   2.170   5.190   3.862  0.3919  0.5149 -0.1355
   42DOPE   H8R 5341   2.102   5.266   3.818 -2.2507 -1.9289 -0.5655
   42DOPE   H8S 5342   2.262   5.248   3.886  0.8288  0.0349 -0.6131
   42DOPE   C29 5343   2.121   5.124   3.987  0.1325 -0.1052 -0.2771
   42DOPE   H9R 5344   2.196   5.056   4.029  0.6470  1.9509  2.3948
   42DOPE  C210 5345   2.015   5.152   4.062 -0.1489 -0.4213  0.3007
   42DOPE  H10R 5346   2.013   5.082   4.147  0.0541  1.6773  2.1274
   42DOPE  C211 5347   1.920   5.266   4.054  0.3286 -0.8215 -0.3613
   42DOPE  H11R 5348   1.934   5.338   3.971  1.2576  0.3992  0.8019
   42DOPE  H11S 5349   1.922   5.329   4.146  0.4091 -0.0518 -0.8797
   42DOPE  C212 5350   1.772   5.219   4.026 -0.2932 -0.6210  0.3252
   42DOPE  H12R 5351   1.773   5.169   3.926  1.4599 -1.5297  0.7515
   42DOPE  H12S 5352   1.715   5.313   4.012 -0.7299 -0.9630 -0.2795
   42DOPE  C213 5353   1.713   5.119   4.125 -0.0744  0.3879 -0.1899
   42DOPE  H13R 5354   1.765   5.022   4.114 -0.4664  0.2803 -1.2226
   42DOPE  H13S 5355   1.603   5.108   4.110 -0.2287  1.1271  0.3116
   42DOPE  C214 5356   1.721   5.160   4.271 -0.9156  0.5926 -0.4084
   42DOPE  H14R 5357   1.828   5.176   4.296 -1.2554  2.2266  0.1155
   42DOPE  H14S 5358   1.680   5.076   4.331 -2.2805  0.7925 -1.0150
   42DOPE  C215 5359   1.641   5.293   4.303  0.2554  0.5700  0.4776
   42DOPE  H15R 5360   1.542   5.276   4.255  0.6510  0.9884 -0.5091
   42DOPE  H15S 5361   1.678   5.389   4.260  0.8195  0.6962  1.2298
   42DOPE  C216 5362   1.623   5.327   4.450 -0.4806  0.1588  0.1951
   42DOPE  H16R 5363   1.721   5.370   4.480  0.0346 -0.0472 -1.1140
   42DOPE  H16S 5364   1.618   5.233   4.509  0.1084  0.8388  1.3627
   42DOPE  C217 5365   1.506   5.421   4.469 -0.0458  0.0890 -0.2548
   42DOPE  H17R 5366   1.515   5.511   4.405 -1.5071  0.2766 -0.2163
   42DOPE  H17S 5367   1.516   5.458   4.574  3.5312 -0.6637 -0.1796
   42DOPE  C218 5368   1.365   5.357   4.447 -0.3348 -0.2234  0.2261
   42DOPE  H18R 5369   1.283   5.427   4.470 -1.3052 -1.1036 -0.4505
   42DOPE  H18S 5370   1.350   5.260   4.500 -1.2544  1.0727  2.4348
   42DOPE  H18T 5371   1.351   5.340   4.338 -1.0320  0.0100  0.2724
   42DOPE   C33 5372   1.888   5.385   3.546 -0.2037 -0.6026 -0.3095
   42DOPE   H3X 5373   1.994   5.389   3.581 -0.8001  0.7223  1.5059
   42DOPE   H3Y 5374   1.843   5.286   3.570 -0.2998 -0.8972 -1.6149
   42DOPE   C34 5375   1.835   5.516   3.609  0.4664 -0.2560  0.4095
   42DOPE   H4X 5376   1.888   5.597   3.555 -1.3600  1.2252  0.7223
   42DOPE   H4Y 5377   1.730   5.534   3.575  0.9779  1.8953 -0.1993
   42DOPE   C35 5378   1.855   5.534   3.759 -0.5447 -0.2702 -0.0927
   42DOPE   H5X 5379   1.958   5.514   3.795 -0.3882 -0.9424 -0.8809
   42DOPE   H5Y 5380   1.787   5.466   3.814 -0.7522 -3.2005 -3.6107
   42DOPE   C36 5381   1.800   5.677   3.792  0.4865 -0.5999 -0.1458
   42DOPE   H6X 5382   1.700   5.695   3.746 -1.5896 -3.2412  2.8904
   42DOPE   H6Y 5383   1.871   5.752   3.751 -0.5042 -0.4647 -1.6951
   42DOPE   C37 5384   1.786   5.708   3.946  0.0294 -0.1395  0.4878
   42DOPE   H7X 5385   1.733   5.806   3.949 -0.3478 -0.1960 -2.1331
   42DOPE   H7Y 5386   1.700   5.644   3.976 -1.0405  0.5870 -0.8972
   42DOPE   C38 5387   1.907   5.699   4.032 -0.0377  0.2094 -0.0104
   42DOPE   H8X 5388   1.964   5.794   4.026  1.7406 -0.6808  1.5740
   42DOPE   H8Y 5389   1.961   5.611   3.990 -1.2619 -0.8138  0.4916
   42DOPE   C39 5390   1.888   5.657   4.174  0.0071 -0.2651 -0.0904
   42DOPE   H9X 5391   1.821   5.571   4.184 -2.0392  1.3976  1.2304
   42DOPE  C310 5392   1.949   5.705   4.286 -0.3099 -0.2069 -0.1434
   42DOPE  H10X 5393   1.930   5.653   4.381  2.4430  0.1396  0.6753
   42DOPE  C311 5394   2.029   5.832   4.298 -0.5659  0.3600 -0.0680
   42DOPE  H11X 5395   2.042   5.882   4.200  0.0731  4.8024  2.0282
   42DOPE  H11Y 5396   1.980   5.913   4.356  0.9661 -0.3158  2.3221
   42DOPE  C312 5397   2.171   5.800   4.355  0.6793 -0.0274  0.6226
   42DOPE  H12X 5398   2.224   5.894   4.331 -1.2997  0.8490 -0.6066
   42DOPE  H12Y 5399   2.217   5.709   4.312  0.9752  0.5592 -0.3096
   42DOPE  C313 5400   2.173   5.795   4.507 -0.2868  1.1157 -0.9148
   42DOPE  H13X 5401   2.112   5.715   4.554  1.5859 -0.5710 -1.2087
   42DOPE  H13Y 5402   2.275   5.761   4.533 -1.2926  0.8055  3.4721
   42DOPE  C314 5403   2.149   5.928   4.581  0.0272  0.1772  0.7082
   42DOPE  H14X 5404   2.159   5.912   4.690 -2.4156  0.8767  1.1114
   42DOPE  H14Y 5405   2.040   5.946   4.565  0.2046  0.1578 -0.6453
   42DOPE  C315 5406   2.226   6.048   4.535 -0.3525  0.1716  0.1219
   42DOPE  H15X 5407   2.191   6.064   4.431  1.4083  2.7774 -0.1790
   42DOPE  H15Y 5408   2.337   6.035   4.534 -0.2920  0.6657 -0.2552
   42DOPE  C316 5409   2.199   6.181   4.610 -0.3345 -0.1781  0.0743
   42DOPE  H16X 5410   2.219   6.160   4.717  1.8247  0.0556 -0.2350
   42DOPE  H16Y 5411   2.093   6.197   4.580 -0.2692 -1.5749 -1.0387
   42DOPE  C317 5412   2.296   6.294   4.570  0.3498 -0.2979 -0.0938
   42DOPE  H17X 5413   2.395   6.251   4.601 -0.3521 -1.0796  1.1707
   42DOPE  H17Y 5414   2.285   6.313   4.462 -3.0598  0.0634  0.2212
   42DOPE  C318 5415   2.269   6.416   4.654  0.7281 -0.2123  0.5677
   42DOPE  H18X 5416   2.168   6.459   4.639 -0.0866 -2.2121  0.1306
   42DOPE  H18Y 5417   2.282   6.398   4.763 -0.9087 -0.4878  0.7379
   42DOPE  H18Z 5418   2.344   6.492   4.622  0.1924  0.7050  1.4591
   43DOPE     N 5419   7.049   1.188   2.392  0.0448 -0.9223 -0.2215
   43DOPE   HN1 5420   7.020   1.230   2.302  0.3437 -2.5580 -1.1067
   43DOPE   HN2 5421   7.152   1.174   2.383  0.2237  0.9047 -1.5585
   43DOPE   HN3 5422   6.996   1.099   2.405 -2.3742  0.3334 -0.8999
   43DOPE   C12 5423   7.035   1.280   2.508 -0.0130 -0.0774  0.4732
   43DOPE  H12A 5424   7.068   1.218   2.594  0.7771 -1.9910 -1.1147
   43DOPE  H12B 5425   6.928   1.307   2.523 -0.3978 -0.6992 -0.9269
   43DOPE   C11 5426   7.123   1.398   2.493 -0.2329 -0.8418  0.0728
   43DOPE  H11A 5427   7.145   1.440   2.594 -0.5727  1.7608 -0.8744
   43DOPE  H11B 5428   7.077   1.472   2.425  1.1148 -0.1922 -0.1696
   43DOPE     P 5429   7.365   1.470   2.449 -0.2493 -0.0278 -0.1581
   43DOPE   O13 5430   7.302   1.604   2.453 -0.7477 -0.2312  0.3119
   43DOPE   O14 5431   7.474   1.447   2.353 -0.3633  0.6751 -0.3858
   43DOPE   O11 5432   7.435   1.447   2.587  0.4712 -0.2126  0.0156
   43DOPE   O12 5433   7.249   1.365   2.441 -0.2203  0.2402 -0.5022
   43DOPE    C1 5434   7.435   1.315   2.644 -0.7248 -0.5199 -0.8811
   43DOPE    HA 5435   7.498   1.246   2.583  0.9088 -0.2257  0.3840
   43DOPE    HB 5436   7.335   1.272   2.667 -0.5936 -0.5237 -0.3107
   43DOPE    C2 5437   7.510   1.335   2.785  0.5026 -0.3831  0.9698
   43DOPE    HS 5438   7.501   1.252   2.858  3.0576 -1.2198  0.4277
   43DOPE   O21 5439   7.467   1.457   2.848  0.3006 -0.2091  0.2550
   43DOPE   C21 5440   7.343   1.462   2.899 -0.0717  0.2706  0.5822
   43DOPE   O22 5441   7.264   1.369   2.902  0.3911  0.1253  0.2618
   43DOPE   C22 5442   7.323   1.589   2.976  0.2804 -0.6842  0.6144
   43DOPE   H2R 5443   7.231   1.566   3.035 -0.6592 -0.4627 -0.7097
   43DOPE   H2S 5444   7.301   1.664   2.898  0.7135  0.7450  1.8276
   43DOPE    C3 5445   7.663   1.336   2.761  0.0369 -0.1828  0.4912
   43DOPE    HX 5446   7.676   1.365   2.655 -0.8188  0.0403  0.4453
   43DOPE    HY 5447   7.703   1.232   2.761  0.6705  0.0290 -1.1948
   43DOPE   O31 5448   7.731   1.434   2.846 -0.1471  1.0876  0.1264
   43DOPE   C31 5449   7.762   1.381   2.966 -0.2792  0.2184 -0.7428
   43DOPE   O32 5450   7.743   1.264   3.002  0.6324 -0.8624 -0.1922
   43DOPE   C32 5451   7.803   1.499   3.052  0.1772 -0.2589  0.3417
   43DOPE   H2X 5452   7.911   1.517   3.037  0.6813 -2.3444  1.1693
   43DOPE   H2Y 5453   7.751   1.590   3.016  0.1208 -1.2332 -2.2982
   43DOPE   C23 5454   7.448   1.643   3.056  0.3398 -0.0324 -0.6377
   43DOPE   H3R 5455   7.540   1.637   2.993 -0.1537  1.2112 -1.5127
   43DOPE   H3S 5456   7.459   1.573   3.141 -0.9607  2.0203  1.3135
   43DOPE   C24 5457   7.434   1.788   3.102 -0.1695  0.1226 -0.0839
   43DOPE   H4R 5458   7.417   1.865   3.024  1.7947 -0.5977 -1.2992
   43DOPE   H4S 5459   7.531   1.822   3.144 -0.1896 -0.5075  0.5049
   43DOPE   C25 5460   7.325   1.810   3.214  1.0793  0.0096 -0.0536
   43DOPE   H5R 5461   7.330   1.744   3.303  0.0309  0.9872  0.7507
   43DOPE   H5S 5462   7.233   1.800   3.153  0.8017  2.9982 -0.2678
   43DOPE   C26 5463   7.327   1.955   3.275  0.2945 -0.2128  0.8442
   43DOPE   H6R 5464   7.234   1.977   3.333  0.9577 -3.0957  3.2326
   43DOPE   H6S 5465   7.339   2.030   3.193 -0.6107 -0.8872  0.0688
   43DOPE   C27 5466   7.437   1.964   3.384  0.9208 -0.6117  0.1787
   43DOPE   H7R 5467   7.533   1.929   3.339  3.3188  4.6520  0.4043
   43DOPE   H7S 5468   7.412   1.891   3.464 -0.6871  0.1328  0.3987
   43DOPE   C28 5469   7.448   2.107   3.449  0.0660  0.5393 -0.1578
   43DOPE   H8R 5470   7.466   2.180   3.367 -1.8400  2.2319  0.8519
   43DOPE   H8S 5471   7.540   2.107   3.511  0.1004 -1.1360 -0.1643
   43DOPE   C29 5472   7.332   2.149   3.533 -0.1291 -0.5022  0.7754
   43DOPE   H9R 5473   7.255   2.198   3.471  1.5152 -0.2536 -1.1853
   43DOPE  C210 5474   7.315   2.121   3.663 -0.1777 -0.5177  0.4116
   43DOPE  H10R 5475   7.219   2.149   3.709  1.3880  0.4875  3.3339
   43DOPE  C211 5476   7.406   2.050   3.756 -0.3702 -0.3695  0.1731
   43DOPE  H11R 5477   7.474   1.998   3.686 -0.9429  0.3028 -0.9074
   43DOPE  H11S 5478   7.353   1.971   3.814 -1.4005  0.1182 -0.0759
   43DOPE  C212 5479   7.489   2.142   3.846  0.4560 -0.5079  0.9933
   43DOPE  H12R 5480   7.522   2.218   3.772  0.2073 -1.6752 -0.3619
   43DOPE  H12S 5481   7.587   2.097   3.872  1.2744  1.4773  1.5824
   43DOPE  C213 5482   7.439   2.191   3.981  0.8457  0.0739  0.1621
   43DOPE  H13R 5483   7.373   2.110   4.018  1.0573 -1.4295 -2.4447
   43DOPE  H13S 5484   7.373   2.279   3.967  0.5994 -0.0382  0.6261
   43DOPE  C214 5485   7.555   2.223   4.075 -0.8461  0.2529  0.3316
   43DOPE  H14R 5486   7.615   2.301   4.024 -1.1263  0.2213 -0.0521
   43DOPE  H14S 5487   7.630   2.144   4.095 -0.0590  0.6368 -0.9693
   43DOPE  C215 5488   7.515   2.272   4.213  0.6796 -0.2564 -0.3504
   43DOPE  H15R 5489   7.428   2.340   4.201  0.1391 -0.7315  0.7618
   43DOPE  H15S 5490   7.600   2.322   4.264  0.0079  0.2943  0.2405
   43DOPE  C216 5491   7.483   2.140   4.308  0.5054  0.0511 -0.5061
   43DOPE  H16R 5492   7.579   2.084   4.307  1.1789  0.9797  2.3699
   43DOPE  H16S 5493   7.409   2.079   4.252  0.8835  0.7242 -1.7829
   43DOPE  C217 5494   7.423   2.177   4.449 -0.7401  0.1721  0.4467
   43DOPE  H17R 5495   7.422   2.084   4.510  0.4258  0.8627  1.5955
   43DOPE  H17S 5496   7.320   2.213   4.429  0.1967  2.6311 -0.3717
   43DOPE  C218 5497   7.505   2.289   4.517  0.2220  0.2463 -0.1946
   43DOPE  H18R 5498   7.492   2.294   4.627 -0.2381  0.5441 -0.2600
   43DOPE  H18S 5499   7.478   2.385   4.467 -1.3376  0.3735  0.8321
   43DOPE  H18T 5500   7.614   2.274   4.504  0.1174 -0.9061  0.0853
   43DOPE   C33 5501   7.784   1.485   3.208  0.0075  0.1638  0.1231
   43DOPE   H3X 5502   7.863   1.419   3.249 -2.1786 -2.0766  0.9903
   43DOPE   H3Y 5503   7.684   1.440   3.225 -1.7300  2.3853 -3.2304
   43DOPE   C34 5504   7.788   1.621   3.280  0.0008 -0.2254  0.1909
   43DOPE   H4X 5505   7.875   1.681   3.246 -0.2027 -0.6127 -1.0818
   43DOPE   H4Y 5506   7.691   1.673   3.266 -0.1080 -0.7717 -1.2746
   43DOPE   C35 5507   7.784   1.605   3.428  0.9320 -0.6211  0.1483
   43DOPE   H5X 5508   7.872   1.551   3.469  1.9894  0.6361 -0.3759
   43DOPE   H5Y 5509   7.692   1.550   3.453  0.5884 -1.3154 -2.4247
   43DOPE   C36 5510   7.776   1.741   3.508 -0.6444  0.0802  0.5551
   43DOPE   H6X 5511   7.697   1.805   3.463 -0.1522  0.6426  0.4790
   43DOPE   H6Y 5512   7.870   1.793   3.479 -0.1214 -0.9736  0.3224
   43DOPE   C37 5513   7.761   1.732   3.660 -0.1044  0.3717  0.8022
   43DOPE   H7X 5514   7.672   1.671   3.687 -0.9093  0.5706 -1.2001
   43DOPE   H7Y 5515   7.855   1.684   3.695 -0.7524 -1.3790  0.2655
   43DOPE   C38 5516   7.752   1.860   3.728  0.7651 -0.2406 -0.8350
   43DOPE   H8X 5517   7.726   1.848   3.835 -0.1369  0.6224 -0.9366
   43DOPE   H8Y 5518   7.670   1.923   3.686 -1.3157 -0.4960  2.4790
   43DOPE   C39 5519   7.878   1.938   3.728  0.1019  0.1730 -0.1885
   43DOPE   H9X 5520   7.943   1.907   3.644 -0.7188  0.9213 -1.1304
   43DOPE  C310 5521   7.930   2.014   3.829  0.6371 -0.0580 -0.2891
   43DOPE  H10X 5522   8.024   2.070   3.825  0.7777 -0.3074 -0.5403
   43DOPE  C311 5523   7.866   2.042   3.969  0.1770  0.3841  0.5436
   43DOPE  H11X 5524   7.845   2.150   3.984 -1.1452  0.1607  0.3907
   43DOPE  H11Y 5525   7.764   1.999   3.976 -0.3203  1.4550  0.1478
   43DOPE  C312 5526   7.952   1.983   4.081 -0.4182  0.5340 -0.3987
   43DOPE  H12X 5527   7.997   1.885   4.054 -0.5605  0.1324  0.7947
   43DOPE  H12Y 5528   7.893   1.970   4.174  0.2549  1.2423  0.1402
   43DOPE  C313 5529   8.062   2.080   4.123  0.2685 -0.0998  0.5160
   43DOPE  H13X 5530   8.132   2.103   4.040  3.6864  0.6986  3.3663
   43DOPE  H13Y 5531   8.011   2.177   4.146  2.1766  0.5743  2.1191
   43DOPE  C314 5532   8.157   2.035   4.230 -0.9398 -0.3030  0.3334
   43DOPE  H14X 5533   8.245   2.102   4.218 -1.2032  0.2405  1.3230
   43DOPE  H14Y 5534   8.192   1.933   4.204 -0.2281  0.1575 -0.5952
   43DOPE  C315 5535   8.102   2.043   4.371  0.5520 -0.9297  0.5484
   43DOPE  H15X 5536   8.003   1.992   4.374  0.1099 -0.3788 -2.1176
   43DOPE  H15Y 5537   8.084   2.150   4.398  1.6949 -0.1617 -1.5191
   43DOPE  C316 5538   8.193   1.982   4.478 -0.1597 -0.2667 -0.5039
   43DOPE  H16X 5539   8.285   2.043   4.482 -0.1194 -0.4052  2.4194
   43DOPE  H16Y 5540   8.222   1.880   4.444  0.9988 -0.5545  1.2053
   43DOPE  C317 5541   8.125   1.948   4.611  0.4313  0.2300 -0.3800
   43DOPE  H17X 5542   8.187   1.939   4.703  1.2154  0.5959 -0.8545
   43DOPE  H17Y 5543   8.072   2.045   4.623 -0.2226 -0.2834  1.0169
   43DOPE  C318 5544   8.044   1.816   4.607  0.2720  0.2800  0.1252
   43DOPE  H18X 5545   7.976   1.820   4.520  1.9446 -1.7218 -1.4061
   43DOPE  H18Y 5546   8.107   1.724   4.596  0.0737 -0.0005  1.2522
   43DOPE  H18Z 5547   7.975   1.812   4.693 -2.1406 -0.4657 -1.7199
   44DOPE     N 5548   2.421   7.489   2.879 -0.0481  0.1392 -0.4029
   44DOPE   HN1 5549   2.440   7.387   2.885 -0.2153  0.1937  1.5729
   44DOPE   HN2 5550   2.428   7.534   2.972  2.1750  0.4223 -0.6613
   44DOPE   HN3 5551   2.323   7.503   2.845  0.0649  0.8430 -0.4479
   44DOPE   C12 5552   2.514   7.571   2.801 -0.0235  0.3772  0.0656
   44DOPE  H12A 5553   2.464   7.666   2.772  0.5635  0.1026 -1.9792
   44DOPE  H12B 5554   2.549   7.518   2.710  1.4514  0.1832  0.7218
   44DOPE   C11 5555   2.637   7.604   2.895  0.1184  0.3670 -0.5516
   44DOPE  H11A 5556   2.720   7.656   2.843 -1.4459  1.2768 -2.2402
   44DOPE  H11B 5557   2.675   7.505   2.930 -0.9055  0.6009  1.3407
   44DOPE     P 5558   2.590   7.838   2.988  0.4545  0.4517  0.0281
   44DOPE   O13 5559   2.454   7.884   3.031  0.3294  0.5617  0.2409
   44DOPE   O14 5560   2.637   7.876   2.855 -0.3965  0.1361 -0.9956
   44DOPE   O11 5561   2.695   7.890   3.095 -0.0801 -0.1433 -0.5283
   44DOPE   O12 5562   2.599   7.678   3.006 -0.2091 -0.0223 -0.0862
   44DOPE    C1 5563   2.784   7.812   3.167  0.1209 -0.0093  0.1100
   44DOPE    HA 5564   2.886   7.815   3.125  0.3521 -0.8388  0.5975
   44DOPE    HB 5565   2.756   7.704   3.165 -0.3868  0.1235 -0.3901
   44DOPE    C2 5566   2.783   7.858   3.319  0.1113 -0.1790  0.1324
   44DOPE    HS 5567   2.862   7.798   3.368  0.3572 -0.1680 -0.2517
   44DOPE   O21 5568   2.661   7.840   3.392 -0.3909  0.4379 -0.1362
   44DOPE   C21 5569   2.621   7.715   3.414 -0.2169 -0.2037  0.1177
   44DOPE   O22 5570   2.685   7.616   3.390  0.0320 -0.0167 -0.2532
   44DOPE   C22 5571   2.486   7.721   3.486 -0.5441  0.8762  0.1066
   44DOPE   H2R 5572   2.461   7.619   3.523 -0.6160  1.1553  0.8319
   44DOPE   H2S 5573   2.407   7.761   3.419 -0.8513  0.2593  0.0927
   44DOPE    C3 5574   2.831   8.005   3.339  0.9173  0.5676  0.8866
   44DOPE    HX 5575   2.749   8.060   3.289 -1.5873  0.2289  4.2195
   44DOPE    HY 5576   2.928   8.031   3.292  0.3622 -0.7272 -1.1182
   44DOPE   O31 5577   2.817   8.059   3.470 -0.0406 -0.1214  0.5715
   44DOPE   C31 5578   2.925   8.032   3.548 -0.3278 -0.3199 -0.1029
   44DOPE   O32 5579   3.009   7.949   3.516  0.0803  0.5534  0.2952
   44DOPE   C32 5580   2.912   8.102   3.680  0.0908 -0.0521  0.1233
   44DOPE   H2X 5581   2.961   8.199   3.657 -0.9190  0.4177 -0.1106
   44DOPE   H2Y 5582   2.806   8.115   3.712 -0.1005 -0.0268 -0.5052
   44DOPE   C23 5583   2.513   7.800   3.618 -0.0144 -0.1013 -0.0659
   44DOPE   H3R 5584   2.419   7.825   3.672  0.1599  0.1486  0.1220
   44DOPE   H3S 5585   2.557   7.901   3.600  0.2532 -0.0019  1.1015
   44DOPE   C24 5586   2.583   7.720   3.728 -0.1703  0.0887 -0.3734
   44DOPE   H4R 5587   2.684   7.690   3.691  0.1291  1.2742 -0.5628
   44DOPE   H4S 5588   2.521   7.632   3.756  1.1882 -1.5389 -2.2156
   44DOPE   C25 5589   2.610   7.808   3.852  0.3671  0.5443  0.0820
   44DOPE   H5R 5590   2.522   7.875   3.861  1.1571  1.7447 -0.7897
   44DOPE   H5S 5591   2.698   7.874   3.835 -1.0573  2.0112 -2.1865
   44DOPE   C26 5592   2.638   7.729   3.981  0.3187 -0.0815 -0.0083
   44DOPE   H6R 5593   2.712   7.648   3.965 -2.4948 -2.7052 -0.7217
   44DOPE   H6S 5594   2.539   7.684   4.004  0.5257  0.6974  2.6896
   44DOPE   C27 5595   2.673   7.824   4.090  0.3504  0.0131 -0.5917
   44DOPE   H7R 5596   2.585   7.880   4.127 -0.1440 -0.9242 -0.3201
   44DOPE   H7S 5597   2.743   7.900   4.049 -0.0731  0.7198 -0.0229
   44DOPE   C28 5598   2.731   7.757   4.220 -0.6424  0.4164  0.3839
   44DOPE   H8R 5599   2.672   7.668   4.250 -1.9337  1.5924  1.5110
   44DOPE   H8S 5600   2.713   7.830   4.302 -3.5583  0.0115  0.2293
   44DOPE   C29 5601   2.881   7.731   4.222 -0.0434  0.4135  0.7566
   44DOPE   H9R 5602   2.903   7.628   4.189 -2.3022 -0.5635  2.0629
   44DOPE  C210 5603   2.983   7.808   4.262 -0.0655 -0.4405  0.3055
   44DOPE  H10R 5604   3.082   7.761   4.248 -1.6012 -3.5749 -1.2032
   44DOPE  C211 5605   2.984   7.939   4.332  0.3447 -0.0066  0.0489
   44DOPE  H11R 5606   2.879   7.971   4.349  0.4442 -0.9335  2.8603
   44DOPE  H11S 5607   3.029   8.020   4.271  1.1428 -0.9729 -0.6781
   44DOPE  C212 5608   3.065   7.929   4.460  0.1918  0.2022  0.2934
   44DOPE  H12R 5609   3.052   7.834   4.517  1.0005  0.1614  0.4291
   44DOPE  H12S 5610   3.033   8.013   4.525  1.1801  0.8981 -0.0976
   44DOPE  C213 5611   3.220   7.939   4.438 -0.0417 -0.6056  0.4321
   44DOPE  H13R 5612   3.245   8.045   4.461  1.2996 -0.9852  0.8362
   44DOPE  H13S 5613   3.255   7.920   4.335 -0.9325  2.2579 -0.4871
   44DOPE  C214 5614   3.301   7.873   4.547 -0.2787 -0.1999 -0.6848
   44DOPE  H14R 5615   3.269   7.767   4.549 -1.1894 -0.0293 -2.8317
   44DOPE  H14S 5616   3.288   7.921   4.646 -0.5755 -3.9098  1.2556
   44DOPE  C215 5617   3.442   7.873   4.496  0.1664  0.0550  0.2484
   44DOPE  H15R 5618   3.456   7.977   4.458 -0.5280  0.7850  1.9048
   44DOPE  H15S 5619   3.456   7.809   4.406 -1.2598 -2.4920  1.7395
   44DOPE  C216 5620   3.539   7.837   4.609 -0.0676 -0.4947  0.4205
   44DOPE  H16R 5621   3.521   7.909   4.691 -0.5350  1.4210 -1.2959
   44DOPE  H16S 5622   3.646   7.847   4.580  0.5871 -2.3324  1.9424
   44DOPE  C217 5623   3.527   7.687   4.656 -0.2231  0.4124  0.2405
   44DOPE  H17R 5624   3.498   7.631   4.564  1.7829 -1.2879  0.5735
   44DOPE  H17S 5625   3.446   7.671   4.730  0.3044 -0.8209  0.5743
   44DOPE  C218 5626   3.660   7.633   4.710  0.4555  0.0751  0.8981
   44DOPE  H18R 5627   3.644   7.535   4.759  1.5325 -1.0649 -0.9079
   44DOPE  H18S 5628   3.696   7.704   4.788  1.6893 -1.4760  1.7993
   44DOPE  H18T 5629   3.734   7.622   4.627  0.3239 -0.4140  0.8391
   44DOPE   C33 5630   2.998   8.024   3.785 -0.2109 -0.0436 -0.3241
   44DOPE   H3X 5631   3.099   8.015   3.739 -1.0253  0.5164 -2.3434
   44DOPE   H3Y 5632   2.972   7.921   3.816  1.1157  0.0583  1.3264
   44DOPE   C34 5633   3.026   8.113   3.910  0.0927  0.1501  0.3563
   44DOPE   H4X 5634   3.017   8.216   3.868 -0.0148  0.5253  1.2814
   44DOPE   H4Y 5635   2.951   8.098   3.990 -1.6016  1.8468 -0.8089
   44DOPE   C35 5636   3.170   8.094   3.969 -0.8375  0.3099 -0.6375
   44DOPE   H5X 5637   3.238   8.084   3.882 -1.9555 -3.5947 -1.2624
   44DOPE   H5Y 5638   3.161   7.993   4.015 -1.2373 -0.0236 -1.4373
   44DOPE   C36 5639   3.197   8.191   4.084  0.2172  1.5998 -0.3156
   44DOPE   H6X 5640   3.127   8.180   4.170  1.5309 -2.7782  0.4751
   44DOPE   H6Y 5641   3.187   8.296   4.051 -3.2003  1.4067 -0.2682
   44DOPE   C37 5642   3.335   8.162   4.152 -0.0294 -0.1697 -0.1702
   44DOPE   H7X 5643   3.332   8.064   4.204  0.2667 -1.2816 -2.1418
   44DOPE   H7Y 5644   3.416   8.151   4.077 -0.9918  0.0744 -1.2690
   44DOPE   C38 5645   3.377   8.285   4.248  1.2246  0.3506  0.0498
   44DOPE   H8X 5646   3.282   8.319   4.295  2.0774  0.9168  1.4046
   44DOPE   H8Y 5647   3.401   8.370   4.181  1.0550 -0.9457 -1.7621
   44DOPE   C39 5648   3.473   8.233   4.345 -0.4405  0.3970  0.6616
   44DOPE   H9X 5649   3.509   8.133   4.314 -0.1565  0.8333 -0.4802
   44DOPE  C310 5650   3.487   8.272   4.470 -0.5227 -0.5903  0.1808
   44DOPE  H10X 5651   3.570   8.219   4.516  0.1589  1.0715  0.9545
   44DOPE  C311 5652   3.433   8.389   4.552  0.8838  0.0803  0.2015
   44DOPE  H11X 5653   3.433   8.483   4.493 -2.5647  0.1210  0.0772
   44DOPE  H11Y 5654   3.325   8.369   4.571  0.7411 -0.0395 -0.7071
   44DOPE  C312 5655   3.484   8.384   4.693  0.3800 -0.5343 -0.0261
   44DOPE  H12X 5656   3.451   8.475   4.748  1.8673  0.9949 -1.5353
   44DOPE  H12Y 5657   3.595   8.376   4.693  0.4031 -0.2584 -0.5536
   44DOPE  C313 5658   3.427   8.274   4.781  0.4390  0.5556  0.0452
   44DOPE  H13X 5659   3.318   8.266   4.766  0.8414 -2.1119 -2.3061
   44DOPE  H13Y 5660   3.457   8.175   4.740 -0.5936  1.4571 -3.1754
   44DOPE  C314 5661   3.448   8.284   4.937  0.1252 -0.2145  0.7744
   44DOPE  H14X 5662   3.409   8.385   4.962 -0.3031  0.0864 -1.0089
   44DOPE  H14Y 5663   3.554   8.284   4.970  0.1647  1.2726  0.7470
   44DOPE  C315 5664   3.363   8.187   5.014 -0.5714  0.8250 -0.1329
   44DOPE  H15X 5665   3.255   8.201   4.991 -0.6469  1.4178  0.5422
   44DOPE  H15Y 5666   3.390   8.194   5.121  0.4102  0.2612 -0.3328
   44DOPE  C316 5667   3.402   8.039   4.972 -0.0239 -0.5580 -0.3110
   44DOPE  H16X 5668   3.513   8.049   4.973 -0.0075 -0.5995 -1.1583
   44DOPE  H16Y 5669   3.376   8.028   4.865  3.1713  0.6475 -1.3383
   44DOPE  C317 5670   3.354   7.936   5.073  0.3603  0.2458  0.1548
   44DOPE  H17X 5671   3.352   7.965   5.180  1.1928 -0.2449  0.3138
   44DOPE  H17Y 5672   3.246   7.920   5.057  0.7895 -0.4330 -2.5823
   44DOPE  C318 5673   3.429   7.798   5.062  0.4157 -1.2122  0.7943
   44DOPE  H18X 5674   3.359   7.719   5.096 -0.9481 -0.2472  0.3230
   44DOPE  H18Y 5675   3.459   7.781   4.957  2.3672 -1.0519  1.2914
   44DOPE  H18Z 5676   3.517   7.792   5.129 -1.0561 -1.4858  2.8174
   45DOPE     N 5677   2.959   7.657   2.418 -0.1371  0.0669  0.4591
   45DOPE   HN1 5678   2.964   7.761   2.420  0.4488  0.0487  3.2805
   45DOPE   HN2 5679   3.054   7.614   2.412 -0.6330 -1.0877  0.6417
   45DOPE   HN3 5680   2.908   7.608   2.341  1.4662  0.0439 -0.6485
   45DOPE   C12 5681   2.892   7.610   2.546  0.4855 -0.0463 -0.3818
   45DOPE  H12A 5682   2.793   7.660   2.557  1.3028  2.0866 -1.9868
   45DOPE  H12B 5683   2.958   7.653   2.624  3.4697  1.5686 -3.5236
   45DOPE   C11 5684   2.884   7.459   2.563 -0.3867 -0.2560 -0.8279
   45DOPE  H11A 5685   2.975   7.400   2.536 -1.2960 -1.3848 -1.5512
   45DOPE  H11B 5686   2.817   7.416   2.484 -1.0248  3.0837 -2.2561
   45DOPE     P 5687   2.917   7.317   2.782  0.1649 -0.2201  0.1585
   45DOPE   O13 5688   3.026   7.251   2.711 -0.0711 -0.0924 -0.4889
   45DOPE   O14 5689   2.811   7.231   2.847  0.3096  0.0625 -1.3040
   45DOPE   O11 5690   2.978   7.402   2.902  0.6205  0.1010  0.2720
   45DOPE   O12 5691   2.834   7.421   2.697 -0.2664 -0.6927 -0.1980
   45DOPE    C1 5692   3.044   7.524   2.880  0.4294 -0.4033 -0.0259
   45DOPE    HA 5693   2.968   7.599   2.849 -0.4855 -1.5205 -0.5503
   45DOPE    HB 5694   3.111   7.515   2.792  1.7592 -1.4011  1.0421
   45DOPE    C2 5695   3.118   7.574   3.005  0.6586  0.6439  0.8618
   45DOPE    HS 5696   3.215   7.521   3.012  0.5335  0.1387 -0.7656
   45DOPE   O21 5697   3.041   7.571   3.130  0.4217 -0.1944  0.4502
   45DOPE   C21 5698   3.097   7.495   3.224  0.1878 -0.3970  0.7267
   45DOPE   O22 5699   3.194   7.423   3.209  0.1257  0.0465 -0.1388
   45DOPE   C22 5700   3.012   7.491   3.349  0.7056 -0.2242 -0.1947
   45DOPE   H2R 5701   2.906   7.490   3.317  0.5962  1.0715  0.0731
   45DOPE   H2S 5702   3.047   7.572   3.416  0.6340 -1.6634  1.6519
   45DOPE    C3 5703   3.155   7.727   2.982  0.0428  0.5844  0.8507
   45DOPE    HX 5704   3.066   7.785   2.949  1.2523  2.7850  1.2140
   45DOPE    HY 5705   3.231   7.731   2.902  0.8383  0.8405  1.6035
   45DOPE   O31 5706   3.206   7.793   3.104 -0.4405 -0.1467  0.2833
   45DOPE   C31 5707   3.189   7.925   3.101  0.1492 -0.1779  0.4898
   45DOPE   O32 5708   3.127   7.982   3.010 -0.5996  0.0240 -0.6330
   45DOPE   C32 5709   3.267   7.988   3.217 -0.3724  0.2011  0.2492
   45DOPE   H2X 5710   3.207   7.965   3.307 -1.2190  0.6013 -0.2083
   45DOPE   H2Y 5711   3.368   7.942   3.225  0.9461  3.0111  1.2038
   45DOPE   C23 5712   3.040   7.356   3.433 -0.7149 -0.0901 -0.0843
   45DOPE   H3R 5713   3.147   7.326   3.430 -0.4823  0.7389 -0.5530
   45DOPE   H3S 5714   2.978   7.278   3.385 -1.9542  0.9784 -0.2831
   45DOPE   C24 5715   2.996   7.365   3.583 -0.2899  0.6238  0.4766
   45DOPE   H4R 5716   2.985   7.263   3.625 -0.5074  0.4985  0.1216
   45DOPE   H4S 5717   2.898   7.415   3.595 -2.2659 -3.2334  2.1809
   45DOPE   C25 5718   3.093   7.451   3.668  0.3584 -0.7771  0.7955
   45DOPE   H5R 5719   3.066   7.558   3.657  2.5226 -0.2207  0.5118
   45DOPE   H5S 5720   3.198   7.445   3.631  0.4238 -0.5968  0.9519
   45DOPE   C26 5721   3.100   7.411   3.816 -0.1033 -0.6456 -0.5463
   45DOPE   H6R 5722   3.141   7.308   3.822 -1.7124 -1.2683  0.7007
   45DOPE   H6S 5723   2.995   7.401   3.853  0.1567  1.2612  0.8709
   45DOPE   C27 5724   3.195   7.503   3.900  1.0545 -0.7301 -0.0140
   45DOPE   H7R 5725   3.146   7.603   3.892 -1.1827 -1.8969 -2.5946
   45DOPE   H7S 5726   3.296   7.513   3.855  0.4001  0.1765 -1.3628
   45DOPE   C28 5727   3.217   7.452   4.043 -0.7643 -0.6295 -0.6856
   45DOPE   H8R 5728   3.262   7.350   4.039 -0.4815 -0.5561  0.4024
   45DOPE   H8S 5729   3.118   7.448   4.092  0.0201 -0.0896  1.0316
   45DOPE   C29 5730   3.288   7.552   4.129 -0.7500 -0.0705 -0.1926
   45DOPE   H9R 5731   3.326   7.637   4.070 -1.8165 -0.8695 -2.1300
   45DOPE  C210 5732   3.318   7.543   4.261 -0.4456 -0.4473  0.4645
   45DOPE  H10R 5733   3.368   7.626   4.313 -1.2044  0.7162 -0.6077
   45DOPE  C211 5734   3.293   7.424   4.353  0.2204 -0.4483  0.0409
   45DOPE  H11R 5735   3.384   7.391   4.408 -0.1586  1.2211  1.7786
   45DOPE  H11S 5736   3.266   7.334   4.294 -0.3816 -0.1956 -0.0788
   45DOPE  C212 5737   3.196   7.457   4.470 -0.3747 -0.1233  0.6073
   45DOPE  H12R 5738   3.100   7.483   4.421 -0.4484 -3.0936 -1.0892
   45DOPE  H12S 5739   3.232   7.545   4.528  0.0331 -0.4557  0.8671
   45DOPE  C213 5740   3.188   7.347   4.571  0.0709 -0.1341  0.0764
   45DOPE  H13R 5741   3.291   7.332   4.611 -0.6392 -1.1486  1.6183
   45DOPE  H13S 5742   3.156   7.247   4.534 -1.8101 -0.6171  2.6734
   45DOPE  C214 5743   3.081   7.382   4.675  0.2275  0.5724 -1.0071
   45DOPE  H14R 5744   2.977   7.384   4.635 -0.2363  0.3675  0.1371
   45DOPE  H14S 5745   3.098   7.478   4.728  2.2520 -1.7483  3.0035
   45DOPE  C215 5746   3.081   7.270   4.780 -0.8564 -0.0651 -1.3648
   45DOPE  H15R 5747   3.058   7.174   4.728  2.6504 -0.6568 -2.0704
   45DOPE  H15S 5748   2.993   7.287   4.846 -1.2593 -3.1229 -0.9735
   45DOPE  C216 5749   3.210   7.252   4.865  0.4834  0.3643  0.2824
   45DOPE  H16R 5750   3.296   7.217   4.805  0.4004 -0.7510  0.8000
   45DOPE  H16S 5751   3.197   7.167   4.935 -0.3059  2.3808  2.7737
   45DOPE  C217 5752   3.244   7.376   4.943  0.4704  0.7361 -0.1330
   45DOPE  H17R 5753   3.161   7.397   5.013  1.4468 -1.1333  1.7257
   45DOPE  H17S 5754   3.258   7.463   4.875 -1.4724  0.9821 -0.2782
   45DOPE  C218 5755   3.378   7.365   5.016 -0.3465  0.0247 -0.3438
   45DOPE  H18R 5756   3.385   7.274   5.079 -0.9389  1.6952  2.3562
   45DOPE  H18S 5757   3.381   7.452   5.086 -3.4345 -1.3132  1.7020
   45DOPE  H18T 5758   3.459   7.354   4.941 -1.0270  1.0776 -1.2712
   45DOPE   C33 5759   3.279   8.138   3.188 -0.4841 -0.0244  0.4221
   45DOPE   H3X 5760   3.177   8.177   3.167 -0.6823 -0.8789 -0.2981
   45DOPE   H3Y 5761   3.345   8.151   3.099  3.1602  0.2706  2.9561
   45DOPE   C34 5762   3.332   8.223   3.299  0.1352 -0.0052 -0.0708
   45DOPE   H4X 5763   3.436   8.192   3.322  1.4437  2.8457 -1.5580
   45DOPE   H4Y 5764   3.336   8.329   3.266 -1.1793  0.5177  1.3361
   45DOPE   C35 5765   3.250   8.229   3.429 -0.8070  0.6421 -0.4620
   45DOPE   H5X 5766   3.241   8.127   3.471 -1.2848  1.3995  1.4151
   45DOPE   H5Y 5767   3.152   8.276   3.405  0.1123  1.7118 -2.3719
   45DOPE   C36 5768   3.319   8.314   3.544  0.6151 -0.5234  0.8299
   45DOPE   H6X 5769   3.235   8.334   3.615  0.4732 -0.0648  0.5409
   45DOPE   H6Y 5770   3.357   8.411   3.504  3.2191 -2.2658 -1.2095
   45DOPE   C37 5771   3.433   8.242   3.619 -0.1335 -0.1533 -0.1645
   45DOPE   H7X 5772   3.387   8.155   3.670 -0.7766  0.0975 -0.3082
   45DOPE   H7Y 5773   3.518   8.213   3.553 -0.0146  0.1204 -0.1344
   45DOPE   C38 5774   3.490   8.328   3.736 -0.1125 -0.3867  0.0635
   45DOPE   H8X 5775   3.566   8.264   3.787  0.7833 -0.9368 -1.8816
   45DOPE   H8Y 5776   3.411   8.340   3.813 -0.5061 -2.1004 -0.0316
   45DOPE   C39 5777   3.556   8.459   3.705 -1.0205  0.3603  0.5455
   45DOPE   H9X 5778   3.587   8.460   3.599 -0.3449  1.9676  0.7274
   45DOPE  C310 5779   3.605   8.554   3.788  0.4134 -0.1176 -0.0570
   45DOPE  H10X 5780   3.635   8.653   3.750 -1.2581  0.3782 -0.1542
   45DOPE  C311 5781   3.579   8.550   3.935  0.0123 -0.4235 -0.9125
   45DOPE  H11X 5782   3.506   8.630   3.962  0.5940  0.5433 -2.0785
   45DOPE  H11Y 5783   3.549   8.449   3.970  1.4843 -0.9986 -1.2268
   45DOPE  C312 5784   3.705   8.572   4.011 -0.1973  0.3143 -0.2207
   45DOPE  H12X 5785   3.755   8.665   3.976  0.7088 -0.3777 -0.8272
   45DOPE  H12Y 5786   3.784   8.497   3.989 -0.5315  0.6366 -2.8336
   45DOPE  C313 5787   3.694   8.572   4.168 -0.6412 -0.3011 -0.3378
   45DOPE  H13X 5788   3.637   8.662   4.201  0.3972 -0.2805  1.5098
   45DOPE  H13Y 5789   3.644   8.488   4.221 -1.7988  0.4736 -0.1676
   45DOPE  C314 5790   3.834   8.587   4.235 -0.5559 -0.2262  0.0892
   45DOPE  H14X 5791   3.813   8.632   4.335 -3.0317 -1.1484  0.0534
   45DOPE  H14Y 5792   3.900   8.658   4.181 -1.0510  1.4745  1.6017
   45DOPE  C315 5793   3.910   8.460   4.254 -0.3776  0.2571 -0.4089
   45DOPE  H15X 5794   3.945   8.429   4.153  0.3339 -0.7178  0.1174
   45DOPE  H15Y 5795   3.851   8.380   4.303  0.7646 -0.4710 -0.1937
   45DOPE  C316 5796   4.029   8.491   4.339  0.0597 -0.8485  0.2456
   45DOPE  H16X 5797   4.003   8.531   4.440 -0.2823 -0.2670 -0.0728
   45DOPE  H16Y 5798   4.092   8.568   4.291 -0.5113 -0.3573  0.2841
   45DOPE  C317 5799   4.118   8.371   4.362  0.4631  0.2396 -0.1078
   45DOPE  H17X 5800   4.068   8.297   4.428  0.5716  1.5005  1.4402
   45DOPE  H17Y 5801   4.135   8.313   4.269  0.6612 -1.6216  1.0385
   45DOPE  C318 5802   4.251   8.408   4.434  0.0540 -0.3995 -0.1449
   45DOPE  H18X 5803   4.297   8.499   4.390 -0.1206  0.5342  1.5427
   45DOPE  H18Y 5804   4.237   8.424   4.543  1.3772 -1.4932  0.2206
   45DOPE  H18Z 5805   4.322   8.323   4.419  1.8189  0.9306  0.4532
   46DOPE     N 5806   4.729   7.419   1.793  0.4645  0.1185  0.1717
   46DOPE   HN1 5807   4.715   7.319   1.816  1.8398 -0.2539 -0.4706
   46DOPE   HN2 5808   4.713   7.465   1.885 -0.4414 -0.4572  0.3092
   46DOPE   HN3 5809   4.658   7.450   1.724  1.4977  1.0542 -0.5106
   46DOPE   C12 5810   4.865   7.437   1.735 -0.2431  0.1622 -0.1962
   46DOPE  H12A 5811   4.876   7.544   1.710 -0.7301  0.2113 -0.2218
   46DOPE  H12B 5812   4.874   7.378   1.641  1.2789 -1.3800  0.8475
   46DOPE   C11 5813   4.965   7.388   1.840 -0.3393 -0.9442  0.5514
   46DOPE  H11A 5814   5.062   7.398   1.788  0.7559  0.8777  2.7324
   46DOPE  H11B 5815   4.944   7.280   1.857  1.2304 -1.1224  1.5934
   46DOPE     P 5816   4.946   7.413   2.099  0.2379  0.1613  0.0639
   46DOPE   O13 5817   4.912   7.270   2.086  0.3452  0.0746 -0.3015
   46DOPE   O14 5818   4.844   7.494   2.167  0.2026 -0.3686  0.1100
   46DOPE   O11 5819   5.088   7.443   2.166  0.7705  0.4212  0.3529
   46DOPE   O12 5820   4.970   7.472   1.957 -0.7925  0.0782 -0.0177
   46DOPE    C1 5821   5.138   7.364   2.275  0.1268  0.8871  0.2096
   46DOPE    HA 5822   5.248   7.382   2.284  1.0593 -2.8450 -1.5990
   46DOPE    HB 5823   5.128   7.255   2.256  0.2224  0.8646  0.2846
   46DOPE    C2 5824   5.076   7.403   2.408  0.7270 -0.3241 -0.6164
   46DOPE    HS 5825   5.139   7.377   2.496 -0.5577  0.6515  0.6373
   46DOPE   O21 5826   4.939   7.354   2.422  0.3254  0.0538 -0.0459
   46DOPE   C21 5827   4.933   7.233   2.475 -0.2560  0.6453 -0.0063
   46DOPE   O22 5828   5.030   7.160   2.487 -0.1690  0.2948 -0.4527
   46DOPE   C22 5829   4.785   7.196   2.487  0.1366 -0.0022 -0.2972
   46DOPE   H2R 5830   4.748   7.190   2.382  3.3600 -0.7150 -1.5415
   46DOPE   H2S 5831   4.728   7.276   2.539  1.1897  0.0211  0.8620
   46DOPE    C3 5832   5.071   7.556   2.426  0.3980  0.4731 -0.4933
   46DOPE    HX 5833   4.977   7.586   2.374 -1.7417 -1.7713  1.7679
   46DOPE    HY 5834   5.154   7.603   2.369  0.2011 -0.1506 -1.3183
   46DOPE   O31 5835   5.060   7.597   2.567  0.1730 -0.3174 -0.0450
   46DOPE   C31 5836   4.940   7.637   2.616 -0.1239  0.4709  0.4739
   46DOPE   O32 5837   4.843   7.672   2.545  0.3215  0.0538  0.4129
   46DOPE   C32 5838   4.944   7.631   2.765 -0.4774  0.3687 -0.0619
   46DOPE   H2X 5839   5.044   7.656   2.806 -0.6458 -1.8873  1.9381
   46DOPE   H2Y 5840   4.866   7.704   2.798  0.2822  1.8607 -1.4635
   46DOPE   C23 5841   4.772   7.058   2.543 -0.3385 -0.3260 -0.0368
   46DOPE   H3R 5842   4.833   6.983   2.489  0.7790  1.6453 -1.6766
   46DOPE   H3S 5843   4.666   7.027   2.532 -1.0982  1.7931  0.7231
   46DOPE   C24 5844   4.806   7.041   2.692  0.3630 -0.1052  0.0709
   46DOPE   H4R 5845   4.910   7.077   2.704 -0.1084  0.5109  2.7757
   46DOPE   H4S 5846   4.803   6.934   2.723  1.3575  0.2766  1.5951
   46DOPE   C25 5847   4.707   7.123   2.783 -0.3979 -0.3603  0.2931
   46DOPE   H5R 5848   4.607   7.094   2.744 -0.6755  0.0059  0.7347
   46DOPE   H5S 5849   4.723   7.229   2.755 -2.0028 -0.4500 -1.1842
   46DOPE   C26 5850   4.723   7.109   2.931 -0.4544 -0.1341  0.3052
   46DOPE   H6R 5851   4.823   7.136   2.973  0.0200 -1.0653 -0.1878
   46DOPE   H6S 5852   4.716   7.003   2.964 -0.8410  0.0149  0.7167
   46DOPE   C27 5853   4.622   7.196   3.010  0.1137  0.8692  0.4903
   46DOPE   H7R 5854   4.613   7.299   2.970 -0.0481  0.2167 -1.2583
   46DOPE   H7S 5855   4.668   7.198   3.112  1.0780  1.1135  0.0683
   46DOPE   C28 5856   4.479   7.130   3.021  0.2571 -0.0669  0.1507
   46DOPE   H8R 5857   4.441   7.114   2.917 -0.2754  0.2231  0.2995
   46DOPE   H8S 5858   4.414   7.206   3.068 -0.2927  1.4769 -2.8805
   46DOPE   C29 5859   4.461   6.995   3.087 -0.7329  0.3820  0.4845
   46DOPE   H9R 5860   4.497   6.911   3.026  1.1361  1.9064 -0.6431
   46DOPE  C210 5861   4.420   6.978   3.209 -0.4598  0.6687 -0.7818
   46DOPE  H10R 5862   4.429   6.880   3.258 -3.4580  1.3734  1.4457
   46DOPE  C211 5863   4.379   7.085   3.315 -0.0417 -0.5591 -0.4666
   46DOPE  H11R 5864   4.281   7.051   3.355 -1.0976  2.1667 -0.5015
   46DOPE  H11S 5865   4.346   7.185   3.277  0.8532  0.1637  0.6242
   46DOPE  C212 5866   4.476   7.112   3.430 -0.3634 -0.6031 -0.2319
   46DOPE  H12R 5867   4.547   7.030   3.452  0.7815  0.2190 -0.7164
   46DOPE  H12S 5868   4.418   7.146   3.518 -0.9222  0.2501 -0.9093
   46DOPE  C213 5869   4.568   7.232   3.400  0.0122  0.3861 -0.1819
   46DOPE  H13R 5870   4.516   7.328   3.378 -1.0745 -0.2986 -0.7019
   46DOPE  H13S 5871   4.628   7.201   3.312 -2.2860 -1.6301 -1.1562
   46DOPE  C214 5872   4.663   7.265   3.520 -0.1810 -0.0408 -0.4231
   46DOPE  H14R 5873   4.689   7.163   3.556 -2.6881 -0.6014 -0.0230
   46DOPE  H14S 5874   4.609   7.323   3.598 -0.6692 -1.4348  0.2973
   46DOPE  C215 5875   4.776   7.347   3.472 -0.1937  0.0130  0.0742
   46DOPE  H15R 5876   4.735   7.449   3.452 -0.3154  0.2771  1.5424
   46DOPE  H15S 5877   4.832   7.302   3.388 -0.2606 -3.3964  1.7046
   46DOPE  C216 5878   4.879   7.367   3.586  0.4691  0.1868  0.2569
   46DOPE  H16R 5879   4.939   7.274   3.600 -2.1052 -1.8288 -1.3100
   46DOPE  H16S 5880   4.825   7.384   3.682 -0.5336  0.3367 -0.3278
   46DOPE  C217 5881   4.938   7.510   3.569 -0.6936  0.4864  0.4281
   46DOPE  H17R 5882   4.858   7.587   3.556 -0.0799  0.7720 -2.3268
   46DOPE  H17S 5883   5.003   7.506   3.479  1.1736 -0.3937  1.7470
   46DOPE  C218 5884   5.021   7.552   3.686  0.6315 -0.4774 -0.8686
   46DOPE  H18R 5885   4.950   7.566   3.770  2.1348 -0.3562  0.4496
   46DOPE  H18S 5886   5.085   7.641   3.667 -0.1399 -0.0575 -1.5445
   46DOPE  H18T 5887   5.094   7.474   3.715  0.2187 -0.4402  0.2919
   46DOPE   C33 5888   4.898   7.488   2.810  0.5083 -0.3262  0.3367
   46DOPE   H3X 5889   4.974   7.411   2.784  0.2479  0.0198 -1.5966
   46DOPE   H3Y 5890   4.812   7.452   2.750  1.7668 -2.6694 -0.1929
   46DOPE   C34 5891   4.868   7.489   2.963  0.8270 -0.5147  0.1134
   46DOPE   H4X 5892   4.833   7.384   2.974 -0.3026 -0.0941  0.7681
   46DOPE   H4Y 5893   4.955   7.513   3.028 -0.2205 -0.6527  1.6235
   46DOPE   C35 5894   4.749   7.578   3.002  0.2560 -0.2442  0.1861
   46DOPE   H5X 5895   4.658   7.558   2.943  0.0768 -1.4092  0.8184
   46DOPE   H5Y 5896   4.784   7.681   2.981 -1.0603 -0.1641 -1.7743
   46DOPE   C36 5897   4.725   7.565   3.154  0.2508 -0.2541 -0.2330
   46DOPE   H6X 5898   4.813   7.597   3.214 -0.3692  1.7603 -0.2921
   46DOPE   H6Y 5899   4.707   7.458   3.177  0.8238  0.0838  1.9720
   46DOPE   C37 5900   4.607   7.656   3.201 -0.5072  0.0853  0.5615
   46DOPE   H7X 5901   4.626   7.762   3.173  1.6920 -0.4536 -0.1956
   46DOPE   H7Y 5902   4.522   7.627   3.135 -1.0395  1.5405  0.5671
   46DOPE   C38 5903   4.578   7.648   3.347  0.1778  0.6439  0.1828
   46DOPE   H8X 5904   4.669   7.679   3.403  0.1730 -0.9572  1.1438
   46DOPE   H8Y 5905   4.566   7.539   3.366  0.3579  0.5651 -0.1418
   46DOPE   C39 5906   4.453   7.727   3.390 -0.1403 -0.6996 -0.8027
   46DOPE   H9X 5907   4.445   7.833   3.361  3.0535  0.4248  1.7453
   46DOPE  C310 5908   4.358   7.678   3.474 -0.0678  0.0128 -0.0357
   46DOPE  H10X 5909   4.275   7.747   3.498  0.1663  0.3848 -0.2854
   46DOPE  C311 5910   4.343   7.548   3.551  0.3740 -0.1497 -0.8652
   46DOPE  H11X 5911   4.283   7.469   3.501 -1.2417  1.6174 -1.8470
   46DOPE  H11Y 5912   4.446   7.514   3.575  0.7602  0.7197 -1.2533
   46DOPE  C312 5913   4.270   7.585   3.682  0.5323 -0.1984 -0.1924
   46DOPE  H12X 5914   4.236   7.493   3.734 -0.2978  0.7897  1.0720
   46DOPE  H12Y 5915   4.181   7.650   3.670  1.2643  1.5180  2.6438
   46DOPE  C313 5916   4.346   7.668   3.780  0.5448 -0.4306 -0.2107
   46DOPE  H13X 5917   4.452   7.634   3.784  1.3569  1.9530  0.6594
   46DOPE  H13Y 5918   4.338   7.770   3.737 -1.3702 -0.6225 -0.4106
   46DOPE  C314 5919   4.299   7.664   3.930  0.2386  0.0944 -0.2309
   46DOPE  H14X 5920   4.301   7.554   3.950 -1.2396 -0.0946 -1.0007
   46DOPE  H14Y 5921   4.195   7.702   3.933  0.4736  0.6867  1.7471
   46DOPE  C315 5922   4.388   7.747   4.033 -0.5157  0.2545 -0.1512
   46DOPE  H15X 5923   4.327   7.756   4.126  1.8383 -0.3992  1.5331
   46DOPE  H15Y 5924   4.408   7.849   3.994  1.1910  0.0415  0.1124
   46DOPE  C316 5925   4.526   7.690   4.083 -0.4175 -0.3435  0.1688
   46DOPE  H16X 5926   4.608   7.698   4.008  1.3877  0.7295  2.1569
   46DOPE  H16Y 5927   4.504   7.582   4.095  0.9530 -1.0865 -2.9809
   46DOPE  C317 5928   4.570   7.764   4.210  0.7051  0.8215 -0.6089
   46DOPE  H17X 5929   4.485   7.757   4.281  1.0274  1.4664 -0.1533
   46DOPE  H17Y 5930   4.657   7.716   4.260  0.1388 -0.0737 -0.4680
   46DOPE  C318 5931   4.595   7.917   4.201  0.1339 -0.0134  0.7491
   46DOPE  H18X 5932   4.587   7.952   4.306 -0.6095 -1.0432  1.0432
   46DOPE  H18Y 5933   4.698   7.934   4.160 -0.5898  0.2531 -1.0471
   46DOPE  H18Z 5934   4.520   7.978   4.146  1.5938  1.3782  0.1944
   47DOPE     N 5935   1.665   6.163   3.096 -0.6063  0.3924  0.0428
   47DOPE   HN1 5936   1.759   6.146   3.055  1.0845  2.6735  2.5914
   47DOPE   HN2 5937   1.660   6.249   3.154 -2.7884  1.3789 -1.4881
   47DOPE   HN3 5938   1.648   6.086   3.164  0.3280  0.5230  0.4355
   47DOPE   C12 5939   1.570   6.180   2.979  0.9801  0.3778 -0.7995
   47DOPE  H12A 5940   1.621   6.239   2.899 -1.5663  2.4253 -1.0358
   47DOPE  H12B 5941   1.468   6.216   3.003  1.5037  2.0704 -0.9035
   47DOPE   C11 5942   1.532   6.038   2.924  0.2834  0.1041 -0.1542
   47DOPE  H11A 5943   1.620   5.987   2.880  0.7058  2.0969 -1.7583
   47DOPE  H11B 5944   1.468   6.030   2.833 -1.3108 -0.0004  0.9380
   47DOPE     P 5945   1.356   5.873   3.034 -0.1142 -0.2430  0.0383
   47DOPE   O13 5946   1.355   5.755   3.122 -0.1316  0.0253 -0.0630
   47DOPE   O14 5947   1.316   5.849   2.896 -0.3567  0.2042  0.6033
   47DOPE   O11 5948   1.261   5.978   3.088  0.4127  0.5645 -0.4634
   47DOPE   O12 5949   1.494   5.954   3.033 -0.2307 -0.3319  0.1240
   47DOPE    C1 5950   1.291   6.050   3.206 -0.1042  0.0467 -0.6188
   47DOPE    HA 5951   1.205   6.115   3.234 -0.2981 -0.9487  1.2894
   47DOPE    HB 5952   1.377   6.118   3.187 -2.2487  2.8489 -0.9261
   47DOPE    C2 5953   1.320   5.967   3.335  0.7669  0.8637 -0.6675
   47DOPE    HS 5954   1.408   5.901   3.314 -0.8639 -1.2148 -1.3417
   47DOPE   O21 5955   1.204   5.893   3.388 -0.1620 -0.1069 -0.2201
   47DOPE   C21 5956   1.210   5.770   3.439 -0.2461  0.1496 -0.2393
   47DOPE   O22 5957   1.313   5.707   3.443 -0.0080  0.2962  0.0106
   47DOPE   C22 5958   1.075   5.720   3.481  0.3249 -0.1735 -0.1563
   47DOPE   H2R 5959   1.017   5.713   3.386  2.3313  0.4295 -1.5004
   47DOPE   H2S 5960   1.029   5.798   3.545  1.8998  0.6939 -0.0213
   47DOPE    C3 5961   1.367   6.063   3.451 -0.2649  0.1052  0.4375
   47DOPE    HX 5962   1.301   6.152   3.448  1.2297  1.2990  1.2750
   47DOPE    HY 5963   1.469   6.098   3.426 -0.2782  0.1605  0.4608
   47DOPE   O31 5964   1.361   6.002   3.578  0.0327  0.0333  0.0817
   47DOPE   C31 5965   1.455   5.910   3.601 -0.3869  0.3032 -0.0840
   47DOPE   O32 5966   1.551   5.897   3.533  0.1347  0.0885 -0.4472
   47DOPE   C32 5967   1.420   5.835   3.736 -0.8708  0.7438  0.2562
   47DOPE   H2X 5968   1.309   5.842   3.738 -1.2115 -2.1577 -2.1769
   47DOPE   H2Y 5969   1.452   5.731   3.715  1.4131  1.7307 -1.6730
   47DOPE   C23 5970   1.068   5.583   3.552 -0.2676 -0.5328  0.4018
   47DOPE   H3R 5971   1.141   5.577   3.636  0.6480  0.6377 -0.2785
   47DOPE   H3S 5972   1.099   5.502   3.482 -0.5539 -3.2003  3.1603
   47DOPE   C24 5973   0.927   5.543   3.587  0.9892  0.5349 -0.2323
   47DOPE   H4R 5974   0.870   5.531   3.492  0.2192 -1.3155  0.4315
   47DOPE   H4S 5975   0.875   5.626   3.639  0.0598  0.9367 -1.7144
   47DOPE   C25 5976   0.919   5.406   3.657 -0.0283  0.1363 -0.8085
   47DOPE   H5R 5977   0.964   5.417   3.758  0.0116  2.5489 -1.0177
   47DOPE   H5S 5978   0.973   5.336   3.590 -1.7323 -0.1995 -1.8806
   47DOPE   C26 5979   0.780   5.351   3.676  0.3486  0.3584  0.0973
   47DOPE   H6R 5980   0.790   5.255   3.731 -0.7913 -0.8660 -1.7249
   47DOPE   H6S 5981   0.730   5.330   3.579 -0.2941  1.5423  0.1493
   47DOPE   C27 5982   0.671   5.442   3.744 -0.1928  0.5303 -0.3562
   47DOPE   H7R 5983   0.661   5.536   3.687 -0.5537  0.8484  0.2238
   47DOPE   H7S 5984   0.697   5.481   3.845  0.8946  0.9266 -0.7680
   47DOPE   C28 5985   0.540   5.364   3.752 -0.5680  0.2631  0.4583
   47DOPE   H8R 5986   0.549   5.283   3.828 -0.3235  1.2152  1.4647
   47DOPE   H8S 5987   0.539   5.318   3.651 -0.5388  1.1723  0.0375
   47DOPE   C29 5988   0.413   5.448   3.758  0.3977 -0.8661 -0.3523
   47DOPE   H9R 5989   0.405   5.533   3.689 -0.7926 -0.4675  0.2455
   47DOPE  C210 5990   0.309   5.425   3.844  0.3830  0.1387 -0.2020
   47DOPE  H10R 5991   0.220   5.489   3.843  1.3916  1.5837 -1.0614
   47DOPE  C211 5992   0.311   5.323   3.951  1.1514 -0.0183 -0.1817
   47DOPE  H11R 5993   0.413   5.300   3.987  1.2810 -0.8919 -1.0443
   47DOPE  H11S 5994   0.255   5.231   3.926  1.4934 -0.0565 -0.8557
   47DOPE  C212 5995   0.242   5.391   4.069 -0.9452  0.5637  0.1254
   47DOPE  H12R 5996   0.144   5.437   4.043 -1.4770 -0.4737  0.2384
   47DOPE  H12S 5997   0.308   5.473   4.104  0.3608 -0.2314 -0.3992
   47DOPE  C213 5998   0.231   5.295   4.187 -0.4647 -0.3193 -0.0384
   47DOPE  H13R 5999   0.333   5.256   4.203  0.1992  1.0880 -0.6171
   47DOPE  H13S 6000   0.155   5.219   4.158 -0.2124 -0.7838  0.5084
   47DOPE  C214 6001   0.189   5.374   4.310  0.2070 -0.4670 -0.7774
   47DOPE  H14R 6002   0.081   5.398   4.301  0.2766  0.5116  0.6647
   47DOPE  H14S 6003   0.250   5.465   4.327 -1.5023  0.6838 -0.6186
   47DOPE  C215 6004   0.209   5.290   4.436 -0.6552 -0.5667 -0.0809
   47DOPE  H15R 6005   0.314   5.268   4.465 -0.9681 -0.0414  1.5753
   47DOPE  H15S 6006   0.166   5.191   4.409 -1.1187 -0.3886 -0.0036
   47DOPE  C216 6007   0.137   5.344   4.562 -0.1546  0.1551 -0.0842
   47DOPE  H16R 6008   0.033   5.371   4.535 -0.6813 -2.5293 -1.0912
   47DOPE  H16S 6009   0.183   5.439   4.595 -1.6380  0.3977  1.4462
   47DOPE  C217 6010   0.138   5.246   4.679 -0.0366  0.0408 -0.1987
   47DOPE  H17R 6011   0.240   5.208   4.702 -0.0853 -0.1881 -0.3640
   47DOPE  H17S 6012   0.073   5.160   4.655 -1.3736  0.2816  2.2048
   47DOPE  C218 6013   0.094   5.317   4.811  0.0939 -0.3979 -0.3385
   47DOPE  H18R 6014   0.137   5.264   4.899  1.1229  1.0490  0.0753
   47DOPE  H18S 6015  -0.017   5.323   4.818  0.2345  0.4767  2.3300
   47DOPE  H18T 6016   0.132   5.421   4.802 -2.4237  0.6658  0.3115
   47DOPE   C33 6017   1.465   5.898   3.864 -0.1491  1.1873 -0.0750
   47DOPE   H3X 6018   1.400   5.986   3.883 -2.6623 -1.1287  3.3025
   47DOPE   H3Y 6019   1.572   5.925   3.862  0.1355  0.3547  1.7962
   47DOPE   C34 6020   1.435   5.812   3.986 -0.3516 -0.7287  0.8187
   47DOPE   H4X 6021   1.326   5.801   4.006 -0.6158  0.1696 -0.0879
   47DOPE   H4Y 6022   1.476   5.709   3.980  0.9925 -0.1554 -0.3035
   47DOPE   C35 6023   1.498   5.875   4.110 -0.0170 -0.2333  0.4022
   47DOPE   H5X 6024   1.446   5.970   4.132 -0.7229 -0.0987 -1.6052
   47DOPE   H5Y 6025   1.600   5.907   4.079  1.1700 -2.3624  1.8824
   47DOPE   C36 6026   1.519   5.787   4.230 -0.4124 -0.4739 -0.1543
   47DOPE   H6X 6027   1.590   5.706   4.204  2.4512  1.3549  1.5045
   47DOPE   H6Y 6028   1.428   5.749   4.282 -0.7068 -0.9109 -0.9778
   47DOPE   C37 6029   1.588   5.869   4.342 -0.1870  0.3332 -0.0490
   47DOPE   H7X 6030   1.667   5.937   4.305  1.7980 -2.0320 -0.3963
   47DOPE   H7Y 6031   1.513   5.939   4.385 -0.6844  0.2239 -0.7217
   47DOPE   C38 6032   1.635   5.775   4.459  0.1177  0.3363  0.7032
   47DOPE   H8X 6033   1.698   5.693   4.419 -0.4488  0.3062 -0.1668
   47DOPE   H8Y 6034   1.541   5.727   4.494 -1.8827  0.5974 -3.6251
   47DOPE   C39 6035   1.705   5.852   4.568  0.5124 -0.0555 -1.1205
   47DOPE   H9X 6036   1.759   5.937   4.524  0.8490 -1.2019 -3.0715
   47DOPE  C310 6037   1.726   5.820   4.703 -0.1209 -0.0379  0.4074
   47DOPE  H10X 6038   1.778   5.881   4.778 -0.6692 -0.5013  1.1705
   47DOPE  C311 6039   1.685   5.682   4.755  0.7692 -0.0688 -0.0278
   47DOPE  H11X 6040   1.581   5.654   4.728  0.8563 -0.2251 -0.1979
   47DOPE  H11Y 6041   1.754   5.612   4.703  0.4549 -0.9455  0.7058
   47DOPE  C312 6042   1.699   5.668   4.911 -0.7166 -0.3617  0.7340
   47DOPE  H12X 6043   1.616   5.724   4.957 -1.2193  0.0323 -0.6055
   47DOPE  H12Y 6044   1.800   5.704   4.940 -0.3929 -1.4784  1.0655
   47DOPE  C313 6045   1.716   5.523   4.960  0.1066  0.4370  0.3186
   47DOPE  H13X 6046   1.695   5.532   5.069 -2.0351 -0.7180  0.0739
   47DOPE  H13Y 6047   1.642   5.456   4.911  0.0173  1.1106 -0.4837
   47DOPE  C314 6048   1.847   5.451   4.920 -0.8321  0.4214  0.1669
   47DOPE  H14X 6049   1.869   5.446   4.811  2.8381 -0.2597  0.7935
   47DOPE  H14Y 6050   1.826   5.346   4.949  1.2261  0.1123  0.7115
   47DOPE  C315 6051   1.975   5.506   4.990 -0.1045  0.2427  0.4129
   47DOPE  H15X 6052   2.004   5.605   4.950  0.0467  0.1126  0.1935
   47DOPE  H15Y 6053   2.050   5.424   4.979  0.2273  0.4688  0.9667
   47DOPE  C316 6054   1.978   5.533   5.147  0.0599  0.2662  0.1168
   47DOPE  H16X 6055   1.891   5.591   5.184 -0.1082 -0.9621  1.7292
   47DOPE  H16Y 6056   2.071   5.593   5.159  2.3745 -2.7195 -1.5328
   47DOPE  C317 6057   1.997   5.399   5.223  0.3443 -0.5226  0.5089
   47DOPE  H17X 6058   1.899   5.346   5.213 -0.1447  0.5951 -1.0073
   47DOPE  H17Y 6059   2.068   5.331   5.172  0.5859  0.4046 -0.4494
   47DOPE  C318 6060   2.042   5.404   5.369  0.4643 -0.2642 -0.5050
   47DOPE  H18X 6061   2.069   5.300   5.396 -0.9521 -0.7846 -0.9799
   47DOPE  H18Y 6062   2.126   5.475   5.386  0.0919  0.4043 -1.4040
   47DOPE  H18Z 6063   1.962   5.442   5.437  0.7465 -2.2139  1.0183
   48DOPE     N 6064   3.882   2.383   2.040  0.2362 -0.3845 -0.4242
   48DOPE   HN1 6065   3.860   2.471   2.090 -0.8185 -0.9303  0.1051
   48DOPE   HN2 6066   3.833   2.373   1.949  0.5508 -1.9802 -0.4507
   48DOPE   HN3 6067   3.854   2.304   2.102  3.5880 -1.0803  0.4226
   48DOPE   C12 6068   4.025   2.352   2.032  0.6289  0.0200  0.2954
   48DOPE  H12A 6069   4.083   2.389   2.119  3.5253 -1.8986 -0.6538
   48DOPE  H12B 6070   4.062   2.398   1.938  2.8693 -0.7938  0.7221
   48DOPE   C11 6071   4.051   2.203   2.016  0.7958  0.2993  0.2415
   48DOPE  H11A 6072   4.161   2.187   2.009  0.8148 -1.4605  3.1489
   48DOPE  H11B 6073   4.010   2.163   1.921  1.9189 -0.4728  0.0649
   48DOPE     P 6074   4.025   1.974   2.149 -0.0283 -0.1750 -0.1003
   48DOPE   O13 6075   3.996   1.910   2.019 -0.8412  0.0086 -0.3407
   48DOPE   O14 6076   3.949   1.914   2.260  0.3587  0.0242  0.0169
   48DOPE   O11 6077   4.181   1.965   2.177 -0.1633  0.1975  0.0239
   48DOPE   O12 6078   4.002   2.128   2.126  0.0691  0.2336  0.2181
   48DOPE    C1 6079   4.231   2.058   2.273  0.1616  0.1944  0.2615
   48DOPE    HA 6080   4.152   2.116   2.326 -0.5229 -0.1871 -0.3109
   48DOPE    HB 6081   4.301   2.129   2.224 -0.8970  0.9458 -0.2064
   48DOPE    C2 6082   4.321   1.984   2.383 -0.0377 -0.5623 -0.3625
   48DOPE    HS 6083   4.363   2.069   2.440 -0.0247 -0.7578 -0.0766
   48DOPE   O21 6084   4.428   1.916   2.317  0.0993  0.0557  0.4447
   48DOPE   C21 6085   4.554   1.911   2.375  0.6281 -0.7886 -0.4761
   48DOPE   O22 6086   4.580   1.972   2.477  0.1957 -0.5201  0.3072
   48DOPE   C22 6087   4.651   1.842   2.273  0.3968  0.3947  1.1737
   48DOPE   H2R 6088   4.706   1.918   2.213  1.3443 -0.4344  0.9539
   48DOPE   H2S 6089   4.591   1.764   2.223  1.3203  0.3007  0.1852
   48DOPE    C3 6090   4.238   1.887   2.459  0.4616  0.0437  0.0771
   48DOPE    HX 6091   4.177   1.827   2.388  0.9222 -1.7610  1.1310
   48DOPE    HY 6092   4.168   1.945   2.523  2.2464  0.7363  1.4860
   48DOPE   O31 6093   4.311   1.791   2.547 -0.3114 -0.1347 -0.2236
   48DOPE   C31 6094   4.350   1.851   2.657  0.5950  0.3065  0.1163
   48DOPE   O32 6095   4.344   1.971   2.683 -0.3872 -0.0119 -0.2467
   48DOPE   C32 6096   4.403   1.735   2.748 -0.2189 -0.0850 -0.5328
   48DOPE   H2X 6097   4.327   1.654   2.745  0.6129 -0.9757  1.1634
   48DOPE   H2Y 6098   4.502   1.706   2.708  0.6616 -1.0655  2.1599
   48DOPE   C23 6099   4.761   1.758   2.336 -0.0122 -0.0398  0.5860
   48DOPE   H3R 6100   4.801   1.815   2.422  0.6071 -0.9449  0.9117
   48DOPE   H3S 6101   4.841   1.738   2.262  1.0407  1.4525  1.2610
   48DOPE   C24 6102   4.706   1.630   2.399 -0.5799 -0.5430  0.1052
   48DOPE   H4R 6103   4.680   1.572   2.308 -1.2936  0.6675 -0.4923
   48DOPE   H4S 6104   4.606   1.642   2.446 -1.1256  2.9572 -1.6344
   48DOPE   C25 6105   4.808   1.551   2.487 -0.4051 -0.0015 -0.6619
   48DOPE   H5R 6106   4.913   1.552   2.451 -0.6920  0.2455 -1.5019
   48DOPE   H5S 6107   4.767   1.448   2.481  1.4272 -0.7491 -1.0742
   48DOPE   C26 6108   4.806   1.601   2.629 -1.1117  0.4267 -0.1795
   48DOPE   H6R 6109   4.704   1.589   2.670 -1.1777  1.1274 -0.1385
   48DOPE   H6S 6110   4.835   1.708   2.623  0.1123  0.0832 -0.7313
   48DOPE   C27 6111   4.910   1.517   2.724 -0.1752  0.2192 -0.2464
   48DOPE   H7R 6112   4.923   1.571   2.820  0.3908 -2.1504  1.1060
   48DOPE   H7S 6113   5.010   1.503   2.680  1.0489  0.9118  2.1260
   48DOPE   C28 6114   4.853   1.374   2.764 -0.3055 -0.5833  0.2852
   48DOPE   H8R 6115   4.801   1.351   2.669  0.3471 -0.7530 -0.0383
   48DOPE   H8S 6116   4.779   1.383   2.846 -0.9772  0.8244 -0.4373
   48DOPE   C29 6117   4.954   1.261   2.778  0.2170 -0.0304  0.3199
   48DOPE   H9R 6118   4.919   1.171   2.727  4.0613 -2.2200  1.1028
   48DOPE  C210 6119   5.073   1.253   2.849  0.9658  1.4380  0.4306
   48DOPE  H10R 6120   5.135   1.163   2.846  0.4868  1.0602  1.3838
   48DOPE  C211 6121   5.138   1.351   2.941  0.7954  0.2697  0.3951
   48DOPE  H11R 6122   5.156   1.439   2.875  1.5751  0.3722  0.7287
   48DOPE  H11S 6123   5.234   1.313   2.981  2.0976  1.9204 -0.9860
   48DOPE  C212 6124   5.046   1.382   3.052  0.9309  0.5856 -0.1199
   48DOPE  H12R 6125   5.006   1.292   3.104 -0.1403 -0.2259 -2.2315
   48DOPE  H12S 6126   4.950   1.429   3.020 -0.1843  0.5351  2.8075
   48DOPE  C213 6127   5.114   1.472   3.166 -0.3578 -0.0996  0.2086
   48DOPE  H13R 6128   5.123   1.578   3.135 -0.5866 -0.5569 -1.5075
   48DOPE  H13S 6129   5.213   1.433   3.196 -0.0989 -0.5003 -1.0961
   48DOPE  C214 6130   5.040   1.456   3.299  0.1226 -0.8324  0.3283
   48DOPE  H14R 6131   5.045   1.349   3.328  0.0269 -0.2681  2.6943
   48DOPE  H14S 6132   4.935   1.492   3.299 -0.0420 -1.2377  1.8394
   48DOPE  C215 6133   5.113   1.530   3.416  0.7474 -0.3863 -0.5118
   48DOPE  H15R 6134   5.212   1.482   3.429  0.0729 -1.2549  1.9832
   48DOPE  H15S 6135   5.059   1.503   3.509  1.0400  2.1026  0.4685
   48DOPE  C216 6136   5.117   1.688   3.405  0.0642 -0.6740 -0.4022
   48DOPE  H16R 6137   5.014   1.726   3.386 -0.4103 -1.5944  0.2413
   48DOPE  H16S 6138   5.179   1.701   3.314 -0.9510 -1.4685 -1.2377
   48DOPE  C217 6139   5.184   1.752   3.522  0.2695 -0.1203 -0.3096
   48DOPE  H17R 6140   5.291   1.778   3.508  0.0648  0.7859 -0.2416
   48DOPE  H17S 6141   5.176   1.686   3.611  1.1697 -0.1127 -0.2149
   48DOPE  C218 6142   5.125   1.880   3.555  0.5426 -0.2934 -1.0937
   48DOPE  H18R 6143   5.039   1.872   3.624  0.5115  1.2126 -0.9142
   48DOPE  H18S 6144   5.085   1.937   3.469 -0.9889  2.6648  1.3746
   48DOPE  H18T 6145   5.198   1.948   3.605 -0.0789  0.7817 -1.6140
   48DOPE   C33 6146   4.415   1.779   2.893 -0.4218  0.7556  0.8084
   48DOPE   H3X 6147   4.328   1.844   2.914 -2.9181 -0.4454 -4.2484
   48DOPE   H3Y 6148   4.507   1.840   2.906 -0.2168  1.0743 -1.6501
   48DOPE   C34 6149   4.423   1.660   2.992 -0.0333  0.2812  0.1628
   48DOPE   H4X 6150   4.421   1.705   3.094  1.0218  1.1790 -0.1920
   48DOPE   H4Y 6151   4.340   1.592   2.966 -0.0010  0.8036 -1.3786
   48DOPE   C35 6152   4.555   1.578   2.976  0.1180  0.3792  0.5201
   48DOPE   H5X 6153   4.569   1.554   2.868 -0.5558  1.3021  0.2087
   48DOPE   H5Y 6154   4.540   1.484   3.034  1.1378  0.4507  0.9170
   48DOPE   C36 6155   4.676   1.661   3.020 -0.4437  0.7117 -0.5732
   48DOPE   H6X 6156   4.695   1.745   2.950  3.8395  0.5727  0.1549
   48DOPE   H6Y 6157   4.763   1.593   3.005 -0.7428  0.1939 -0.0236
   48DOPE   C37 6158   4.686   1.711   3.172  0.2171  0.0848  0.1651
   48DOPE   H7X 6159   4.601   1.781   3.182  0.0187 -0.0480 -0.4978
   48DOPE   H7Y 6160   4.671   1.621   3.236 -0.0064 -0.4285 -0.5870
   48DOPE   C38 6161   4.814   1.791   3.206 -0.7248 -0.4300 -0.3226
   48DOPE   H8X 6162   4.896   1.726   3.169 -0.0518  0.9512 -1.3577
   48DOPE   H8Y 6163   4.820   1.806   3.315  1.5401 -1.6202 -0.2298
   48DOPE   C39 6164   4.824   1.921   3.139  0.2472  0.0646 -0.1184
   48DOPE   H9X 6165   4.865   1.905   3.038  1.2482  2.3628 -0.1268
   48DOPE  C310 6166   4.817   2.047   3.192 -0.8030  0.4314 -0.5232
   48DOPE  H10X 6167   4.832   2.132   3.125  0.6159  0.5131 -0.1414
   48DOPE  C311 6168   4.787   2.079   3.335  0.2811  0.4126 -0.2307
   48DOPE  H11X 6169   4.677   2.065   3.349  0.2888  1.1076  0.6828
   48DOPE  H11Y 6170   4.829   2.001   3.402 -0.1152  0.7103  0.3798
   48DOPE  C312 6171   4.830   2.215   3.387  0.4957  0.1908 -1.0151
   48DOPE  H12X 6172   4.815   2.294   3.310 -0.3118  0.4749 -0.5703
   48DOPE  H12Y 6173   4.940   2.211   3.402  0.1794 -0.2559  1.6875
   48DOPE  C313 6174   4.749   2.259   3.514 -0.0879  0.6946  0.2870
   48DOPE  H13X 6175   4.741   2.169   3.580 -0.5846  0.6543  0.1770
   48DOPE  H13Y 6176   4.802   2.340   3.569 -1.1901  1.3989  0.3340
   48DOPE  C314 6177   4.605   2.300   3.478  0.2694  0.4412  0.2949
   48DOPE  H14X 6178   4.579   2.280   3.372 -0.9553 -0.2818  0.7167
   48DOPE  H14Y 6179   4.593   2.408   3.503 -3.4633  0.3756 -0.6138
   48DOPE  C315 6180   4.499   2.219   3.562  0.2559  0.1184  0.2882
   48DOPE  H15X 6181   4.538   2.235   3.665  1.1129  0.3117 -0.0649
   48DOPE  H15Y 6182   4.506   2.110   3.541 -0.2922  0.1709 -0.1855
   48DOPE  C316 6183   4.342   2.260   3.560  0.2792 -0.3318  0.2272
   48DOPE  H16X 6184   4.303   2.253   3.456  2.4830  2.8914 -0.9568
   48DOPE  H16Y 6185   4.334   2.368   3.584 -0.5651  0.1437 -1.9494
   48DOPE  C317 6186   4.265   2.184   3.670  0.6700  0.3911 -0.3726
   48DOPE  H17X 6187   4.288   2.076   3.667  2.9404  0.7948  0.5276
   48DOPE  H17Y 6188   4.305   2.221   3.767 -0.5288 -1.7419  1.0082
   48DOPE  C318 6189   4.118   2.213   3.647 -0.3529 -0.6521 -0.3016
   48DOPE  H18X 6190   4.102   2.321   3.665  1.8901 -0.3195 -0.0790
   48DOPE  H18Y 6191   4.088   2.190   3.542  2.0117 -3.5548 -0.5063
   48DOPE  H18Z 6192   4.057   2.165   3.727  0.9933  1.1969  1.9453
   49DOPE     N 6193   1.165   5.811   2.679  0.1755 -0.1005 -0.3576
   49DOPE   HN1 6194   1.074   5.860   2.691 -0.3016 -1.5280  3.0285
   49DOPE   HN2 6195   1.153   5.708   2.689  0.9565 -0.1351  0.3613
   49DOPE   HN3 6196   1.234   5.834   2.754 -0.0037 -0.7996  0.0339
   49DOPE   C12 6197   1.231   5.841   2.546 -1.0630 -0.3740  0.0178
   49DOPE  H12A 6198   1.150   5.848   2.470 -0.4975 -0.5077 -0.6047
   49DOPE  H12B 6199   1.291   5.751   2.521  1.1764  0.8133  0.7781
   49DOPE   C11 6200   1.333   5.951   2.555  0.1227  0.1062 -0.2930
   49DOPE  H11A 6201   1.387   5.955   2.458 -1.7751 -0.5357 -1.4253
   49DOPE  H11B 6202   1.408   5.934   2.636 -0.2123  0.5972  0.1255
   49DOPE     P 6203   1.358   6.211   2.587  0.3395 -0.3875  0.6458
   49DOPE   O13 6204   1.328   6.294   2.466  0.0289 -0.4928 -0.6387
   49DOPE   O14 6205   1.504   6.184   2.614 -0.2580 -0.4508 -0.7294
   49DOPE   O11 6206   1.294   6.279   2.715 -0.9062 -0.3709 -0.0871
   49DOPE   O12 6207   1.269   6.077   2.578  0.1160  0.3281  0.1422
   49DOPE    C1 6208   1.292   6.425   2.714  0.6155 -0.1302 -0.1304
   49DOPE    HA 6209   1.205   6.464   2.657  0.8752 -2.5200 -2.3584
   49DOPE    HB 6210   1.375   6.467   2.655  0.4745 -0.0928 -0.3033
   49DOPE    C2 6211   1.307   6.481   2.859 -0.0039 -0.2251  0.5749
   49DOPE    HS 6212   1.396   6.431   2.901  2.6218  1.8221 -2.0863
   49DOPE   O21 6213   1.186   6.448   2.926 -0.3198 -0.0768 -0.0882
   49DOPE   C21 6214   1.196   6.417   3.050 -0.4885  0.7549 -0.2189
   49DOPE   O22 6215   1.301   6.412   3.122  0.0852  0.7207 -0.6529
   49DOPE   C22 6216   1.063   6.369   3.097  0.1629  0.0041 -0.2813
   49DOPE   H2R 6217   1.065   6.258   3.104 -0.4135  0.0565  0.9455
   49DOPE   H2S 6218   0.991   6.397   3.017  0.9447  1.7490 -0.4125
   49DOPE    C3 6219   1.333   6.638   2.848  0.5266 -0.3418 -0.0340
   49DOPE    HX 6220   1.256   6.687   2.784 -0.4461 -1.6805  0.0706
   49DOPE    HY 6221   1.423   6.657   2.786  0.3092 -1.6354 -0.8006
   49DOPE   O31 6222   1.324   6.713   2.970 -1.1854  0.1072  0.3470
   49DOPE   C31 6223   1.438   6.721   3.048 -0.1817  0.6333  0.7444
   49DOPE   O32 6224   1.544   6.665   3.022  0.6081  0.3678 -0.3509
   49DOPE   C32 6225   1.407   6.805   3.166  0.8115 -0.2793  0.0542
   49DOPE   H2X 6226   1.315   6.866   3.147  1.7686  1.2964  0.2822
   49DOPE   H2Y 6227   1.378   6.746   3.256  1.7780  1.9146  1.9245
   49DOPE   C23 6228   1.017   6.428   3.228 -0.1260  0.2885  0.3851
   49DOPE   H3R 6229   0.907   6.425   3.244 -0.1454 -0.5929  0.1334
   49DOPE   H3S 6230   1.044   6.536   3.232  1.7276 -0.0660 -1.1466
   49DOPE   C24 6231   1.083   6.356   3.342  0.5206  0.0011  0.3574
   49DOPE   H4R 6232   1.192   6.351   3.324  0.4555  1.5747 -0.6968
   49DOPE   H4S 6233   1.051   6.249   3.339 -2.0078  0.7109 -1.0430
   49DOPE   C25 6234   1.057   6.422   3.482 -0.6921  0.3242  0.3213
   49DOPE   H5R 6235   0.950   6.445   3.505  0.0506  1.0403  3.4861
   49DOPE   H5S 6236   1.112   6.517   3.496 -0.7206  0.3589  0.1932
   49DOPE   C26 6237   1.111   6.333   3.593 -0.2853  0.4881  0.5906
   49DOPE   H6R 6238   1.199   6.270   3.568 -0.7943 -0.9372  2.1813
   49DOPE   H6S 6239   1.031   6.256   3.597  0.8148 -0.7036  0.3889
   49DOPE   C27 6240   1.104   6.392   3.736 -0.3699  0.4631  0.9836
   49DOPE   H7R 6241   1.003   6.434   3.758 -0.1180  3.7617 -2.8697
   49DOPE   H7S 6242   1.177   6.475   3.747  1.5376 -0.7605 -1.5088
   49DOPE   C28 6243   1.139   6.290   3.851 -0.1933  1.1884 -0.0212
   49DOPE   H8R 6244   1.080   6.198   3.832 -0.5704  1.6424 -1.2049
   49DOPE   H8S 6245   1.104   6.329   3.949 -2.3078 -0.3898 -0.0688
   49DOPE   C29 6246   1.289   6.267   3.847  0.1652 -0.4022  0.0365
   49DOPE   H9R 6247   1.338   6.259   3.749 -1.0653  0.6907 -0.6974
   49DOPE  C210 6248   1.373   6.264   3.953 -0.6677  0.1556  0.4385
   49DOPE  H10R 6249   1.483   6.260   3.946 -0.3796  2.8657  1.8099
   49DOPE  C211 6250   1.346   6.262   4.103 -0.4993 -0.0978 -0.0101
   49DOPE  H11R 6251   1.414   6.193   4.156  0.3557  0.7294  0.0066
   49DOPE  H11S 6252   1.244   6.221   4.116 -1.0066  1.1767  0.2177
   49DOPE  C212 6253   1.363   6.403   4.166 -0.2422 -0.3929 -0.1858
   49DOPE  H12R 6254   1.456   6.452   4.130  0.2127  1.5502  3.2535
   49DOPE  H12S 6255   1.371   6.406   4.277  0.3505  0.0691 -0.2336
   49DOPE  C213 6256   1.257   6.506   4.130  0.2807 -0.4769 -0.5554
   49DOPE  H13R 6257   1.166   6.460   4.175 -0.1464  0.0410 -0.8625
   49DOPE  H13S 6258   1.245   6.527   4.021  0.6833  0.3705 -0.4415
   49DOPE  C214 6259   1.264   6.642   4.199 -0.1248 -0.2368 -0.2026
   49DOPE  H14R 6260   1.356   6.698   4.173 -0.1311 -0.6579 -1.2069
   49DOPE  H14S 6261   1.282   6.615   4.305  0.3238 -2.8958 -0.8742
   49DOPE  C215 6262   1.149   6.733   4.175  0.1206 -0.5490  0.2485
   49DOPE  H15R 6263   1.043   6.706   4.197 -0.7163  1.9280 -0.3504
   49DOPE  H15S 6264   1.148   6.771   4.070  3.4957  2.2062  1.0248
   49DOPE  C216 6265   1.153   6.856   4.271  0.3146 -0.0021  0.2829
   49DOPE  H16R 6266   1.251   6.906   4.256  0.6702 -0.5004  0.8802
   49DOPE  H16S 6267   1.149   6.837   4.381 -0.5749  0.4158  0.3271
   49DOPE  C217 6268   1.051   6.969   4.244  0.2215 -0.2432  0.5920
   49DOPE  H17R 6269   0.950   6.923   4.236 -0.3255  0.9847  0.2060
   49DOPE  H17S 6270   1.058   7.023   4.147  2.7942 -1.4038  0.0306
   49DOPE  C218 6271   1.046   7.071   4.361 -0.5694  0.4041  0.3140
   49DOPE  H18R 6272   1.141   7.128   4.353 -1.1816  1.7194  1.7388
   49DOPE  H18S 6273   1.047   7.018   4.459  1.0496  2.2201  1.3403
   49DOPE  H18T 6274   0.963   7.145   4.353 -0.5573  0.2315 -1.9224
   49DOPE   C33 6275   1.524   6.903   3.193 -0.0135 -0.0917 -0.3860
   49DOPE   H3X 6276   1.558   6.946   3.096 -1.9332  0.3698 -0.8968
   49DOPE   H3Y 6277   1.620   6.856   3.224  1.8973  1.8864 -2.9122
   49DOPE   C34 6278   1.489   7.019   3.284  0.1306 -0.8433  0.7003
   49DOPE   H4X 6279   1.577   7.086   3.279  0.0546 -0.7113  1.0696
   49DOPE   H4Y 6280   1.399   7.072   3.244 -0.3001 -0.2053  2.4351
   49DOPE   C35 6281   1.466   6.986   3.431 -0.1593 -0.1024 -0.5599
   49DOPE   H5X 6282   1.559   6.937   3.467 -0.1142  0.8494  0.6811
   49DOPE   H5Y 6283   1.385   6.911   3.437 -1.9907  1.8616  1.0348
   49DOPE   C36 6284   1.421   7.107   3.515 -0.6724  0.6804 -0.1048
   49DOPE   H6X 6285   1.334   7.149   3.460 -1.5577  0.8455  1.3560
   49DOPE   H6Y 6286   1.480   7.201   3.515 -2.1320  1.6384  0.1399
   49DOPE   C37 6287   1.374   7.063   3.656 -0.7358 -0.6137 -0.3389
   49DOPE   H7X 6288   1.339   6.957   3.658 -2.1695 -0.1394  0.5686
   49DOPE   H7Y 6289   1.461   7.070   3.725 -1.8445  0.6870  0.9753
   49DOPE   C38 6290   1.259   7.148   3.715  0.1810 -0.5771  1.1819
   49DOPE   H8X 6291   1.254   7.116   3.821 -3.0834 -1.4540  0.8838
   49DOPE   H8Y 6292   1.163   7.126   3.663  1.1205  0.0831 -0.9351
   49DOPE   C39 6293   1.278   7.303   3.695  0.2544  0.4090 -0.2544
   49DOPE   H9X 6294   1.345   7.324   3.611  1.2355  1.1668  0.6823
   49DOPE  C310 6295   1.224   7.405   3.774 -0.6867 -0.5246  0.1962
   49DOPE  H10X 6296   1.241   7.511   3.747  1.6661 -0.7897  0.4345
   49DOPE  C311 6297   1.142   7.394   3.896 -0.4299  1.0269 -0.2328
   49DOPE  H11X 6298   1.089   7.492   3.903  0.1737  1.2513  2.2736
   49DOPE  H11Y 6299   1.073   7.307   3.896 -0.1302  0.7655  1.1538
   49DOPE  C312 6300   1.225   7.382   4.020  0.5175  0.8292  0.0556
   49DOPE  H12X 6301   1.306   7.458   4.016  2.1136 -0.6020  2.4741
   49DOPE  H12Y 6302   1.262   7.278   4.030 -4.2938 -1.1474 -0.0698
   49DOPE  C313 6303   1.149   7.428   4.148 -0.5821  0.3031  0.2154
   49DOPE  H13X 6304   1.094   7.524   4.134  0.5631  1.1085  1.0079
   49DOPE  H13Y 6305   1.067   7.356   4.167 -0.4337 -0.5562 -2.0970
   49DOPE  C314 6306   1.243   7.430   4.271 -0.0549 -0.5429 -0.7849
   49DOPE  H14X 6307   1.314   7.516   4.272  0.9092 -1.3300 -0.5631
   49DOPE  H14Y 6308   1.310   7.342   4.266  0.6041 -0.2964  2.0816
   49DOPE  C315 6309   1.169   7.442   4.400 -0.0548 -0.6561  0.9234
   49DOPE  H15X 6310   1.084   7.373   4.416 -0.6427  0.0182  0.7518
   49DOPE  H15Y 6311   1.123   7.543   4.404  2.7548  0.7611  0.2924
   49DOPE  C316 6312   1.267   7.422   4.520 -0.2826 -0.8010 -0.4152
   49DOPE  H16X 6313   1.357   7.487   4.518  0.1289 -1.3701 -0.9973
   49DOPE  H16Y 6314   1.306   7.318   4.527 -1.4951 -1.2960 -0.7522
   49DOPE  C317 6315   1.198   7.439   4.655 -0.2718 -0.2787 -0.2755
   49DOPE  H17X 6316   1.107   7.377   4.659 -0.0077 -0.7890 -1.6336
   49DOPE  H17Y 6317   1.262   7.424   4.745 -0.3370  2.8383  0.4123
   49DOPE  C318 6318   1.151   7.590   4.669 -0.1938  0.2714 -0.0711
   49DOPE  H18X 6319   1.066   7.608   4.599  0.7585 -1.6489 -1.8355
   49DOPE  H18Y 6320   1.129   7.619   4.774  0.5578  2.0436 -0.3572
   49DOPE  H18Z 6321   1.240   7.652   4.642 -0.7219  1.4990  0.9100
   50DOPE     N 6322   0.776   3.844   1.992  0.5426 -0.1490 -0.1721
   50DOPE   HN1 6323   0.714   3.869   1.912  1.2472 -0.8572 -0.9525
   50DOPE   HN2 6324   0.708   3.843   2.071  1.6752  2.1587  0.9179
   50DOPE   HN3 6325   0.853   3.912   2.008  0.5880  0.1910 -1.7242
   50DOPE   C12 6326   0.812   3.701   1.998  0.6160  0.1129  0.5372
   50DOPE  H12A 6327   0.876   3.681   1.909 -1.1941  1.5573 -1.1716
   50DOPE  H12B 6328   0.717   3.643   1.999  1.3285 -1.1171  0.0128
   50DOPE   C11 6329   0.896   3.684   2.124  0.2060  0.5349  0.1099
   50DOPE  H11A 6330   0.990   3.741   2.110  0.6525 -0.4808 -1.1667
   50DOPE  H11B 6331   0.924   3.577   2.122  0.5270  0.6241 -0.4678
   50DOPE     P 6332   0.899   3.718   2.380 -0.1166 -0.3773  0.4824
   50DOPE   O13 6333   0.949   3.858   2.394  0.6254  0.2327  0.4792
   50DOPE   O14 6334   1.000   3.613   2.369  0.0131  0.5796 -0.5356
   50DOPE   O11 6335   0.794   3.702   2.499 -0.5326  0.2080  0.0426
   50DOPE   O12 6336   0.819   3.716   2.241 -0.3154  0.1569  0.2555
   50DOPE    C1 6337   0.657   3.665   2.477 -0.2338  0.7023  0.6039
   50DOPE    HA 6338   0.652   3.580   2.405  1.4274 -0.5373  1.8577
   50DOPE    HB 6339   0.603   3.746   2.425 -2.3842 -0.5743  0.7156
   50DOPE    C2 6340   0.586   3.630   2.612  0.0119  0.0062  0.5242
   50DOPE    HS 6341   0.480   3.611   2.586  0.6215 -2.0216 -0.7780
   50DOPE   O21 6342   0.601   3.731   2.705  0.6273 -0.1641 -0.4343
   50DOPE   C21 6343   0.517   3.729   2.801 -0.2189 -0.2256  0.6975
   50DOPE   O22 6344   0.414   3.667   2.812  0.3726  0.1576  0.3253
   50DOPE   C22 6345   0.570   3.826   2.907 -0.1387  0.3824  0.6087
   50DOPE   H2R 6346   0.486   3.893   2.935 -1.6755  0.7850 -4.1596
   50DOPE   H2S 6347   0.646   3.895   2.864 -0.8650  1.5495  1.1219
   50DOPE    C3 6348   0.643   3.493   2.666  0.2276  0.2192  0.3782
   50DOPE    HX 6349   0.741   3.515   2.714  1.5951 -2.3621 -0.9730
   50DOPE    HY 6350   0.682   3.431   2.582  0.7312  1.3458 -0.2507
   50DOPE   O31 6351   0.556   3.429   2.761 -0.4296 -0.2760  0.2259
   50DOPE   C31 6352   0.469   3.349   2.711  0.4069  0.3415  0.0505
   50DOPE   O32 6353   0.460   3.312   2.596 -0.5479  0.2890 -0.3887
   50DOPE   C32 6354   0.382   3.296   2.829 -0.7069  0.1642 -0.3119
   50DOPE   H2X 6355   0.361   3.188   2.809 -1.7589  0.1605  0.7289
   50DOPE   H2Y 6356   0.450   3.308   2.916  0.0170 -1.9582 -0.5120
   50DOPE   C23 6357   0.608   3.740   3.031  0.0034  0.3358  0.4519
   50DOPE   H3R 6358   0.689   3.668   3.006  1.6351  1.8248  1.3268
   50DOPE   H3S 6359   0.517   3.682   3.058 -0.0258 -0.0902 -0.5032
   50DOPE   C24 6360   0.676   3.831   3.137 -0.6762 -0.1523  0.2436
   50DOPE   H4R 6361   0.761   3.865   3.075 -1.4280  1.4999  0.0667
   50DOPE   H4S 6362   0.710   3.776   3.227  0.8227 -0.2621 -0.3603
   50DOPE   C25 6363   0.590   3.944   3.195 -0.4748 -0.6359  0.2505
   50DOPE   H5R 6364   0.568   4.029   3.127 -1.0685  0.9073  2.2594
   50DOPE   H5S 6365   0.642   3.996   3.278 -0.7478  0.7122 -0.3894
   50DOPE   C26 6366   0.446   3.898   3.249  0.9529  0.0490 -0.3011
   50DOPE   H6R 6367   0.467   3.822   3.328  1.8862  2.4662  1.9377
   50DOPE   H6S 6368   0.393   3.848   3.166  1.4606 -1.0490  0.0128
   50DOPE   C27 6369   0.362   4.009   3.309 -0.2904 -0.5424  0.1005
   50DOPE   H7R 6370   0.265   4.023   3.257 -1.7616  2.5744  3.2804
   50DOPE   H7S 6371   0.417   4.102   3.284  0.2015 -1.3827 -2.2146
   50DOPE   C28 6372   0.346   4.014   3.469 -0.6072  0.3183 -0.3260
   50DOPE   H8R 6373   0.288   4.106   3.491 -1.2967 -0.1354 -0.2061
   50DOPE   H8S 6374   0.451   4.012   3.505 -0.4067 -2.3337 -0.8635
   50DOPE   C29 6375   0.271   3.895   3.524 -0.3955 -0.6326  0.3053
   50DOPE   H9R 6376   0.183   3.864   3.465  0.0685  0.1790 -0.8552
   50DOPE  C210 6377   0.316   3.806   3.611 -0.2402  0.0945 -0.5590
   50DOPE  H10R 6378   0.252   3.719   3.633  0.6080 -0.0566  1.5309
   50DOPE  C211 6379   0.451   3.804   3.675  0.5363 -0.3414 -0.4511
   50DOPE  H11R 6380   0.438   3.765   3.778  0.2619 -3.2672 -1.4977
   50DOPE  H11S 6381   0.494   3.906   3.675  1.4046 -0.6660  1.4089
   50DOPE  C212 6382   0.549   3.715   3.596 -0.0432  0.2716 -0.8619
   50DOPE  H12R 6383   0.639   3.701   3.660 -1.3214  0.7798  1.1179
   50DOPE  H12S 6384   0.585   3.751   3.497 -0.5088 -0.8667 -1.4621
   50DOPE  C213 6385   0.501   3.573   3.561 -0.0305  0.2782  0.4865
   50DOPE  H13R 6386   0.592   3.518   3.528  0.4006  1.5126 -0.4511
   50DOPE  H13S 6387   0.429   3.575   3.476 -1.0927 -2.3659  1.2179
   50DOPE  C214 6388   0.425   3.509   3.682 -0.3971  0.9796  0.4392
   50DOPE  H14R 6389   0.388   3.413   3.641 -1.0683  1.3666  0.1112
   50DOPE  H14S 6390   0.332   3.563   3.712 -2.3578 -2.2424  0.6937
   50DOPE  C215 6391   0.507   3.483   3.808  0.8030 -0.3580 -0.3890
   50DOPE  H15R 6392   0.550   3.579   3.844 -0.7009 -0.3590  1.5983
   50DOPE  H15S 6393   0.599   3.430   3.774  2.5413  2.0900  0.1764
   50DOPE  C216 6394   0.425   3.405   3.912 -0.9785 -0.0875 -0.9224
   50DOPE  H16R 6395   0.396   3.302   3.881  0.4304 -1.1065  1.0025
   50DOPE  H16S 6396   0.337   3.466   3.943 -0.5187  0.2248 -0.2269
   50DOPE  C217 6397   0.517   3.396   4.035  0.1735 -0.2101  0.1973
   50DOPE  H17R 6398   0.574   3.492   4.034 -1.3068  0.7015 -1.1394
   50DOPE  H17S 6399   0.599   3.323   4.021  1.5787  1.3111  0.1655
   50DOPE  C218 6400   0.445   3.364   4.169 -0.2750  0.1271  0.4458
   50DOPE  H18R 6401   0.522   3.368   4.249 -0.8523 -1.5031  1.1228
   50DOPE  H18S 6402   0.410   3.259   4.160  0.7025 -0.2652  1.0607
   50DOPE  H18T 6403   0.353   3.421   4.193  0.8436  2.1598  0.1666
   50DOPE   C33 6404   0.245   3.367   2.822  0.1850  0.0453 -0.4511
   50DOPE   H3X 6405   0.196   3.363   2.722  0.5518  0.9778 -0.6828
   50DOPE   H3Y 6406   0.260   3.476   2.840  2.3605 -0.2924 -0.0025
   50DOPE   C34 6407   0.144   3.317   2.931 -0.5141 -0.1021 -0.1201
   50DOPE   H4X 6408   0.054   3.382   2.929 -1.6456 -1.6252 -0.9154
   50DOPE   H4Y 6409   0.101   3.220   2.899 -0.1623  0.2301 -1.6560
   50DOPE   C35 6410   0.213   3.321   3.066  0.5924  0.0019 -0.8484
   50DOPE   H5X 6411   0.285   3.238   3.057  0.3963 -0.3144  0.3413
   50DOPE   H5Y 6412   0.142   3.309   3.151  2.0729 -0.5322  0.3432
   50DOPE   C36 6413   0.287   3.450   3.108  0.0906  0.4683  0.5976
   50DOPE   H6X 6414   0.361   3.482   3.031 -0.2950 -0.4372 -0.1650
   50DOPE   H6Y 6415   0.360   3.423   3.187  3.0365 -1.2818 -2.4280
   50DOPE   C37 6416   0.201   3.580   3.130  0.3473  0.1046  0.3310
   50DOPE   H7X 6417   0.271   3.666   3.121 -0.7231  1.0883  1.1502
   50DOPE   H7Y 6418   0.125   3.603   3.052 -0.2431  1.9607  1.3895
   50DOPE   C38 6419   0.135   3.577   3.267 -0.4255 -0.4472 -0.4636
   50DOPE   H8X 6420   0.118   3.681   3.305 -3.5743 -0.9983 -0.0185
   50DOPE   H8Y 6421   0.203   3.536   3.344 -0.6640 -0.5695 -0.3140
   50DOPE   C39 6422   0.000   3.507   3.266  0.9888 -0.6420  1.0677
   50DOPE   H9X 6423  -0.065   3.537   3.183  1.5359 -1.0094  0.4994
   50DOPE  C310 6424  -0.043   3.401   3.336  0.1808 -0.0909 -0.2236
   50DOPE  H10X 6425  -0.148   3.371   3.320 -0.6479  3.0335 -1.3142
   50DOPE  C311 6426   0.032   3.326   3.439 -0.2207 -0.1033 -0.2230
   50DOPE  H11X 6427  -0.007   3.222   3.442 -0.4738  0.0052  1.4199
   50DOPE  H11Y 6428   0.142   3.328   3.424  0.3323 -1.0287  2.9663
   50DOPE  C312 6429   0.025   3.392   3.579 -0.2531 -0.8390 -0.2000
   50DOPE  H12X 6430   0.033   3.503   3.576  2.7630 -0.9060  1.2620
   50DOPE  H12Y 6431   0.111   3.361   3.643  0.4766 -0.6680 -1.0684
   50DOPE  C313 6432  -0.106   3.358   3.652  0.0852  0.1697  0.3727
   50DOPE  H13X 6433  -0.180   3.423   3.600 -0.7134  0.5774  1.9305
   50DOPE  H13Y 6434  -0.137   3.252   3.642 -1.0762  0.6811 -2.7025
   50DOPE  C314 6435  -0.108   3.408   3.799  0.1122  0.0102 -0.3284
   50DOPE  H14X 6436  -0.023   3.361   3.853  0.8614  1.6253 -0.0500
   50DOPE  H14Y 6437  -0.205   3.373   3.842 -1.5361 -0.2979 -3.8926
   50DOPE  C315 6438  -0.106   3.556   3.800 -0.6544  0.3096 -0.1438
   50DOPE  H15X 6439  -0.206   3.593   3.767 -0.1144  0.7660 -1.3396
   50DOPE  H15Y 6440  -0.029   3.594   3.730  0.7702 -1.9148  0.1386
   50DOPE  C316 6441  -0.064   3.627   3.937 -0.3484 -0.5775 -0.2197
   50DOPE  H16X 6442  -0.075   3.736   3.922  1.8750 -0.2818  0.0679
   50DOPE  H16Y 6443   0.040   3.599   3.964 -0.8347 -1.8447  0.4037
   50DOPE  C317 6444  -0.150   3.597   4.061  0.3725 -0.2653  0.1440
   50DOPE  H17X 6445  -0.186   3.492   4.060  0.0829 -0.2257  2.2197
   50DOPE  H17Y 6446  -0.090   3.604   4.154  2.7009  0.0780 -1.3084
   50DOPE  C318 6447  -0.279   3.682   4.079  0.4230 -0.5128  0.1258
   50DOPE  H18X 6448  -0.329   3.659   4.176  1.3150  0.7590  0.9233
   50DOPE  H18Y 6449  -0.258   3.791   4.079  0.1697 -0.4637 -0.0606
   50DOPE  H18Z 6450  -0.342   3.658   3.991 -0.7657 -1.4544  1.1825
   51DOPE     N 6451   4.948   5.225   2.190 -0.0504 -0.5635 -0.1861
   51DOPE   HN1 6452   4.987   5.131   2.174 -0.8694 -1.4798  2.6725
   51DOPE   HN2 6453   4.845   5.221   2.205 -0.2119  0.0788 -1.0323
   51DOPE   HN3 6454   4.954   5.274   2.098 -2.3344  0.9002  0.3390
   51DOPE   C12 6455   5.016   5.289   2.309  0.2340 -0.0387  0.1094
   51DOPE  H12A 6456   4.974   5.392   2.320  1.1724  0.2258  1.5170
   51DOPE  H12B 6457   5.123   5.313   2.295  0.3161  0.5113  1.5026
   51DOPE   C11 6458   4.974   5.220   2.443 -0.1868  0.4891 -0.1953
   51DOPE  H11A 6459   5.022   5.282   2.522 -0.1095  1.5741 -1.0659
   51DOPE  H11B 6460   5.031   5.125   2.456  0.8193  1.2721  1.5132
   51DOPE     P 6461   4.763   5.063   2.464  0.2028 -0.5891  0.1103
   51DOPE   O13 6462   4.843   4.974   2.382  0.2132  0.2579  0.1090
   51DOPE   O14 6463   4.624   5.082   2.423  0.0172  0.1190 -0.0336
   51DOPE   O11 6464   4.784   5.022   2.616  0.1853 -0.0940 -0.0061
   51DOPE   O12 6465   4.832   5.210   2.462  0.0308  0.5087 -0.0962
   51DOPE    C1 6466   4.802   5.113   2.727  0.0525  0.0660  0.2945
   51DOPE    HA 6467   4.872   5.197   2.705  0.2203  0.4392  2.1366
   51DOPE    HB 6468   4.862   5.059   2.803  0.8377  0.5521  0.0312
   51DOPE    C2 6469   4.669   5.162   2.784  0.4650  0.1818 -0.9258
   51DOPE    HS 6470   4.608   5.229   2.719  2.5426  0.9874 -2.1542
   51DOPE   O21 6471   4.673   5.227   2.909 -0.2838 -0.3354 -0.1750
   51DOPE   C21 6472   4.733   5.343   2.908 -0.1309  0.6320 -0.5276
   51DOPE   O22 6473   4.780   5.394   2.809 -0.2101 -0.9061  0.5438
   51DOPE   C22 6474   4.740   5.394   3.049 -0.1068  0.0518  0.2650
   51DOPE   H2R 6475   4.840   5.438   3.070  0.3800 -0.1328 -1.5279
   51DOPE   H2S 6476   4.738   5.309   3.120  0.1428 -1.0713 -1.0497
   51DOPE    C3 6477   4.576   5.039   2.804  0.5737 -0.3038 -0.3327
   51DOPE    HX 6478   4.622   4.977   2.883  0.8002  0.5552  0.2261
   51DOPE    HY 6479   4.568   4.991   2.704 -0.4487 -0.5057 -0.1683
   51DOPE   O31 6480   4.445   5.089   2.842 -0.4770 -0.2498  0.1817
   51DOPE   C31 6481   4.353   5.002   2.830 -0.2779  0.6506  0.2147
   51DOPE   O32 6482   4.369   4.886   2.796 -0.1170 -0.1419 -0.2502
   51DOPE   C32 6483   4.212   5.059   2.882 -0.4394 -0.8920  0.3590
   51DOPE   H2X 6484   4.230   5.124   2.971 -1.1636 -0.6429  0.3328
   51DOPE   H2Y 6485   4.171   5.107   2.791  1.4187  3.5756  1.6111
   51DOPE   C23 6486   4.613   5.490   3.068  0.1377  0.5239 -1.2317
   51DOPE   H3R 6487   4.599   5.566   2.988 -3.7376  2.3934  0.9330
   51DOPE   H3S 6488   4.627   5.549   3.161  0.1679  1.1435 -1.6261
   51DOPE   C24 6489   4.487   5.413   3.080 -0.5040 -0.4665 -0.4189
   51DOPE   H4R 6490   4.516   5.339   3.157  0.9153  2.7998  2.4440
   51DOPE   H4S 6491   4.476   5.348   2.991  0.3229 -4.0198  1.8614
   51DOPE   C25 6492   4.373   5.506   3.110 -0.7413 -0.1168  0.0395
   51DOPE   H5R 6493   4.348   5.564   3.018 -1.5419  1.4034  1.1624
   51DOPE   H5S 6494   4.390   5.576   3.195 -1.2962  1.3336 -1.0027
   51DOPE   C26 6495   4.246   5.422   3.139  0.5442  0.9575  0.3584
   51DOPE   H6R 6496   4.226   5.355   3.053  1.1804  2.2921 -0.8663
   51DOPE   H6S 6497   4.153   5.482   3.150 -0.3039 -0.2677 -0.0022
   51DOPE   C27 6498   4.270   5.330   3.260 -0.4992  0.2001  0.0549
   51DOPE   H7R 6499   4.328   5.240   3.232  0.5041  0.9408 -0.2962
   51DOPE   H7S 6500   4.172   5.296   3.299  0.7515 -1.8609  1.6182
   51DOPE   C28 6501   4.347   5.388   3.379  0.2963  0.0292 -0.6447
   51DOPE   H8R 6502   4.440   5.427   3.332 -1.1947  2.7278 -1.5779
   51DOPE   H8S 6503   4.376   5.303   3.445  0.4767 -0.0607 -0.8340
   51DOPE   C29 6504   4.264   5.496   3.441  0.0848 -0.1436 -0.0049
   51DOPE   H9R 6505   4.233   5.580   3.377  3.9154  1.4518 -0.0061
   51DOPE  C210 6506   4.213   5.483   3.564  0.9073 -0.0328  0.2222
   51DOPE  H10R 6507   4.162   5.570   3.607  1.1289  0.7364 -1.0079
   51DOPE  C211 6508   4.232   5.370   3.658  0.1209 -0.3230 -0.3041
   51DOPE  H11R 6509   4.273   5.278   3.611  0.6437 -0.2151 -0.0714
   51DOPE  H11S 6510   4.139   5.346   3.713  0.4462 -0.1805  0.3200
   51DOPE  C212 6511   4.345   5.409   3.762  0.2478  0.2685 -0.3303
   51DOPE  H12R 6512   4.341   5.327   3.838 -0.3962 -0.3562 -1.0148
   51DOPE  H12S 6513   4.321   5.503   3.815  1.0213  0.8030 -0.9208
   51DOPE  C213 6514   4.485   5.415   3.714 -0.7056 -0.0277  0.1915
   51DOPE  H13R 6515   4.485   5.496   3.638 -0.6315  0.5092  0.7670
   51DOPE  H13S 6516   4.515   5.321   3.662 -0.9973  0.1358 -0.2847
   51DOPE  C214 6517   4.573   5.469   3.826 -0.0631 -0.3630  0.2806
   51DOPE  H14R 6518   4.583   5.397   3.910  0.2958 -0.0221  0.5379
   51DOPE  H14S 6519   4.522   5.559   3.866  0.6660  0.3485 -0.3287
   51DOPE  C215 6520   4.716   5.508   3.786 -0.5190 -0.0518 -0.9450
   51DOPE  H15R 6521   4.723   5.572   3.695  1.5292  0.1613 -0.6949
   51DOPE  H15S 6522   4.761   5.413   3.749 -1.0548 -0.8349  0.3621
   51DOPE  C216 6523   4.797   5.574   3.895 -0.6456 -0.3054 -0.8771
   51DOPE  H16R 6524   4.731   5.651   3.941 -2.7505 -1.0876 -2.4371
   51DOPE  H16S 6525   4.888   5.625   3.856 -0.9982  0.4177 -0.7723
   51DOPE  C217 6526   4.857   5.488   4.006 -0.0537 -0.1855  0.2952
   51DOPE  H17R 6527   4.922   5.410   3.961 -3.1307 -2.9749  0.3964
   51DOPE  H17S 6528   4.767   5.438   4.048  0.2983 -1.3284 -0.2704
   51DOPE  C218 6529   4.928   5.563   4.124  0.6548  0.0780 -0.4905
   51DOPE  H18R 6530   4.847   5.621   4.173 -0.5610 -1.7987 -0.2153
   51DOPE  H18S 6531   5.021   5.623   4.109  1.4190  0.4867  4.2886
   51DOPE  H18T 6532   4.950   5.486   4.201 -1.2007  0.0058  0.0111
   51DOPE   C33 6533   4.121   4.950   2.946 -0.1196 -0.7922  0.3955
   51DOPE   H3X 6534   4.099   4.882   2.862 -0.7597  0.9574 -0.9220
   51DOPE   H3Y 6535   4.023   5.001   2.957 -0.3729 -0.6555 -1.9584
   51DOPE   C34 6536   4.180   4.890   3.066  0.3521  0.1587 -0.4138
   51DOPE   H4X 6537   4.124   4.798   3.094  0.8647  0.0660  0.3260
   51DOPE   H4Y 6538   4.280   4.846   3.042  0.1476 -0.1924 -0.6311
   51DOPE   C35 6539   4.192   4.987   3.182 -0.5369 -0.4579  0.4544
   51DOPE   H5X 6540   4.106   5.057   3.186  0.4774  0.8299  0.3506
   51DOPE   H5Y 6541   4.277   5.058   3.171 -0.6563 -0.0671  1.9429
   51DOPE   C36 6542   4.216   4.915   3.314 -0.1175  0.5219 -0.3585
   51DOPE   H6X 6543   4.298   4.841   3.300 -1.6585 -1.3008 -0.2367
   51DOPE   H6Y 6544   4.125   4.856   3.341  0.8199 -0.7930  0.0582
   51DOPE   C37 6545   4.250   4.990   3.441 -0.4584  0.2661  0.7879
   51DOPE   H7X 6546   4.352   5.033   3.426 -1.5757  2.9641  0.2945
   51DOPE   H7Y 6547   4.188   5.083   3.446  0.7672  1.3118 -1.5173
   51DOPE   C38 6548   4.261   4.899   3.568 -0.3519 -0.0830 -0.3332
   51DOPE   H8X 6549   4.338   4.941   3.635 -1.0765  0.0164  0.4519
   51DOPE   H8Y 6550   4.289   4.795   3.542  0.5100 -0.0131  0.2719
   51DOPE   C39 6551   4.131   4.907   3.650  0.0755  0.4106 -0.3025
   51DOPE   H9X 6552   4.035   4.878   3.606  0.5815  1.2652 -2.0941
   51DOPE  C310 6553   4.122   4.949   3.775  0.1022 -0.4972  0.1600
   51DOPE  H10X 6554   4.021   4.965   3.816 -0.1101  0.7661 -0.7961
   51DOPE  C311 6555   4.236   4.975   3.874 -0.0965 -0.6877  0.2958
   51DOPE  H11X 6556   4.304   4.890   3.894  0.1486 -0.0071  2.6885
   51DOPE  H11Y 6557   4.308   5.037   3.817  1.0688 -1.9832  0.3046
   51DOPE  C312 6558   4.192   5.036   4.011 -0.1535 -0.4139  0.7262
   51DOPE  H12X 6559   4.124   4.964   4.061  1.6191 -1.1561  2.1561
   51DOPE  H12Y 6560   4.144   5.134   3.990  0.8697 -0.7088 -4.6543
   51DOPE  C313 6561   4.311   5.065   4.111  0.1791 -0.4231  0.8698
   51DOPE  H13X 6562   4.377   4.977   4.120 -0.0024 -0.4224  2.4319
   51DOPE  H13Y 6563   4.375   5.142   4.062 -1.1548  1.1312  1.4926
   51DOPE  C314 6564   4.263   5.100   4.251  0.2433 -0.6620 -0.7953
   51DOPE  H14X 6565   4.353   5.080   4.314 -1.0876 -1.1397  1.0322
   51DOPE  H14Y 6566   4.187   5.024   4.277  0.3134 -0.6137 -0.4465
   51DOPE  C315 6567   4.232   5.250   4.267  0.0310 -0.2502 -1.0413
   51DOPE  H15X 6568   4.149   5.288   4.203 -0.3460 -0.9116 -0.9455
   51DOPE  H15Y 6569   4.319   5.314   4.238  0.6519 -1.5561 -2.1793
   51DOPE  C316 6570   4.177   5.277   4.409 -0.5593 -0.3417 -0.4769
   51DOPE  H16X 6571   4.253   5.237   4.480 -0.8709 -0.2477 -0.0914
   51DOPE  H16Y 6572   4.087   5.213   4.423 -2.6242  2.2478 -1.1943
   51DOPE  C317 6573   4.144   5.429   4.443  0.2210  0.2334  0.6961
   51DOPE  H17X 6574   4.070   5.461   4.367 -0.4375 -0.4211  1.0424
   51DOPE  H17Y 6575   4.094   5.435   4.543 -1.0545  1.9141  0.0105
   51DOPE  C318 6576   4.268   5.522   4.447  0.1461  0.0130 -0.1076
   51DOPE  H18X 6577   4.311   5.529   4.345  0.2043  0.9364 -0.0283
   51DOPE  H18Y 6578   4.243   5.625   4.482  0.1304  0.9689 -2.7174
   51DOPE  H18Z 6579   4.333   5.473   4.523  1.7462  0.2708 -1.2492
   52DOPE     N 6580   7.308   3.842   2.172 -1.1037  0.1778 -0.0217
   52DOPE   HN1 6581   7.375   3.794   2.235 -1.1030 -0.0137 -0.1704
   52DOPE   HN2 6582   7.293   3.769   2.100 -0.8275 -0.2832  0.3794
   52DOPE   HN3 6583   7.367   3.918   2.131  3.0354 -2.1631  1.0220
   52DOPE   C12 6584   7.184   3.882   2.234  0.4308 -0.2084  0.1240
   52DOPE  H12A 6585   7.155   3.824   2.324  0.4641 -2.1608 -1.0861
   52DOPE  H12B 6586   7.108   3.858   2.157 -0.1101 -0.4368  0.7257
   52DOPE   C11 6587   7.187   4.035   2.265  0.4499  1.0669 -0.0878
   52DOPE  H11A 6588   7.087   4.067   2.302  0.8262  0.8491  1.1490
   52DOPE  H11B 6589   7.214   4.093   2.174 -0.0852 -1.2806 -1.8276
   52DOPE     P 6590   7.370   4.196   2.365  0.1679  0.2970 -0.0301
   52DOPE   O13 6591   7.283   4.314   2.376 -0.1972  0.0132 -0.7029
   52DOPE   O14 6592   7.464   4.196   2.252 -0.1829 -0.3385 -0.4392
   52DOPE   O11 6593   7.462   4.182   2.494 -0.5401 -0.0019  0.3393
   52DOPE   O12 6594   7.283   4.065   2.369  0.3375 -0.6417  0.2685
   52DOPE    C1 6595   7.470   4.063   2.574  0.7475 -0.2440 -0.0400
   52DOPE    HA 6596   7.572   4.067   2.619  0.6634  1.0068  0.0757
   52DOPE    HB 6597   7.451   3.965   2.525  1.5594 -0.0033 -0.8646
   52DOPE    C2 6598   7.362   4.050   2.690  0.7558  0.7523  0.1425
   52DOPE    HS 6599   7.268   4.062   2.632  1.4821 -3.1088 -2.1956
   52DOPE   O21 6600   7.383   4.149   2.792  0.1900 -0.4994 -0.9403
   52DOPE   C21 6601   7.281   4.221   2.826 -0.5555  0.0771  0.4057
   52DOPE   O22 6602   7.174   4.232   2.761 -0.0020 -0.4944 -0.4720
   52DOPE   C22 6603   7.313   4.280   2.959  0.0235 -0.4463 -0.5994
   52DOPE   H2R 6604   7.421   4.306   2.953  0.4890 -2.2443 -0.8233
   52DOPE   H2S 6605   7.297   4.196   3.030  1.6965 -0.1574  0.1718
   52DOPE    C3 6606   7.350   3.899   2.749 -1.0364 -0.0864  0.0929
   52DOPE    HX 6607   7.458   3.877   2.766 -1.0507  0.7250  1.3117
   52DOPE    HY 6608   7.300   3.830   2.677 -0.7057 -1.8095  1.4502
   52DOPE   O31 6609   7.272   3.895   2.875 -0.2126 -0.5174  0.0244
   52DOPE   C31 6610   7.139   3.915   2.868 -0.1407  0.3419 -0.1473
   52DOPE   O32 6611   7.073   3.916   2.767  0.1520  0.1799  0.0095
   52DOPE   C32 6612   7.083   3.940   3.010 -0.4049  0.6007  0.1021
   52DOPE   H2X 6613   7.091   3.844   3.064  1.0234  0.1224 -0.9213
   52DOPE   H2Y 6614   7.139   4.020   3.065  1.8259 -0.5322 -0.4143
   52DOPE   C23 6615   7.243   4.415   3.004 -0.5601 -0.5663 -0.2875
   52DOPE   H3R 6616   7.234   4.496   2.929  2.2357  0.3423  0.2556
   52DOPE   H3S 6617   7.300   4.448   3.093  2.1151 -2.2676 -1.2639
   52DOPE   C24 6618   7.104   4.396   3.066 -0.1306 -0.4301 -0.5116
   52DOPE   H4R 6619   7.096   4.298   3.119 -1.9472  0.0447  0.1566
   52DOPE   H4S 6620   7.032   4.390   2.981 -0.6718 -0.7508 -0.0407
   52DOPE   C25 6621   7.056   4.499   3.164 -0.0877  0.0772  0.3920
   52DOPE   H5R 6622   7.042   4.596   3.110  1.8002 -1.0938 -2.4512
   52DOPE   H5S 6623   7.139   4.519   3.235 -1.1356  0.1912  1.6137
   52DOPE   C26 6624   6.919   4.474   3.239  0.0872 -0.3665  0.4050
   52DOPE   H6R 6625   6.885   4.574   3.274  0.9669 -0.5776  1.9253
   52DOPE   H6S 6626   6.922   4.400   3.322 -2.4061 -0.8990  0.0878
   52DOPE   C27 6627   6.810   4.406   3.158 -0.0810 -0.3537 -0.3321
   52DOPE   H7R 6628   6.850   4.315   3.109  1.6082  0.7391 -1.0689
   52DOPE   H7S 6629   6.782   4.477   3.077 -0.2023  1.5266  1.2805
   52DOPE   C28 6630   6.683   4.382   3.232 -0.3572  0.3535  0.3408
   52DOPE   H8R 6631   6.636   4.468   3.285 -0.6179  0.3093  0.1840
   52DOPE   H8S 6632   6.701   4.302   3.307  1.8577 -0.4450 -0.9760
   52DOPE   C29 6633   6.573   4.328   3.149  0.3758  0.4875 -0.0708
   52DOPE   H9R 6634   6.597   4.232   3.100 -2.1675 -0.0914 -0.3246
   52DOPE  C210 6635   6.448   4.372   3.128 -1.2754  0.5490  0.3155
   52DOPE  H10R 6636   6.377   4.301   3.083  0.0850 -1.1253  0.7054
   52DOPE  C211 6637   6.385   4.493   3.182  0.4963  0.6497  0.2136
   52DOPE  H11R 6638   6.455   4.577   3.201  1.4805  0.1502 -1.0860
   52DOPE  H11S 6639   6.336   4.468   3.278  0.7380 -0.6400  0.0076
   52DOPE  C212 6640   6.300   4.547   3.069  0.0947  0.2918  0.3112
   52DOPE  H12R 6641   6.225   4.471   3.037  0.1761 -0.7813  2.4430
   52DOPE  H12S 6642   6.357   4.584   2.981  0.0939  0.4504  0.3768
   52DOPE  C213 6643   6.212   4.667   3.107 -0.3292 -0.1239 -0.1561
   52DOPE  H13R 6644   6.163   4.644   3.204 -1.1296 -1.7107 -0.8985
   52DOPE  H13S 6645   6.125   4.675   3.038 -0.4848 -0.0230  0.0492
   52DOPE  C214 6646   6.273   4.803   3.126  0.5093  0.5044 -0.1706
   52DOPE  H14R 6647   6.309   4.822   3.022 -0.7662  1.0383 -0.5288
   52DOPE  H14S 6648   6.355   4.811   3.200  1.3685 -0.6725 -0.9649
   52DOPE  C215 6649   6.181   4.918   3.159  0.0475  0.3587 -0.3206
   52DOPE  H15R 6650   6.125   4.881   3.247  1.1247  3.6318  1.9447
   52DOPE  H15S 6651   6.111   4.943   3.076  0.4490 -1.6726 -1.3329
   52DOPE  C216 6652   6.255   5.048   3.201 -0.3454 -0.1736 -1.1207
   52DOPE  H16R 6653   6.311   5.100   3.121 -1.1415  1.4370 -0.6741
   52DOPE  H16S 6654   6.325   5.013   3.280 -2.2564  2.4730  1.9999
   52DOPE  C217 6655   6.167   5.151   3.275  0.2465 -0.3139 -0.6430
   52DOPE  H17R 6656   6.091   5.188   3.203 -2.2892  0.1388  2.0337
   52DOPE  H17S 6657   6.210   5.249   3.306  1.0813 -0.4608 -1.3124
   52DOPE  C218 6658   6.100   5.099   3.401  0.2455 -0.3539  0.1161
   52DOPE  H18R 6659   6.047   5.183   3.451  2.1231  1.0977 -0.2213
   52DOPE  H18S 6660   6.034   5.011   3.388  0.3015 -0.5821  1.2797
   52DOPE  H18T 6661   6.185   5.078   3.470  0.3272 -0.0571  0.1080
   52DOPE   C33 6662   6.929   3.969   3.012  0.4630 -0.1093  0.2210
   52DOPE   H3X 6663   6.865   3.885   2.980  0.8985  0.4993 -2.5116
   52DOPE   H3Y 6664   6.909   4.059   2.949  1.1532  0.6498  1.0547
   52DOPE   C34 6665   6.880   4.021   3.150 -0.1564  0.7482  0.1372
   52DOPE   H4X 6666   6.922   4.124   3.161 -0.7924  0.9504  0.7419
   52DOPE   H4Y 6667   6.771   4.040   3.148 -0.9348 -2.9248  0.4210
   52DOPE   C35 6668   6.923   3.944   3.281 -0.3968  0.1592 -0.7926
   52DOPE   H5X 6669   7.027   3.905   3.275  0.2557  2.0615 -3.1893
   52DOPE   H5Y 6670   6.854   3.857   3.290  0.1889 -0.2115  0.3846
   52DOPE   C36 6671   6.913   4.030   3.412 -0.4634 -0.2986  0.6354
   52DOPE   H6X 6672   6.815   4.081   3.422 -0.1406 -0.0040  2.6226
   52DOPE   H6Y 6673   7.000   4.100   3.409 -0.4188 -0.3609  0.4625
   52DOPE   C37 6674   6.935   3.940   3.531 -0.0014  0.4290  0.6896
   52DOPE   H7X 6675   6.855   3.862   3.533  0.7078 -0.3466 -0.0559
   52DOPE   H7Y 6676   7.034   3.899   3.502 -1.2588 -1.6008 -1.1247
   52DOPE   C38 6677   6.942   4.002   3.665 -0.3726 -0.4106  0.0327
   52DOPE   H8X 6678   7.003   4.094   3.660 -1.5785  0.4948  1.3832
   52DOPE   H8Y 6679   6.999   3.930   3.728 -0.9366 -2.2466 -1.4269
   52DOPE   C39 6680   6.811   4.038   3.725  0.1072 -0.4500  0.4848
   52DOPE   H9X 6681   6.733   3.961   3.714 -1.4307  0.9788  0.7640
   52DOPE  C310 6682   6.768   4.155   3.771 -0.1659  0.5617 -0.3223
   52DOPE  H10X 6683   6.661   4.168   3.792 -0.1260 -1.7564  1.7545
   52DOPE  C311 6684   6.858   4.276   3.777  0.0784 -0.0132  1.1998
   52DOPE  H11X 6685   6.817   4.341   3.857 -1.9058 -0.0890  0.3079
   52DOPE  H11Y 6686   6.962   4.245   3.796  0.4970 -0.5009 -1.4451
   52DOPE  C312 6687   6.868   4.356   3.645  0.2208 -0.3088 -0.2318
   52DOPE  H12X 6688   6.771   4.404   3.617  0.5714  1.3405  1.2875
   52DOPE  H12Y 6689   6.894   4.282   3.565  0.6557 -1.5615  1.0269
   52DOPE  C313 6690   6.966   4.479   3.648  0.1680  0.2023 -0.8718
   52DOPE  H13X 6691   6.990   4.511   3.544  2.7353  1.0700 -0.0975
   52DOPE  H13Y 6692   6.915   4.563   3.701  1.2759  0.8764 -0.8353
   52DOPE  C314 6693   7.107   4.464   3.717 -0.2821 -0.0946 -0.5526
   52DOPE  H14X 6694   7.090   4.434   3.823  2.4150 -0.1599 -0.0602
   52DOPE  H14Y 6695   7.148   4.567   3.718  1.0602 -0.6109 -0.7040
   52DOPE  C315 6696   7.198   4.365   3.649  0.6127 -0.2951 -0.0721
   52DOPE  H15X 6697   7.145   4.268   3.660  0.6774 -0.1908  1.3715
   52DOPE  H15Y 6698   7.287   4.356   3.716  0.7074  0.2761 -0.1155
   52DOPE  C316 6699   7.234   4.389   3.494  0.2193  0.4464 -0.0831
   52DOPE  H16X 6700   7.299   4.477   3.476  0.6085  0.4428  1.2022
   52DOPE  H16Y 6701   7.134   4.419   3.456  0.3982  0.6753 -0.3732
   52DOPE  C317 6702   7.274   4.259   3.417  0.2359 -0.1697 -0.4699
   52DOPE  H17X 6703   7.203   4.175   3.432 -1.8913  0.8518 -3.6903
   52DOPE  H17Y 6704   7.282   4.289   3.310  0.5061 -1.0297 -0.6962
   52DOPE  C318 6705   7.420   4.226   3.457  0.8056 -0.1248 -1.1475
   52DOPE  H18X 6706   7.469   4.320   3.424  0.3497 -0.1197 -1.8389
   52DOPE  H18Y 6707   7.437   4.204   3.564  1.1657  0.0262 -1.1699
   52DOPE  H18Z 6708   7.465   4.145   3.396  2.1409 -1.6181  1.6408
   53DOPE     N 6709   7.011   6.800   1.460  0.1435  0.6697 -0.0833
   53DOPE   HN1 6710   7.032   6.707   1.500 -1.5551  0.9226  1.5082
   53DOPE   HN2 6711   6.908   6.813   1.470  0.1410  2.5794 -1.8453
   53DOPE   HN3 6712   7.034   6.800   1.358  1.3873  1.5041  0.1701
   53DOPE   C12 6713   7.103   6.903   1.536  0.3953 -0.6147 -0.2469
   53DOPE  H12A 6714   7.117   6.990   1.469  2.0682  0.5042  1.4407
   53DOPE  H12B 6715   7.200   6.849   1.548 -0.5987 -2.5071 -0.4069
   53DOPE   C11 6716   7.044   6.932   1.675 -0.4618 -0.3834  0.3284
   53DOPE  H11A 6717   7.116   6.998   1.727 -0.3492 -0.1810 -0.0769
   53DOPE  H11B 6718   7.044   6.831   1.721 -1.3855 -0.5277  0.0286
   53DOPE     P 6719   6.883   7.123   1.624  0.0802  0.4166 -0.0182
   53DOPE   O13 6720   6.811   7.107   1.493  0.4815 -0.0602 -0.0555
   53DOPE   O14 6721   7.003   7.205   1.618  0.6110 -0.0356 -0.0090
   53DOPE   O11 6722   6.789   7.200   1.728 -0.4157  0.1072 -0.1694
   53DOPE   O12 6723   6.906   6.970   1.667  0.2924 -0.8297  0.5367
   53DOPE    C1 6724   6.719   7.132   1.830 -0.0342  0.7434  0.2506
   53DOPE    HA 6725   6.700   7.023   1.824 -0.5463  0.5578  3.2615
   53DOPE    HB 6726   6.611   7.159   1.828 -0.2665 -0.2333 -1.3316
   53DOPE    C2 6727   6.781   7.157   1.973 -0.6413 -0.7669  0.4960
   53DOPE    HS 6728   6.734   7.083   2.042 -0.9103 -1.2237 -0.1735
   53DOPE   O21 6729   6.764   7.293   2.027  0.7202  0.2563 -0.2233
   53DOPE   C21 6730   6.641   7.324   2.073 -0.0952  0.0574  1.2283
   53DOPE   O22 6731   6.545   7.249   2.057 -0.6389 -0.1694 -0.6371
   53DOPE   C22 6732   6.648   7.470   2.133  0.2467  0.3460 -0.0305
   53DOPE   H2R 6733   6.668   7.542   2.051 -0.6560 -1.0534 -1.5351
   53DOPE   H2S 6734   6.738   7.483   2.196  0.4054  1.0682 -0.3995
   53DOPE    C3 6735   6.933   7.132   1.975 -0.1951  0.1771  0.2506
   53DOPE    HX 6736   6.990   7.210   1.921 -1.4188  0.6155 -0.4478
   53DOPE    HY 6737   6.950   7.032   1.929 -0.6014 -0.0693  0.6239
   53DOPE   O31 6738   6.984   7.141   2.111  0.0493  0.2815  0.0812
   53DOPE   C31 6739   7.010   7.023   2.175  0.0736  0.6077  0.1224
   53DOPE   O32 6740   6.968   6.911   2.141 -0.0789  0.1039  0.5230
   53DOPE   C32 6741   7.097   7.042   2.299 -0.8213  0.2563 -0.4775
   53DOPE   H2X 6742   7.078   6.960   2.372 -0.2286  3.0481  3.0313
   53DOPE   H2Y 6743   7.204   7.036   2.271 -0.1027  0.7207  1.9309
   53DOPE   C23 6744   6.514   7.511   2.201  0.3457 -0.0608  0.4944
   53DOPE   H3R 6745   6.434   7.519   2.124  0.3477 -0.9367  0.3925
   53DOPE   H3S 6746   6.542   7.612   2.238  0.0096  0.5750 -0.9261
   53DOPE   C24 6747   6.470   7.435   2.329  0.3466 -0.1204 -0.3013
   53DOPE   H4R 6748   6.538   7.456   2.414 -0.1391  1.1128 -0.1915
   53DOPE   H4S 6749   6.449   7.328   2.307  0.0452 -0.2433  0.5600
   53DOPE   C25 6750   6.336   7.487   2.383  0.4137 -0.0841  0.0379
   53DOPE   H5R 6751   6.272   7.465   2.294  0.5288  0.1457 -0.1027
   53DOPE   H5S 6752   6.347   7.595   2.406  1.3768 -0.5696  2.0234
   53DOPE   C26 6753   6.284   7.420   2.513  0.0531 -0.4759  0.1543
   53DOPE   H6R 6754   6.274   7.314   2.480 -0.2485 -0.2260 -0.5756
   53DOPE   H6S 6755   6.184   7.462   2.537  0.1712  0.0786 -0.3150
   53DOPE   C27 6756   6.378   7.441   2.634  1.2572 -0.6126  0.5142
   53DOPE   H7R 6757   6.389   7.550   2.653  0.9126 -0.5081  0.1140
   53DOPE   H7S 6758   6.476   7.395   2.608  0.6311 -1.9580  0.4179
   53DOPE   C28 6759   6.318   7.393   2.769  0.2740  0.6550 -0.3464
   53DOPE   H8R 6760   6.280   7.290   2.753 -1.1573  1.1704 -0.4291
   53DOPE   H8S 6761   6.229   7.457   2.791  1.0905  1.4663  0.6710
   53DOPE   C29 6762   6.426   7.399   2.877 -0.6528  1.5125  0.8742
   53DOPE   H9R 6763   6.526   7.376   2.836 -0.2137  0.4087  2.4816
   53DOPE  C210 6764   6.429   7.474   2.984 -0.2247 -0.6798 -0.0814
   53DOPE  H10R 6765   6.522   7.471   3.042  0.3859 -1.6963 -1.0920
   53DOPE  C211 6766   6.306   7.528   3.050 -0.6571  0.2009  0.1794
   53DOPE  H11R 6767   6.315   7.496   3.156 -0.7634  0.7317  0.3542
   53DOPE  H11S 6768   6.210   7.488   3.010  0.1737 -0.6525 -1.0384
   53DOPE  C212 6769   6.295   7.682   3.062  0.2932 -0.0436 -0.5235
   53DOPE  H12R 6770   6.246   7.728   2.973 -0.5955  2.4964  1.1434
   53DOPE  H12S 6771   6.400   7.718   3.057 -0.2328  2.0753  1.6124
   53DOPE  C213 6772   6.216   7.717   3.184  0.6384 -0.3814  0.3659
   53DOPE  H13R 6773   6.253   7.653   3.268 -1.8101 -1.7739  0.4678
   53DOPE  H13S 6774   6.115   7.688   3.148  0.7913 -0.0067 -0.3828
   53DOPE  C214 6775   6.222   7.863   3.216 -0.1294  0.0611 -0.4322
   53DOPE  H14R 6776   6.200   7.921   3.123 -1.1375  1.1008  0.4257
   53DOPE  H14S 6777   6.322   7.892   3.253 -1.2158 -0.0704  2.8929
   53DOPE  C215 6778   6.115   7.911   3.326 -0.1023 -0.7997  0.2324
   53DOPE  H15R 6779   6.119   7.843   3.414  1.2331  2.3202  2.7794
   53DOPE  H15S 6780   6.011   7.914   3.287 -0.1795 -0.9396  0.4271
   53DOPE  C216 6781   6.142   8.053   3.375  0.3878  0.0354 -0.5589
   53DOPE  H16R 6782   6.111   8.116   3.289  0.0815 -2.2014 -2.1552
   53DOPE  H16S 6783   6.251   8.059   3.399  0.1923 -0.1903  0.4501
   53DOPE  C217 6784   6.056   8.098   3.498  0.3431 -0.3009  0.3328
   53DOPE  H17R 6785   6.064   8.018   3.574 -0.6779 -2.1151 -1.3703
   53DOPE  H17S 6786   5.948   8.106   3.473 -0.2731  1.1201  3.0811
   53DOPE  C218 6787   6.089   8.233   3.551 -0.0821  0.0898  0.2302
   53DOPE  H18R 6788   6.029   8.254   3.641 -0.0331 -2.4405  0.9186
   53DOPE  H18S 6789   6.076   8.315   3.477 -0.1986  0.5075  0.7165
   53DOPE  H18T 6790   6.196   8.230   3.580  0.2963  1.1870 -0.9501
   53DOPE   C33 6791   7.078   7.182   2.361 -0.2908  0.3482 -0.3991
   53DOPE   H3X 6792   7.096   7.261   2.285 -1.5178  0.2112 -0.8416
   53DOPE   H3Y 6793   7.152   7.181   2.444 -1.7977 -1.3433  1.0120
   53DOPE   C34 6794   6.937   7.202   2.422 -0.1926  0.4071 -0.2092
   53DOPE   H4X 6795   6.862   7.197   2.341 -0.4231  2.6123 -0.2099
   53DOPE   H4Y 6796   6.920   7.111   2.483 -1.3756  0.8661  0.1669
   53DOPE   C35 6797   6.937   7.339   2.493  0.0213  0.5354  0.3700
   53DOPE   H5X 6798   6.960   7.423   2.424 -0.0155  1.8172  1.8625
   53DOPE   H5Y 6799   7.008   7.333   2.579 -3.2291 -3.2658  3.1897
   53DOPE   C36 6800   6.797   7.372   2.563  0.2664  0.1168  0.0970
   53DOPE   H6X 6801   6.782   7.296   2.643 -0.1402 -1.3871 -1.3537
   53DOPE   H6Y 6802   6.710   7.339   2.501  0.4749  1.0596 -0.7120
   53DOPE   C37 6803   6.778   7.514   2.613  0.0581  0.1489 -0.0964
   53DOPE   H7X 6804   6.792   7.578   2.523 -0.3419 -0.4763 -0.6126
   53DOPE   H7Y 6805   6.678   7.538   2.656 -0.5690  1.0833 -1.9456
   53DOPE   C38 6806   6.883   7.561   2.719 -0.6255 -0.9902 -0.4942
   53DOPE   H8X 6807   6.983   7.553   2.672 -1.6120 -0.4905 -2.8307
   53DOPE   H8Y 6808   6.891   7.485   2.799  2.9157  0.2956  0.5867
   53DOPE   C39 6809   6.881   7.709   2.766  0.5434 -0.1499 -0.2437
   53DOPE   H9X 6810   6.869   7.785   2.687  0.1913 -0.1320 -0.1752
   53DOPE  C310 6811   6.883   7.749   2.892  0.3868  0.0916 -0.4960
   53DOPE  H10X 6812   6.888   7.857   2.911  1.0421  0.1314 -0.8648
   53DOPE  C311 6813   6.885   7.657   3.017 -0.3847 -0.6283  0.1399
   53DOPE  H11X 6814   6.781   7.664   3.054 -0.4431  4.5204 -0.3310
   53DOPE  H11Y 6815   6.923   7.555   2.991  0.3024 -0.3692  0.1035
   53DOPE  C312 6816   6.978   7.729   3.124 -0.0765  0.2517  0.2931
   53DOPE  H12X 6817   6.970   7.839   3.116  1.4228  0.3139 -0.7686
   53DOPE  H12Y 6818   7.084   7.697   3.120  0.8226  2.8894  1.0997
   53DOPE  C313 6819   6.917   7.694   3.263  0.7807  0.5292 -0.3252
   53DOPE  H13X 6820   6.811   7.726   3.265  1.1498  1.8106  0.7789
   53DOPE  H13Y 6821   6.917   7.583   3.268  0.9759  0.5236 -0.4237
   53DOPE  C314 6822   6.989   7.763   3.380  0.1169 -0.2593 -0.2351
   53DOPE  H14X 6823   6.964   7.871   3.379 -1.1821 -0.5002 -3.3480
   53DOPE  H14Y 6824   7.097   7.753   3.361  0.5685  2.1447  0.6952
   53DOPE  C315 6825   6.969   7.705   3.516  0.4051  0.2823  0.2248
   53DOPE  H15X 6826   7.015   7.603   3.519 -0.9020 -0.3925 -1.1487
   53DOPE  H15Y 6827   6.860   7.689   3.529  0.1253  1.2849 -0.7235
   53DOPE  C316 6828   7.024   7.775   3.635  0.1635 -0.0759  0.1471
   53DOPE  H16X 6829   7.132   7.783   3.607  0.2263 -0.4233  0.2827
   53DOPE  H16Y 6830   7.007   7.716   3.727 -1.4622 -1.8028 -1.1827
   53DOPE  C317 6831   6.977   7.923   3.655 -0.0839  0.0752  0.2978
   53DOPE  H17X 6832   7.007   7.978   3.563  1.1013  0.0666  0.6625
   53DOPE  H17Y 6833   6.867   7.906   3.646 -0.4449  2.4262 -0.3871
   53DOPE  C318 6834   7.024   7.989   3.782  0.0209 -0.2564 -1.3653
   53DOPE  H18X 6835   7.135   7.985   3.795 -0.1865  1.0720  1.7885
   53DOPE  H18Y 6836   6.990   8.094   3.784 -0.2682 -0.3545 -0.6106
   53DOPE  H18Z 6837   6.979   7.936   3.869  2.0812  1.8295  1.1314
   54DOPE     N 6838   0.045   2.649   1.998  0.0099  0.4586  0.2754
   54DOPE   HN1 6839   0.084   2.563   1.957 -0.7593 -0.9679  2.3393
   54DOPE   HN2 6840  -0.009   2.622   2.083 -3.3245  2.5478 -0.9535
   54DOPE   HN3 6841  -0.026   2.694   1.936  0.6939  0.3493 -0.6025
   54DOPE   C12 6842   0.153   2.744   2.029  0.2922 -0.6278  0.7308
   54DOPE  H12A 6843   0.218   2.747   1.938  1.0725  1.2573  1.3058
   54DOPE  H12B 6844   0.215   2.706   2.113  0.5679 -1.8169  0.0300
   54DOPE   C11 6845   0.104   2.896   2.042  1.0357  0.7517 -0.6317
   54DOPE  H11A 6846   0.055   2.940   1.952 -1.0180  1.6293  0.8501
   54DOPE  H11B 6847   0.197   2.955   2.057  0.6856  0.7349  2.0212
   54DOPE     P 6848   0.021   2.970   2.289 -0.0266 -0.4231  0.0332
   54DOPE   O13 6849   0.034   3.115   2.279 -0.3708 -0.5053  0.6097
   54DOPE   O14 6850   0.113   2.902   2.375  0.1739  0.1474  0.5874
   54DOPE   O11 6851  -0.120   2.947   2.352  0.3939  0.0166 -0.8371
   54DOPE   O12 6852   0.006   2.909   2.146 -0.1529 -0.2719  0.1762
   54DOPE    C1 6853  -0.220   3.051   2.351 -0.0073 -0.0582  0.0742
   54DOPE    HA 6854  -0.248   3.069   2.245 -1.0134  0.4295  0.4104
   54DOPE    HB 6855  -0.192   3.148   2.398  1.5010 -0.3779 -0.1174
   54DOPE    C2 6856  -0.351   2.994   2.408  0.1994 -0.4201 -0.0093
   54DOPE    HS 6857  -0.430   3.071   2.422 -0.0142 -0.8656  1.3738
   54DOPE   O21 6858  -0.330   2.937   2.536  0.1860  0.6155 -0.4559
   54DOPE   C21 6859  -0.276   3.021   2.627  0.0365  0.6573  0.0341
   54DOPE   O22 6860  -0.278   3.144   2.627 -0.0514  0.2335  0.7385
   54DOPE   C22 6861  -0.216   2.940   2.752  0.1796 -0.4353  0.0177
   54DOPE   H2R 6862  -0.133   2.874   2.720 -1.8640 -2.5229 -1.2875
   54DOPE   H2S 6863  -0.290   2.861   2.780  1.3233 -1.7443 -0.5604
   54DOPE    C3 6864  -0.406   2.889   2.304 -0.2194 -0.2207 -0.0777
   54DOPE    HX 6865  -0.344   2.797   2.298  0.7268  0.3345  0.7988
   54DOPE    HY 6866  -0.406   2.922   2.198 -1.7950 -0.7530 -0.2711
   54DOPE   O31 6867  -0.535   2.837   2.342  0.5327 -0.0737  0.0637
   54DOPE   C31 6868  -0.644   2.894   2.289  0.1699 -0.2497  0.3557
   54DOPE   O32 6869  -0.637   2.979   2.205  0.4352  0.3711 -0.0211
   54DOPE   C32 6870  -0.776   2.843   2.352 -1.0228  0.1411  0.3330
   54DOPE   H2X 6871  -0.796   2.751   2.293 -1.3174 -0.4359  1.3141
   54DOPE   H2Y 6872  -0.760   2.805   2.455  0.4960  1.4561  0.6210
   54DOPE   C23 6873  -0.167   3.035   2.866  0.0633 -0.0596  0.0184
   54DOPE   H3R 6874  -0.244   3.111   2.893  0.8725  0.9969 -0.5859
   54DOPE   H3S 6875  -0.085   3.095   2.822 -0.3662  2.1122  2.0056
   54DOPE   C24 6876  -0.132   2.960   2.999  0.0828 -0.5057  0.6611
   54DOPE   H4R 6877  -0.067   2.874   2.972 -0.7890 -1.5060  1.6531
   54DOPE   H4S 6878  -0.232   2.920   3.026  0.1718  0.5242  2.7187
   54DOPE   C25 6879  -0.071   3.053   3.105  0.1417 -0.2583 -0.0206
   54DOPE   H5R 6880  -0.117   3.153   3.093  0.0126 -0.2725  0.3473
   54DOPE   H5S 6881   0.039   3.067   3.096  0.0330  1.0880  0.5559
   54DOPE   C26 6882  -0.114   2.998   3.249 -0.2019  0.7776  0.3009
   54DOPE   H6R 6883  -0.056   3.051   3.327 -1.4549  0.6555  1.3473
   54DOPE   H6S 6884  -0.076   2.895   3.268  0.7034  1.0593  0.0489
   54DOPE   C27 6885  -0.259   3.024   3.268  0.2488 -0.3228 -1.0445
   54DOPE   H7R 6886  -0.317   2.958   3.201 -0.9134 -1.5466  1.0608
   54DOPE   H7S 6887  -0.292   3.130   3.259 -1.3527 -0.5707  1.0614
   54DOPE   C28 6888  -0.300   2.987   3.411  0.2969 -0.2631  0.4219
   54DOPE   H8R 6889  -0.238   3.055   3.474 -2.7860  0.9559  2.3534
   54DOPE   H8S 6890  -0.273   2.879   3.415  1.0248 -0.2501 -2.0885
   54DOPE   C29 6891  -0.440   2.994   3.451 -0.0836 -0.5477  0.1472
   54DOPE   H9R 6892  -0.497   2.900   3.452 -1.1937  0.1048  0.8490
   54DOPE  C210 6893  -0.506   3.090   3.515  0.0922  0.1279 -0.1723
   54DOPE  H10R 6894  -0.614   3.074   3.526  0.2140 -1.3290 -0.9150
   54DOPE  C211 6895  -0.452   3.226   3.549  0.3141  0.2069 -0.4495
   54DOPE  H11R 6896  -0.478   3.304   3.473 -1.1571  0.2150  0.0407
   54DOPE  H11S 6897  -0.346   3.225   3.584 -0.5749  1.4369  2.6115
   54DOPE  C212 6898  -0.523   3.272   3.683 -0.2633 -0.2017 -0.2655
   54DOPE  H12R 6899  -0.632   3.253   3.675 -0.7649  1.7492  1.1474
   54DOPE  H12S 6900  -0.509   3.379   3.707 -0.5067 -0.9463  4.2452
   54DOPE  C213 6901  -0.476   3.200   3.805 -0.5249  0.0898 -0.2818
   54DOPE  H13R 6902  -0.369   3.226   3.813 -0.3328  0.0538 -2.2648
   54DOPE  H13S 6903  -0.485   3.090   3.791 -1.8632  0.1953 -0.4110
   54DOPE  C214 6904  -0.534   3.242   3.935  0.2775 -0.2404 -0.4590
   54DOPE  H14R 6905  -0.639   3.205   3.938  0.8940 -2.1165 -0.8366
   54DOPE  H14S 6906  -0.533   3.353   3.930 -0.9832 -0.1834  0.1894
   54DOPE  C215 6907  -0.445   3.200   4.055  0.0916 -0.3578 -0.8990
   54DOPE  H15R 6908  -0.339   3.219   4.030  0.4438 -1.2287 -0.1525
   54DOPE  H15S 6909  -0.426   3.092   4.070 -0.3019 -0.1670  1.4240
   54DOPE  C216 6910  -0.494   3.263   4.190 -0.1942  0.8629  0.0256
   54DOPE  H16R 6911  -0.589   3.212   4.215  0.1333 -0.4137 -1.2343
   54DOPE  H16S 6912  -0.523   3.370   4.177 -0.4391  0.8459  0.4022
   54DOPE  C217 6913  -0.396   3.255   4.307 -0.3397  0.6799  0.1478
   54DOPE  H17R 6914  -0.368   3.147   4.308 -2.3223  0.0706 -1.6392
   54DOPE  H17S 6915  -0.450   3.270   4.403 -1.3382  1.8884 -0.5619
   54DOPE  C218 6916  -0.263   3.335   4.298  0.3654 -0.7471 -0.9621
   54DOPE  H18R 6917  -0.193   3.306   4.217  0.0017  1.0760 -1.9847
   54DOPE  H18S 6918  -0.207   3.317   4.393 -0.9714 -1.1436 -0.2192
   54DOPE  H18T 6919  -0.291   3.441   4.282 -0.6704 -1.2227 -2.4966
   54DOPE   C33 6920  -0.897   2.938   2.334 -0.2439  0.2668 -0.0847
   54DOPE   H3X 6921  -0.993   2.881   2.332 -0.9965  1.5187 -0.5178
   54DOPE   H3Y 6922  -0.884   3.003   2.246 -1.4427  0.7757  0.0976
   54DOPE   C34 6923  -0.905   3.031   2.451 -0.0864 -0.1274  0.4623
   54DOPE   H4X 6924  -0.813   3.086   2.482 -1.0549  0.3669  2.6964
   54DOPE   H4Y 6925  -0.967   3.116   2.415 -1.3456 -1.7000 -1.2247
   54DOPE   C35 6926  -0.973   2.956   2.568 -0.3661 -0.4486 -0.1504
   54DOPE   H5X 6927  -0.922   2.863   2.600  2.3011 -0.0384 -2.7768
   54DOPE   H5Y 6928  -1.075   2.925   2.539 -1.9737  2.1828  2.1720
   54DOPE   C36 6929  -1.000   3.056   2.683 -0.2831  0.1640 -0.0327
   54DOPE   H6X 6930  -1.044   3.153   2.652 -2.2327 -0.8932 -0.7892
   54DOPE   H6Y 6931  -0.897   3.080   2.717 -0.8031 -1.7808  3.3494
   54DOPE   C37 6932  -1.080   2.999   2.799  0.2861  0.4768  0.3649
   54DOPE   H7X 6933  -1.179   2.967   2.760  1.3255 -1.0835 -1.1373
   54DOPE   H7Y 6934  -1.029   2.910   2.842  1.7834 -0.0722 -2.3372
   54DOPE   C38 6935  -1.102   3.091   2.915 -0.5816  0.1416 -0.1969
   54DOPE   H8X 6936  -1.129   3.191   2.874  1.7689  1.5383  1.4177
   54DOPE   H8Y 6937  -1.008   3.099   2.974 -1.4999 -1.9058  1.6551
   54DOPE   C39 6938  -1.212   3.041   3.007 -0.8967  0.5911 -0.1332
   54DOPE   H9X 6939  -1.249   2.945   2.967 -4.1521  1.9685 -0.7129
   54DOPE  C310 6940  -1.265   3.088   3.118  0.0526 -0.7176 -0.7121
   54DOPE  H10X 6941  -1.331   3.023   3.177  1.7729 -0.0673  2.1348
   54DOPE  C311 6942  -1.240   3.215   3.198 -0.0353 -0.3949  0.0901
   54DOPE  H11X 6943  -1.135   3.239   3.168 -0.2823 -0.9224 -1.2693
   54DOPE  H11Y 6944  -1.311   3.294   3.164  1.1569  1.1045  0.9485
   54DOPE  C312 6945  -1.249   3.206   3.350  0.1017  0.3450 -0.1768
   54DOPE  H12X 6946  -1.154   3.169   3.393 -0.5960  1.2323  2.2536
   54DOPE  H12Y 6947  -1.333   3.136   3.372 -0.2927  1.2300  1.2215
   54DOPE  C313 6948  -1.289   3.343   3.406  0.6788 -0.4106 -0.9697
   54DOPE  H13X 6949  -1.207   3.414   3.381  0.7654  0.2972  1.1315
   54DOPE  H13Y 6950  -1.381   3.383   3.359  0.1073  1.7642  1.7309
   54DOPE  C314 6951  -1.314   3.343   3.560  0.1486  0.4879 -0.2414
   54DOPE  H14X 6952  -1.214   3.305   3.591  0.5346  0.4695 -1.4255
   54DOPE  H14Y 6953  -1.384   3.264   3.595  1.1239  0.7897  2.6471
   54DOPE  C315 6954  -1.368   3.474   3.622  0.0553 -0.4858  0.5086
   54DOPE  H15X 6955  -1.474   3.494   3.595  0.9551  2.1845 -1.5383
   54DOPE  H15Y 6956  -1.298   3.547   3.576 -0.5581 -0.0627  0.2300
   54DOPE  C316 6957  -1.355   3.482   3.772 -0.6771  0.0314 -0.2982
   54DOPE  H16X 6958  -1.248   3.486   3.803 -0.7228  3.0169 -0.2843
   54DOPE  H16Y 6959  -1.405   3.393   3.815 -2.0199  1.1255  0.4744
   54DOPE  C317 6960  -1.412   3.612   3.827 -0.3518 -0.2600  0.0431
   54DOPE  H17X 6961  -1.361   3.698   3.779 -1.5448  0.6422  0.3409
   54DOPE  H17Y 6962  -1.522   3.612   3.812 -0.6621  0.0540  2.0085
   54DOPE  C318 6963  -1.393   3.628   3.973 -0.2410 -0.2385 -0.7073
   54DOPE  H18X 6964  -1.286   3.650   3.996 -0.2192 -0.0567 -0.9885
   54DOPE  H18Y 6965  -1.456   3.709   4.016 -0.5758 -1.6535  1.6887
   54DOPE  H18Z 6966  -1.414   3.535   4.031 -1.7215  0.7405  0.4011
   55DOPE     N 6967   0.707   5.596   2.900 -0.4594 -0.2939 -0.1918
   55DOPE   HN1 6968   0.797   5.643   2.876  0.2776 -0.7110  1.5949
   55DOPE   HN2 6969   0.727   5.546   2.989  0.8173 -1.4860 -1.0858
   55DOPE   HN3 6970   0.682   5.520   2.833 -3.3323 -1.2463  1.7790
   55DOPE   C12 6971   0.597   5.692   2.903  0.0422 -0.0539  0.2025
   55DOPE  H12A 6972   0.592   5.730   3.008  1.5743  2.0960 -0.4261
   55DOPE  H12B 6973   0.499   5.643   2.887  0.2405 -0.4078  0.0602
   55DOPE   C11 6974   0.609   5.808   2.800 -0.4691 -0.0586 -0.4619
   55DOPE  H11A 6975   0.533   5.886   2.822 -0.5165  0.6463 -2.7765
   55DOPE  H11B 6976   0.593   5.766   2.699 -1.7256  0.7508 -0.6168
   55DOPE     P 6977   0.803   5.964   2.719 -0.0937  0.3178 -0.6811
   55DOPE   O13 6978   0.694   6.036   2.655  0.8812  0.2841 -0.1634
   55DOPE   O14 6979   0.907   5.912   2.622  0.4918 -0.0356  0.0722
   55DOPE   O11 6980   0.868   6.052   2.824  0.2816 -0.4933 -0.2298
   55DOPE   O12 6981   0.741   5.849   2.802  0.2128  0.3131 -0.6568
   55DOPE    C1 6982   0.941   6.004   2.938  0.3153 -0.4159 -0.2881
   55DOPE    HA 6983   1.012   6.080   2.978  0.2162 -0.0367 -0.8267
   55DOPE    HB 6984   0.999   5.914   2.909 -0.1282  0.2112 -3.4517
   55DOPE    C2 6985   0.855   5.956   3.057  0.9440  0.2936  0.4426
   55DOPE    HS 6986   0.787   5.876   3.021 -3.2091  2.1490  3.3792
   55DOPE   O21 6987   0.780   6.070   3.106  0.1031 -0.1297  0.0210
   55DOPE   C21 6988   0.655   6.053   3.134  0.5210  0.1209  0.7070
   55DOPE   O22 6989   0.584   5.955   3.122  0.2526 -0.0889  0.4461
   55DOPE   C22 6990   0.609   6.175   3.212  0.7301  0.2686 -0.4106
   55DOPE   H2R 6991   0.514   6.198   3.160  0.0536  1.2647  1.1687
   55DOPE   H2S 6992   0.681   6.258   3.199  0.3507  0.5618 -0.6736
   55DOPE    C3 6993   0.939   5.894   3.169 -0.0222 -0.4831 -0.1008
   55DOPE    HX 6994   0.998   5.981   3.204 -0.9620  0.7469 -1.4184
   55DOPE    HY 6995   1.016   5.824   3.132  0.3820 -0.1990  0.1945
   55DOPE   O31 6996   0.858   5.841   3.275 -0.2420  0.7618 -0.4316
   55DOPE   C31 6997   0.779   5.729   3.255 -1.0319  0.3632 -0.0247
   55DOPE   O32 6998   0.789   5.660   3.155 -0.4540  0.0740 -0.3589
   55DOPE   C32 6999   0.683   5.714   3.366 -0.3099 -0.3491  0.2723
   55DOPE   H2X 7000   0.734   5.653   3.443  2.8365 -0.9101 -2.0579
   55DOPE   H2Y 7001   0.660   5.816   3.404  1.8368 -0.6599  2.6529
   55DOPE   C23 7002   0.569   6.141   3.357  0.2749 -0.1428  0.8421
   55DOPE   H3R 7003   0.506   6.049   3.356 -1.9020  1.2731 -0.3795
   55DOPE   H3S 7004   0.495   6.220   3.383 -1.3421 -0.0039 -3.4109
   55DOPE   C24 7005   0.685   6.134   3.455  0.2327 -0.1074  0.2522
   55DOPE   H4R 7006   0.727   6.236   3.457  0.9250 -0.3912  0.6042
   55DOPE   H4S 7007   0.757   6.058   3.417  1.5300 -0.7378  3.5418
   55DOPE   C25 7008   0.653   6.081   3.596  0.4817 -0.0484 -0.0691
   55DOPE   H5R 7009   0.588   5.991   3.603  1.5082 -0.7111  1.4826
   55DOPE   H5S 7010   0.595   6.167   3.635 -3.6247 -2.4437 -0.4282
   55DOPE   C26 7011   0.780   6.045   3.679 -0.1182  0.1671  0.2761
   55DOPE   H6R 7012   0.841   6.137   3.695  0.4231  0.3026 -2.1515
   55DOPE   H6S 7013   0.825   5.962   3.621 -3.1867 -2.1579  0.9855
   55DOPE   C27 7014   0.751   5.989   3.820 -0.1709  0.3680  0.7111
   55DOPE   H7R 7015   0.694   5.894   3.809 -0.8034  0.9519 -1.5981
   55DOPE   H7S 7016   0.690   6.069   3.867 -0.3515 -0.1022  1.2974
   55DOPE   C28 7017   0.866   5.960   3.916  0.4532  0.2516  1.0336
   55DOPE   H8R 7018   0.821   5.897   3.995  0.3710 -1.1174 -0.0669
   55DOPE   H8S 7019   0.906   6.054   3.959 -1.1692  0.6343  1.7972
   55DOPE   C29 7020   0.983   5.884   3.856  0.8380 -0.3932  0.1487
   55DOPE   H9R 7021   1.022   5.924   3.762 -0.4310  3.1704  0.9699
   55DOPE  C210 7022   1.040   5.774   3.908  0.8156  0.0447 -0.0646
   55DOPE  H10R 7023   1.122   5.730   3.851  0.5613 -0.3868 -0.1032
   55DOPE  C211 7024   1.016   5.699   4.039 -0.7514  0.1563  0.0536
   55DOPE  H11R 7025   0.989   5.780   4.111  0.0503  0.2621  0.2440
   55DOPE  H11S 7026   1.102   5.640   4.077 -1.7185 -1.1347  0.3197
   55DOPE  C212 7027   0.899   5.599   4.033  0.3928  0.9126 -0.1865
   55DOPE  H12R 7028   0.932   5.523   3.959  0.9371  0.3153  0.6589
   55DOPE  H12S 7029   0.807   5.657   4.011 -0.2269  1.1898  2.7485
   55DOPE  C213 7030   0.886   5.534   4.170 -0.2779  0.0182  0.6519
   55DOPE  H13R 7031   0.871   5.609   4.252  0.7589  0.7040  0.2421
   55DOPE  H13S 7032   0.982   5.481   4.182 -1.0508 -1.6140 -0.1774
   55DOPE  C214 7033   0.777   5.423   4.163 -0.0270  0.2496 -0.3013
   55DOPE  H14R 7034   0.807   5.356   4.079 -0.0120  0.5772 -0.5556
   55DOPE  H14S 7035   0.674   5.457   4.142 -0.7922 -1.2165  0.8554
   55DOPE  C215 7036   0.779   5.337   4.293  0.1783 -0.4807  0.0320
   55DOPE  H15R 7037   0.768   5.403   4.382  1.0303  0.1265 -0.2931
   55DOPE  H15S 7038   0.882   5.296   4.304  0.9608  1.7055  1.5997
   55DOPE  C216 7039   0.664   5.242   4.308  0.6030  0.0202  0.7579
   55DOPE  H16R 7040   0.569   5.300   4.309 -0.6800 -1.9668  0.3618
   55DOPE  H16S 7041   0.677   5.194   4.408 -2.1319 -1.7826  0.3649
   55DOPE  C217 7042   0.652   5.138   4.198 -0.0506 -0.2314  0.2378
   55DOPE  H17R 7043   0.756   5.100   4.183 -0.0773 -0.6553  1.0909
   55DOPE  H17S 7044   0.628   5.195   4.106  1.0477  2.3200  1.4234
   55DOPE  C218 7045   0.554   5.028   4.226 -0.2464  0.1164  0.1713
   55DOPE  H18R 7046   0.450   5.067   4.230  0.4772  2.2048  0.1078
   55DOPE  H18S 7047   0.569   4.978   4.324 -3.4259 -3.5729 -0.9512
   55DOPE  H18T 7048   0.571   4.950   4.149 -0.1962 -0.4761  0.7765
   55DOPE   C33 7049   0.563   5.640   3.314  0.6019  0.2723  0.0459
   55DOPE   H3X 7050   0.600   5.536   3.299  1.3100 -0.0962  3.5144
   55DOPE   H3Y 7051   0.518   5.683   3.222  1.0966  0.4651 -0.1091
   55DOPE   C34 7052   0.457   5.627   3.417 -0.0666 -0.6473  0.7539
   55DOPE   H4X 7053   0.374   5.567   3.374 -0.0334  0.4037 -0.8164
   55DOPE   H4Y 7054   0.505   5.579   3.505  1.5312 -2.5369 -1.0402
   55DOPE   C35 7055   0.404   5.765   3.452  0.6350 -0.6341 -1.3146
   55DOPE   H5X 7056   0.391   5.826   3.360 -3.4414 -1.1098 -1.2437
   55DOPE   H5Y 7057   0.462   5.817   3.531  2.2579 -0.6665 -2.4522
   55DOPE   C36 7058   0.255   5.739   3.495 -0.2291  0.5250 -0.2424
   55DOPE   H6X 7059   0.247   5.653   3.565 -2.0022  0.5955 -0.3151
   55DOPE   H6Y 7060   0.202   5.713   3.401  0.4202  1.2436 -0.8245
   55DOPE   C37 7061   0.191   5.866   3.556 -0.4619  0.2398 -0.8089
   55DOPE   H7X 7062   0.244   5.889   3.651  1.7334 -3.2556 -0.9969
   55DOPE   H7Y 7063   0.205   5.938   3.472 -2.0860 -0.6139 -1.8610
   55DOPE   C38 7064   0.039   5.840   3.569 -0.8014  0.5118 -0.8952
   55DOPE   H8X 7065   0.011   5.799   3.469 -0.2196  1.6690 -1.5490
   55DOPE   H8Y 7066  -0.027   5.926   3.594 -1.7695 -0.6870  0.9035
   55DOPE   C39 7067  -0.007   5.725   3.658  0.2476  0.2864 -0.4898
   55DOPE   H9X 7068  -0.002   5.627   3.609  2.0527  0.2679 -0.3576
   55DOPE  C310 7069  -0.043   5.738   3.790 -0.6790 -0.2047  0.2806
   55DOPE  H10X 7070  -0.081   5.652   3.846 -1.0155  0.3508  0.9276
   55DOPE  C311 7071  -0.032   5.865   3.868  0.5595 -0.6023  0.0940
   55DOPE  H11X 7072   0.009   5.945   3.804  1.9114 -2.0179 -0.8606
   55DOPE  H11Y 7073  -0.125   5.914   3.904  2.3018  3.3774 -0.3427
   55DOPE  C312 7074   0.068   5.848   3.985 -0.3776 -0.3615 -0.0139
   55DOPE  H12X 7075   0.050   5.763   4.055  0.0550  0.3842  1.0307
   55DOPE  H12Y 7076   0.055   5.936   4.051 -3.5250  0.8455 -1.9964
   55DOPE  C313 7077   0.213   5.855   3.943 -0.0970  0.0724  0.3520
   55DOPE  H13X 7078   0.224   5.781   3.861 -1.6098 -1.2560  1.2893
   55DOPE  H13Y 7079   0.233   5.955   3.899 -1.1119  0.2327  0.2265
   55DOPE  C314 7080   0.305   5.840   4.059 -0.6029 -0.3716 -0.1698
   55DOPE  H14X 7081   0.297   5.737   4.099 -0.8304 -0.5515 -0.6820
   55DOPE  H14Y 7082   0.287   5.921   4.133 -0.5950 -0.2861 -0.2605
   55DOPE  C315 7083   0.455   5.855   4.027  0.3547  0.5060  0.3846
   55DOPE  H15X 7084   0.482   5.960   4.002  2.9281  0.1910  1.5523
   55DOPE  H15Y 7085   0.485   5.798   3.936 -1.2484  0.4156 -0.1165
   55DOPE  C316 7086   0.550   5.820   4.144  0.3180  0.0773  0.2127
   55DOPE  H16X 7087   0.654   5.807   4.106 -0.6626 -1.9795 -2.0852
   55DOPE  H16Y 7088   0.525   5.718   4.179 -1.1648  0.7251  1.1319
   55DOPE  C317 7089   0.557   5.925   4.256  0.3050 -0.2881 -0.0622
   55DOPE  H17X 7090   0.569   6.028   4.216 -2.3510 -0.9425 -2.9539
   55DOPE  H17Y 7091   0.457   5.925   4.305 -0.7864 -1.4246 -2.1529
   55DOPE  C318 7092   0.663   5.894   4.366 -0.3443  0.1065  0.1434
   55DOPE  H18X 7093   0.630   5.797   4.407  1.3841 -1.4450 -1.9149
   55DOPE  H18Y 7094   0.761   5.876   4.317  0.7155  0.3920  2.0562
   55DOPE  H18Z 7095   0.673   5.968   4.448 -0.7344  0.1873  0.1187
   56DOPE     N 7096   0.891   7.275   2.984  0.2522  0.9407  0.7024
   56DOPE   HN1 7097   0.913   7.248   2.886  1.0966 -0.4647  1.2533
   56DOPE   HN2 7098   0.900   7.184   3.033  1.1701  1.3807  1.3876
   56DOPE   HN3 7099   0.789   7.295   2.983 -0.4876 -2.1546 -1.3903
   56DOPE   C12 7100   0.977   7.393   3.022  0.5262  0.8833 -0.3299
   56DOPE  H12A 7101   0.950   7.431   3.123 -2.1425  2.7008 -1.5970
   56DOPE  H12B 7102   0.959   7.477   2.952  2.8701  3.1152  1.5627
   56DOPE   C11 7103   1.122   7.347   3.035  0.5944 -0.0819  0.3015
   56DOPE  H11A 7104   1.144   7.271   3.114 -0.7408 -0.2085  0.5773
   56DOPE  H11B 7105   1.174   7.442   3.058  1.3376  0.1728 -2.1575
   56DOPE     P 7106   1.208   7.169   2.853  0.5607 -0.2156  0.1793
   56DOPE   O13 7107   1.336   7.132   2.913 -0.0861  0.0392  0.4109
   56DOPE   O14 7108   1.210   7.176   2.704 -0.0915 -0.1048  0.5399
   56DOPE   O11 7109   1.092   7.072   2.896  0.1635 -0.0588  0.2790
   56DOPE   O12 7110   1.160   7.310   2.902  0.1833  0.2250  0.5037
   56DOPE    C1 7111   1.050   6.957   2.825 -0.3112  0.5528  0.7546
   56DOPE    HA 7112   1.143   6.896   2.820  1.2590  2.6961  1.9798
   56DOPE    HB 7113   1.022   6.981   2.720  2.8812 -0.5993 -0.4940
   56DOPE    C2 7114   0.924   6.886   2.876  0.4603  0.3020 -0.1583
   56DOPE    HS 7115   0.835   6.952   2.880  1.3861  1.5493  0.4203
   56DOPE   O21 7116   0.968   6.839   3.006 -0.3453 -0.3738  0.1349
   56DOPE   C21 7117   0.953   6.923   3.105  0.5048  0.1257  0.2075
   56DOPE   O22 7118   0.910   7.035   3.099 -0.2071  0.1359  0.0277
   56DOPE   C22 7119   1.004   6.858   3.226 -0.0396  0.6694  0.7032
   56DOPE   H2R 7120   1.090   6.923   3.251  1.3802 -0.5662 -0.7584
   56DOPE   H2S 7121   1.055   6.762   3.206  2.8642  2.4016 -0.9815
   56DOPE    C3 7122   0.884   6.775   2.783 -0.1273  0.2681 -0.5006
   56DOPE    HX 7123   0.958   6.695   2.762  0.7665  0.6904  0.8551
   56DOPE    HY 7124   0.866   6.820   2.683  0.0403 -2.0056 -1.6208
   56DOPE   O31 7125   0.764   6.727   2.834  0.4278 -0.2105 -0.2337
   56DOPE   C31 7126   0.761   6.604   2.885 -0.4796  0.4433  0.2128
   56DOPE   O32 7127   0.848   6.518   2.870  0.0818  0.1591 -0.4998
   56DOPE   C32 7128   0.642   6.593   2.973  0.2427 -0.2528 -0.6707
   56DOPE   H2X 7129   0.566   6.666   2.940  0.7071  0.5604  0.0243
   56DOPE   H2Y 7130   0.598   6.491   2.977 -2.5577  0.8376 -1.0514
   56DOPE   C23 7131   0.894   6.847   3.333  0.4827 -0.4999 -0.0858
   56DOPE   H3R 7132   0.858   6.742   3.334  3.3643 -1.5961  1.2421
   56DOPE   H3S 7133   0.808   6.916   3.318  1.4058  0.7164  0.0282
   56DOPE   C24 7134   0.955   6.865   3.469  0.1610  0.7733 -0.4417
   56DOPE   H4R 7135   0.971   6.973   3.492  0.0398  0.5111  0.8947
   56DOPE   H4S 7136   1.053   6.812   3.465  1.6490  3.2741  0.6490
   56DOPE   C25 7137   0.866   6.805   3.584 -0.9052  0.8496 -0.2114
   56DOPE   H5R 7138   0.833   6.702   3.559 -0.5913  0.5421  0.6080
   56DOPE   H5S 7139   0.777   6.871   3.595 -0.7110  1.1959 -0.6645
   56DOPE   C26 7140   0.932   6.810   3.724 -0.4521  0.0370  0.5814
   56DOPE   H6R 7141   0.969   6.912   3.749  0.6023  0.3201 -1.8457
   56DOPE   H6S 7142   1.019   6.741   3.723 -0.2947  0.2291 -1.0440
   56DOPE   C27 7143   0.835   6.755   3.825  0.4768 -0.2735  0.3394
   56DOPE   H7R 7144   0.787   6.662   3.785 -0.6593  0.6596 -0.5508
   56DOPE   H7S 7145   0.749   6.826   3.817  1.4314  0.7923 -0.7501
   56DOPE   C28 7146   0.882   6.755   3.971  0.0421 -0.0013  0.2682
   56DOPE   H8R 7147   0.934   6.851   3.991 -2.0558  1.1092  0.7074
   56DOPE   H8S 7148   0.959   6.675   3.970  1.5169  1.3647 -1.1892
   56DOPE   C29 7149   0.772   6.739   4.071  0.9340 -0.2856 -0.1315
   56DOPE   H9R 7150   0.721   6.829   4.109  1.9221 -0.1470  0.9440
   56DOPE  C210 7151   0.751   6.624   4.134  0.1155  0.6555  0.2714
   56DOPE  H10R 7152   0.675   6.627   4.213 -1.9160 -0.5714 -1.5368
   56DOPE  C211 7153   0.824   6.488   4.116 -0.3466  0.1887  0.3176
   56DOPE  H11R 7154   0.896   6.482   4.031 -1.9819  2.1698 -1.3003
   56DOPE  H11S 7155   0.753   6.408   4.087  0.0098  0.6622 -2.0297
   56DOPE  C212 7156   0.887   6.434   4.248 -0.0335 -0.8554  0.1825
   56DOPE  H12R 7157   0.803   6.432   4.320 -0.5128 -0.0706 -0.3442
   56DOPE  H12S 7158   0.962   6.502   4.294 -0.8326  1.8049 -2.1626
   56DOPE  C213 7159   0.930   6.291   4.224  0.6805  0.1113 -0.0930
   56DOPE  H13R 7160   1.019   6.300   4.159  0.5474 -0.4117 -0.3570
   56DOPE  H13S 7161   0.845   6.249   4.167  0.8322  0.6857 -0.7547
   56DOPE  C214 7162   0.959   6.206   4.352  0.6557  0.1660  0.1697
   56DOPE  H14R 7163   0.867   6.192   4.411 -0.9557  0.7715 -2.0603
   56DOPE  H14S 7164   1.038   6.256   4.412 -1.0856 -0.2659  2.9576
   56DOPE  C215 7165   1.014   6.074   4.296 -0.6007  0.0999 -0.4839
   56DOPE  H15R 7166   1.087   6.085   4.213  0.5126 -1.7758  0.1824
   56DOPE  H15S 7167   0.929   6.014   4.257 -0.8432  0.8565 -1.1522
   56DOPE  C216 7168   1.079   5.994   4.409 -0.3453  0.3053  0.1501
   56DOPE  H16R 7169   1.002   5.974   4.487  0.6915  0.0644  1.1369
   56DOPE  H16S 7170   1.160   6.057   4.452  0.6445  1.3480 -2.9189
   56DOPE  C217 7171   1.141   5.858   4.354 -0.2790 -0.8771  0.2183
   56DOPE  H17R 7172   1.192   5.878   4.258 -1.8133 -0.1755 -0.4779
   56DOPE  H17S 7173   1.061   5.787   4.326  1.1942 -2.4673 -0.1355
   56DOPE  C218 7174   1.234   5.796   4.461  0.2336 -0.1063  0.2651
   56DOPE  H18R 7175   1.270   5.702   4.415 -0.3503 -0.3244  0.2466
   56DOPE  H18S 7176   1.173   5.767   4.549  1.1145  0.3383  1.0312
   56DOPE  H18T 7177   1.314   5.863   4.498  0.1185  0.3910 -0.3642
   56DOPE   C33 7178   0.686   6.633   3.113  0.0074  0.2682 -0.1627
   56DOPE   H3X 7179   0.702   6.743   3.123  0.8023  0.5847 -3.4817
   56DOPE   H3Y 7180   0.786   6.593   3.141  0.2281  0.4285 -0.6946
   56DOPE   C34 7181   0.580   6.593   3.222 -0.1966 -0.3060 -0.1215
   56DOPE   H4X 7182   0.491   6.660   3.212  0.0363 -0.0507 -0.4954
   56DOPE   H4Y 7183   0.553   6.485   3.225 -1.8359 -0.0249 -2.1767
   56DOPE   C35 7184   0.624   6.620   3.364  0.1621 -0.6234  0.4137
   56DOPE   H5X 7185   0.613   6.720   3.412  0.9813 -1.0885  1.6160
   56DOPE   H5Y 7186   0.727   6.579   3.375  0.0194 -0.9104  0.6993
   56DOPE   C36 7187   0.532   6.548   3.457 -0.9784  0.5743 -0.1615
   56DOPE   H6X 7188   0.535   6.438   3.441 -0.4312  0.2596  1.7654
   56DOPE   H6Y 7189   0.431   6.591   3.442 -0.2469  2.8136  0.8178
   56DOPE   C37 7190   0.571   6.558   3.606 -0.3317 -0.8309 -0.0423
   56DOPE   H7X 7191   0.670   6.511   3.620  0.4316  1.2860  2.5864
   56DOPE   H7Y 7192   0.578   6.668   3.623 -2.2518 -0.4318 -1.4328
   56DOPE   C38 7193   0.464   6.496   3.700 -0.3468  1.2203  0.5493
   56DOPE   H8X 7194   0.451   6.393   3.661 -1.4401  2.0132 -1.2860
   56DOPE   H8Y 7195   0.368   6.550   3.682  0.0233  1.3990 -0.9606
   56DOPE   C39 7196   0.517   6.498   3.843 -0.6860 -0.2516 -0.2075
   56DOPE   H9X 7197   0.579   6.583   3.874 -2.5963  0.9628  0.4976
   56DOPE  C310 7198   0.489   6.412   3.948  0.3324 -0.4696  0.4859
   56DOPE  H10X 7199   0.521   6.428   4.052 -1.6777 -0.6161  1.1889
   56DOPE  C311 7200   0.400   6.294   3.933 -0.0519 -0.0830  0.6923
   56DOPE  H11X 7201   0.355   6.293   3.831  0.1097  1.7239  0.5818
   56DOPE  H11Y 7202   0.456   6.198   3.938 -0.1368 -0.3791 -2.0858
   56DOPE  C312 7203   0.281   6.299   4.030  0.2923  0.0883 -0.8492
   56DOPE  H12X 7204   0.317   6.273   4.131  0.3184  0.6496 -0.7078
   56DOPE  H12Y 7205   0.210   6.220   3.999 -1.0458  0.1013  1.9399
   56DOPE  C313 7206   0.212   6.440   4.029  0.7964  0.8744  0.1649
   56DOPE  H13X 7207   0.285   6.517   4.060  0.2088  0.7906  1.8772
   56DOPE  H13Y 7208   0.182   6.453   3.922  3.0697 -0.9390 -0.7914
   56DOPE  C314 7209   0.105   6.444   4.130 -1.0037 -0.2207 -0.3687
   56DOPE  H14X 7210   0.148   6.434   4.232  2.7325 -0.1152 -1.8017
   56DOPE  H14Y 7211   0.034   6.361   4.109 -1.7468  0.1304  0.6506
   56DOPE  C315 7212   0.033   6.571   4.118  0.6722 -0.6219  0.0620
   56DOPE  H15X 7213  -0.000   6.574   4.012 -0.8731 -3.0421  0.4008
   56DOPE  H15Y 7214   0.108   6.650   4.140  0.6182 -0.5089 -0.1579
   56DOPE  C316 7215  -0.090   6.594   4.211 -0.1301 -0.4420 -0.5514
   56DOPE  H16X 7216  -0.176   6.527   4.189 -0.1633 -0.4358 -0.4431
   56DOPE  H16Y 7217  -0.121   6.697   4.183  0.4643 -0.2190 -0.4035
   56DOPE  C317 7218  -0.052   6.596   4.358  0.3938  0.2112 -0.4167
   56DOPE  H17X 7219  -0.007   6.497   4.385  1.5832  0.2686 -2.0577
   56DOPE  H17Y 7220   0.031   6.667   4.378 -0.5950  0.6885  2.4890
   56DOPE  C318 7221  -0.177   6.606   4.442  0.2527 -0.4827  0.3041
   56DOPE  H18X 7222  -0.241   6.517   4.423  1.4072 -1.3932  0.4882
   56DOPE  H18Y 7223  -0.145   6.606   4.548  0.5362 -0.4562  0.2199
   56DOPE  H18Z 7224  -0.219   6.702   4.408  3.8324  1.2049  0.1522
   57DOPE     N 7225   6.632   0.952   2.014  0.1168  0.1775  0.0995
   57DOPE   HN1 7226   6.591   0.875   1.957  1.0271  0.7405 -1.3847
   57DOPE   HN2 7227   6.658   1.024   1.945  0.0009  0.2291  0.1100
   57DOPE   HN3 7228   6.717   0.917   2.065 -0.8461  1.9557  3.1999
   57DOPE   C12 7229   6.522   0.997   2.110 -0.1143  0.1536  0.2817
   57DOPE  H12A 7230   6.492   0.905   2.164  1.3432 -0.8170 -0.5197
   57DOPE  H12B 7231   6.432   1.031   2.055  0.6488  0.9649 -0.4967
   57DOPE   C11 7232   6.559   1.117   2.208 -0.4556  1.0062 -0.9966
   57DOPE  H11A 7233   6.616   1.064   2.287  1.0309 -0.9275 -3.2263
   57DOPE  H11B 7234   6.467   1.149   2.262  1.9798  3.1178  2.2770
   57DOPE     P 7235   6.704   1.333   2.225  0.1516 -0.0788  0.5641
   57DOPE   O13 7236   6.755   1.428   2.127  0.4966 -0.2828  0.1930
   57DOPE   O14 7237   6.803   1.265   2.314  0.3211  0.1916 -0.0900
   57DOPE   O11 7238   6.584   1.402   2.307 -0.2507 -0.4215 -0.2495
   57DOPE   O12 7239   6.629   1.223   2.141  0.3702 -0.3749  0.0912
   57DOPE    C1 7240   6.469   1.462   2.253  0.1492  0.1982 -0.3520
   57DOPE    HA 7241   6.428   1.403   2.168  1.1965 -2.7190  1.0203
   57DOPE    HB 7242   6.492   1.566   2.223  0.1812  1.0409  2.3409
   57DOPE    C2 7243   6.356   1.476   2.364 -0.8200  0.0592  0.2571
   57DOPE    HS 7244   6.271   1.517   2.305 -0.4753  2.7522  1.4853
   57DOPE   O21 7245   6.392   1.568   2.471 -0.2550  0.2409  0.3685
   57DOPE   C21 7246   6.395   1.697   2.425 -0.5164 -0.1057  0.3534
   57DOPE   O22 7247   6.377   1.731   2.310  0.3477 -0.0725 -0.0676
   57DOPE   C22 7248   6.424   1.787   2.546  0.2072 -0.4936  0.0662
   57DOPE   H2R 7249   6.535   1.795   2.558  0.3258 -3.4484  2.1171
   57DOPE   H2S 7250   6.392   1.742   2.643  1.3476  0.6481  1.0230
   57DOPE    C3 7251   6.317   1.337   2.423 -0.2307  0.3451  0.9290
   57DOPE    HX 7252   6.411   1.288   2.458 -1.6396 -2.9215  0.5282
   57DOPE    HY 7253   6.271   1.281   2.339 -0.0532 -0.5009  1.3734
   57DOPE   O31 7254   6.229   1.346   2.536  0.5013  0.1563 -0.4871
   57DOPE   C31 7255   6.101   1.395   2.521 -0.2694  0.1606  0.1363
   57DOPE   O32 7256   6.049   1.428   2.419  0.1937  0.3752  0.3922
   57DOPE   C32 7257   6.026   1.398   2.654  0.5517  0.1187 -0.2786
   57DOPE   H2X 7258   6.072   1.335   2.733 -0.1891 -0.3845 -0.2342
   57DOPE   H2Y 7259   6.023   1.502   2.691  1.5153 -0.2852  1.0239
   57DOPE   C23 7260   6.355   1.930   2.529 -0.0030 -0.0727  0.1990
   57DOPE   H3R 7261   6.266   1.929   2.595 -0.3146  2.7315 -0.0865
   57DOPE   H3S 7262   6.341   1.939   2.419  2.1444 -2.4823 -0.3706
   57DOPE   C24 7263   6.438   2.052   2.583 -0.6949 -0.8524 -0.6360
   57DOPE   H4R 7264   6.391   2.142   2.536  1.8710  1.7264  1.3998
   57DOPE   H4S 7265   6.540   2.058   2.539  0.0557  1.9811  1.2376
   57DOPE   C25 7266   6.425   2.060   2.740 -0.1943  0.1395 -0.2386
   57DOPE   H5R 7267   6.461   1.963   2.781 -3.1171 -0.3612  1.3808
   57DOPE   H5S 7268   6.318   2.076   2.767  0.0242 -2.6735  2.9648
   57DOPE   C26 7269   6.499   2.174   2.804  0.1562  0.1214  0.0638
   57DOPE   H6R 7270   6.450   2.268   2.770  0.8900 -0.0034 -1.4332
   57DOPE   H6S 7271   6.599   2.173   2.755  0.0503  1.8425 -0.2566
   57DOPE   C27 7272   6.523   2.171   2.953  0.4681 -0.2688 -0.3881
   57DOPE   H7R 7273   6.419   2.152   2.989  0.7207 -2.6723 -0.7575
   57DOPE   H7S 7274   6.549   2.274   2.984  1.0633 -0.8841  1.2375
   57DOPE   C28 7275   6.619   2.071   3.014 -0.5267 -0.1556  0.0655
   57DOPE   H8R 7276   6.575   1.969   3.022  1.0577 -1.1127 -2.3078
   57DOPE   H8S 7277   6.637   2.101   3.120  0.3212  0.0021 -0.1133
   57DOPE   C29 7278   6.757   2.050   2.941  0.1198  0.3237 -0.3660
   57DOPE   H9R 7279   6.748   1.971   2.865 -1.5184 -0.5706  0.7153
   57DOPE  C210 7280   6.876   2.101   2.982  0.8617  0.7978  0.3765
   57DOPE  H10R 7281   6.963   2.089   2.916  1.1853  0.0372  0.9368
   57DOPE  C211 7282   6.893   2.192   3.106  0.0662 -0.2858 -0.0238
   57DOPE  H11R 7283   6.798   2.243   3.135  0.3917  0.0641  0.4500
   57DOPE  H11S 7284   6.960   2.275   3.076  1.7426 -1.3056  0.7238
   57DOPE  C212 7285   6.955   2.110   3.229 -0.3760 -0.4139  0.0954
   57DOPE  H12R 7286   6.995   2.184   3.301  1.8366 -1.9595  0.5840
   57DOPE  H12S 7287   7.047   2.066   3.185  0.6965  0.4372  1.4145
   57DOPE  C213 7288   6.876   1.996   3.287 -0.7568 -0.4573  0.4018
   57DOPE  H13R 7289   6.851   1.921   3.208 -0.9390 -1.3763  1.3086
   57DOPE  H13S 7290   6.788   2.044   3.336  0.6868  0.2103  2.4858
   57DOPE  C214 7291   6.962   1.906   3.383 -0.3341  0.2755  0.1495
   57DOPE  H14R 7292   7.008   1.971   3.461  1.0643 -1.2874  0.6860
   57DOPE  H14S 7293   7.043   1.881   3.312  0.5074  1.9112  0.5048
   57DOPE  C215 7294   6.891   1.779   3.427  0.0262 -0.0775 -0.1357
   57DOPE  H15R 7295   6.829   1.736   3.344 -2.2052  0.5173  1.1368
   57DOPE  H15S 7296   6.819   1.807   3.507  1.2851  1.9466  0.3644
   57DOPE  C216 7297   6.992   1.679   3.479  0.0443  0.2929  0.5087
   57DOPE  H16R 7298   7.071   1.657   3.404 -0.3916 -1.7325  0.5739
   57DOPE  H16S 7299   6.935   1.586   3.504 -2.2538  0.2766 -3.7530
   57DOPE  C217 7300   7.061   1.731   3.607  0.5772 -0.0534  0.7416
   57DOPE  H17R 7301   6.988   1.729   3.691 -1.4294 -1.2116 -0.9570
   57DOPE  H17S 7302   7.108   1.831   3.598  2.0394 -0.7686  0.1433
   57DOPE  C218 7303   7.168   1.630   3.651 -0.2789 -0.3314 -0.5671
   57DOPE  H18R 7304   7.127   1.527   3.650  0.0398 -0.6610  3.6800
   57DOPE  H18S 7305   7.200   1.656   3.754 -1.1963 -1.4966  0.0433
   57DOPE  H18T 7306   7.255   1.641   3.582  0.0806 -0.4211 -0.1320
   57DOPE   C33 7307   5.875   1.364   2.631  0.7454 -0.1807 -0.4931
   57DOPE   H3X 7308   5.854   1.262   2.592  0.2801  0.2198 -1.3340
   57DOPE   H3Y 7309   5.831   1.433   2.556 -2.3032 -0.2527  1.1023
   57DOPE   C34 7310   5.793   1.374   2.772  0.3092 -0.1223  0.2751
   57DOPE   H4X 7311   5.818   1.473   2.815 -1.3172  0.3695  0.1223
   57DOPE   H4Y 7312   5.686   1.372   2.745  0.4064 -1.1356 -0.0755
   57DOPE   C35 7313   5.828   1.270   2.887 -0.1150  0.2790  0.5378
   57DOPE   H5X 7314   5.906   1.196   2.860 -0.4019  0.1127  0.1451
   57DOPE   H5Y 7315   5.730   1.219   2.897  0.2839 -1.0336 -1.5203
   57DOPE   C36 7316   5.883   1.337   3.013 -0.4654 -0.1484 -1.1579
   57DOPE   H6X 7317   5.801   1.402   3.048 -1.0926 -2.0287  1.1612
   57DOPE   H6Y 7318   5.976   1.393   2.992 -0.2493 -0.4954 -1.1502
   57DOPE   C37 7319   5.913   1.236   3.126 -0.3541  0.1161  0.2870
   57DOPE   H7X 7320   5.815   1.203   3.169  0.0777  0.9293  1.9728
   57DOPE   H7Y 7321   5.961   1.142   3.091 -2.3716 -0.6426 -0.6614
   57DOPE   C38 7322   5.993   1.293   3.242  0.0537 -0.1023 -0.3563
   57DOPE   H8X 7323   5.996   1.226   3.330 -1.3520 -1.1193 -1.0482
   57DOPE   H8Y 7324   5.939   1.385   3.271 -1.2654 -0.5500 -1.2827
   57DOPE   C39 7325   6.136   1.335   3.200  0.1669  0.1769 -0.1630
   57DOPE   H9X 7326   6.137   1.378   3.099  0.4982  1.5312  0.3955
   57DOPE  C310 7327   6.251   1.308   3.269 -0.0087 -0.6300 -0.3874
   57DOPE  H10X 7328   6.342   1.342   3.217 -0.1750 -0.2750 -0.4507
   57DOPE  C311 7329   6.263   1.274   3.415 -0.1483  0.5195 -0.1747
   57DOPE  H11X 7330   6.299   1.364   3.467 -1.6141  1.0142  0.0354
   57DOPE  H11Y 7331   6.166   1.241   3.460  1.1025 -0.9818  1.5668
   57DOPE  C312 7332   6.374   1.169   3.420 -0.9959  0.1424 -0.2244
   57DOPE  H12X 7333   6.469   1.217   3.388  0.5253 -2.4038  0.2440
   57DOPE  H12Y 7334   6.362   1.083   3.351 -0.5071 -1.1482  1.2349
   57DOPE  C313 7335   6.411   1.126   3.560  0.5091 -0.0289 -0.5668
   57DOPE  H13X 7336   6.481   1.041   3.545 -0.4540 -1.2670  1.5320
   57DOPE  H13Y 7337   6.477   1.202   3.608  0.5907 -0.6418  0.3160
   57DOPE  C314 7338   6.306   1.077   3.665 -0.1891  0.5285  0.8425
   57DOPE  H14X 7339   6.248   0.993   3.620 -0.0892  1.4733 -1.1865
   57DOPE  H14Y 7340   6.235   1.161   3.679 -1.2698 -0.2477  0.2282
   57DOPE  C315 7341   6.366   1.032   3.795 -0.1276  0.3127  0.2346
   57DOPE  H15X 7342   6.285   0.992   3.860  1.3074 -2.4472  0.4427
   57DOPE  H15Y 7343   6.410   1.116   3.853  2.5046 -1.6364  1.2175
   57DOPE  C316 7344   6.467   0.919   3.776 -0.0921 -0.1672  0.1896
   57DOPE  H16X 7345   6.542   0.937   3.697 -0.8876  0.0878 -0.5240
   57DOPE  H16Y 7346   6.415   0.825   3.746 -1.1074  0.4741 -0.1022
   57DOPE  C317 7347   6.561   0.902   3.903  0.3594  0.4550  0.2092
   57DOPE  H17X 7348   6.600   0.799   3.892 -1.9678 -0.4369 -0.4372
   57DOPE  H17Y 7349   6.640   0.979   3.897  0.2182  0.4840 -2.9383
   57DOPE  C318 7350   6.498   0.925   4.043 -0.5863  0.0757  1.0733
   57DOPE  H18X 7351   6.572   0.900   4.122 -0.5788  2.1191  1.7927
   57DOPE  H18Y 7352   6.465   1.031   4.049  0.4124  0.3537  1.9132
   57DOPE  H18Z 7353   6.410   0.858   4.059  0.5517 -2.4792 -2.2836
   58DOPE     N 7354   7.228   4.810   1.608  0.1409 -0.3018  0.1892
   58DOPE   HN1 7355   7.300   4.755   1.557 -1.0887 -2.8875  1.0556
   58DOPE   HN2 7356   7.151   4.742   1.628  1.2278 -1.2351  1.4474
   58DOPE   HN3 7357   7.197   4.882   1.540 -1.4407 -3.0347 -2.1935
   58DOPE   C12 7358   7.270   4.886   1.733 -0.2074  0.6308 -0.0566
   58DOPE  H12A 7359   7.179   4.912   1.791  0.5186 -0.3004  1.5687
   58DOPE  H12B 7360   7.324   4.980   1.709 -0.0077  1.3359  2.7915
   58DOPE   C11 7361   7.361   4.790   1.811  0.6056 -0.1475  0.1799
   58DOPE  H11A 7362   7.407   4.853   1.889  0.1985 -0.4895  0.7046
   58DOPE  H11B 7363   7.447   4.754   1.751  1.3672  2.1046 -0.1703
   58DOPE     P 7364   7.314   4.642   2.014 -0.2692  0.1934 -0.0147
   58DOPE   O13 7365   7.458   4.662   2.046  0.0401  0.7382 -0.1486
   58DOPE   O14 7366   7.260   4.503   2.032 -0.3026 -0.1001 -0.4084
   58DOPE   O11 7367   7.231   4.741   2.097 -0.0849 -0.0142 -0.0438
   58DOPE   O12 7368   7.289   4.683   1.868  0.0703  0.0268 -0.7417
   58DOPE    C1 7369   7.087   4.761   2.077 -0.4394  0.0443 -0.0930
   58DOPE    HA 7370   7.032   4.665   2.084  0.1348 -0.1986  1.3374
   58DOPE    HB 7371   7.081   4.806   1.975  1.7203 -2.3397 -1.3958
   58DOPE    C2 7372   7.035   4.860   2.189 -0.4446  0.1501 -0.1223
   58DOPE    HS 7373   6.948   4.913   2.145 -0.6297  0.9193  1.1133
   58DOPE   O21 7374   7.131   4.956   2.230  0.4830 -0.4306  0.5807
   58DOPE   C21 7375   7.080   5.071   2.276 -0.2138 -0.5380 -0.1467
   58DOPE   O22 7376   6.965   5.105   2.258  0.2203  0.5420 -0.3329
   58DOPE   C22 7377   7.193   5.148   2.342  0.3606 -0.1528 -0.1337
   58DOPE   H2R 7378   7.277   5.145   2.269  0.5283  1.8183 -0.0575
   58DOPE   H2S 7379   7.226   5.106   2.439 -1.3213  2.6592  1.7782
   58DOPE    C3 7380   6.985   4.789   2.317 -0.4309 -0.1718 -0.5122
   58DOPE    HX 7381   7.073   4.737   2.360 -1.2809 -0.7874  0.5391
   58DOPE    HY 7382   6.915   4.709   2.285  0.9598 -0.9559 -1.7241
   58DOPE   O31 7383   6.937   4.882   2.415  0.5420  0.4336 -0.5252
   58DOPE   C31 7384   6.800   4.874   2.439 -0.4746 -0.4261 -0.6021
   58DOPE   O32 7385   6.725   4.790   2.385 -0.6310  0.3173 -0.5655
   58DOPE   C32 7386   6.765   5.000   2.522  0.5255 -0.2274 -0.0944
   58DOPE   H2X 7387   6.849   5.005   2.595  1.4401  1.3947 -1.2083
   58DOPE   H2Y 7388   6.770   5.082   2.448  2.6507 -0.1380  0.1007
   58DOPE   C23 7389   7.139   5.288   2.381  0.2741  0.1403  0.6490
   58DOPE   H3R 7390   7.081   5.335   2.299  1.2334  0.5083  0.1692
   58DOPE   H3S 7391   7.218   5.365   2.394  0.7085 -0.4798  1.8502
   58DOPE   C24 7392   7.060   5.285   2.519  0.5754  0.4998  0.9919
   58DOPE   H4R 7393   7.144   5.262   2.588  1.8721  0.8658 -0.3925
   58DOPE   H4S 7394   6.978   5.211   2.525 -1.1456  2.2710  0.3572
   58DOPE   C25 7395   7.010   5.422   2.561 -0.1053 -0.4071  0.4048
   58DOPE   H5R 7396   6.934   5.452   2.485 -2.3595 -1.7989  1.9566
   58DOPE   H5S 7397   7.092   5.496   2.562 -1.3854  1.0769  0.0826
   58DOPE   C26 7398   6.941   5.422   2.699  0.3029 -0.0889 -0.4406
   58DOPE   H6R 7399   7.009   5.383   2.777  0.0123 -1.4592 -0.8346
   58DOPE   H6S 7400   6.854   5.353   2.693  0.6702 -0.5555 -0.4037
   58DOPE   C27 7401   6.887   5.565   2.740 -0.2604  0.9668  0.1821
   58DOPE   H7R 7402   6.778   5.559   2.715 -0.2696 -1.0161  0.5219
   58DOPE   H7S 7403   6.940   5.641   2.680 -1.5805  1.7343 -0.0659
   58DOPE   C28 7404   6.899   5.598   2.890  0.2778 -0.1051  0.1072
   58DOPE   H8R 7405   6.862   5.700   2.915 -0.9146 -0.0789 -1.5963
   58DOPE   H8S 7406   7.006   5.583   2.914  1.1478  3.8513 -0.5089
   58DOPE   C29 7407   6.817   5.500   2.976  0.5086 -0.5403 -0.4014
   58DOPE   H9R 7408   6.735   5.449   2.923 -2.4710  3.3082  0.0545
   58DOPE  C210 7409   6.835   5.485   3.109 -0.1074 -0.5692  0.3114
   58DOPE  H10R 7410   6.765   5.424   3.167 -2.3300  1.4120 -0.1688
   58DOPE  C211 7411   6.936   5.564   3.190 -0.1664  0.1186 -0.1384
   58DOPE  H11R 7412   6.983   5.642   3.127  0.1166 -1.4181 -1.9135
   58DOPE  H11S 7413   7.014   5.491   3.221 -1.7815 -1.8060 -0.3945
   58DOPE  C212 7414   6.874   5.627   3.324 -1.0092 -0.5047  0.1743
   58DOPE  H12R 7415   6.965   5.672   3.370 -1.1040 -0.4655  0.3231
   58DOPE  H12S 7416   6.838   5.544   3.388  0.7547 -1.0959  0.4337
   58DOPE  C213 7417   6.763   5.736   3.296  0.3800 -0.0200 -0.2018
   58DOPE  H13R 7418   6.682   5.688   3.238 -0.6512 -0.4568  1.5129
   58DOPE  H13S 7419   6.810   5.815   3.235  1.0460 -1.0110 -0.9993
   58DOPE  C214 7420   6.701   5.795   3.426  0.3796  0.2819 -0.0219
   58DOPE  H14R 7421   6.669   5.710   3.490 -1.5882  0.3787 -0.8087
   58DOPE  H14S 7422   6.607   5.852   3.410 -1.2430 -2.2880 -0.2409
   58DOPE  C215 7423   6.800   5.883   3.501 -0.0831  0.4674 -0.4863
   58DOPE  H15R 7424   6.808   5.980   3.449 -1.2855  1.0122  0.3159
   58DOPE  H15S 7425   6.906   5.853   3.487 -0.5236 -1.8843  0.6568
   58DOPE  C216 7426   6.762   5.896   3.647 -0.3788  0.4757 -0.0558
   58DOPE  H16R 7427   6.834   5.952   3.710  0.8865  1.2348 -2.0994
   58DOPE  H16S 7428   6.758   5.791   3.681 -0.5257  0.3834 -0.3597
   58DOPE  C217 7429   6.626   5.954   3.690 -0.5985  0.3940  0.0379
   58DOPE  H17R 7430   6.542   5.900   3.642 -0.2233 -1.0034  0.9106
   58DOPE  H17S 7431   6.614   6.056   3.646 -0.6930 -0.3737 -1.8240
   58DOPE  C218 7432   6.611   5.964   3.842 -0.1282  0.0538  0.2119
   58DOPE  H18R 7433   6.591   5.868   3.894 -0.9722 -0.9129 -1.7751
   58DOPE  H18S 7434   6.529   6.032   3.873  1.3618  2.5408 -0.9967
   58DOPE  H18T 7435   6.704   6.011   3.880 -0.7914  1.5180  0.0986
   58DOPE   C33 7436   6.619   5.018   2.587  0.3244  0.4404 -0.0580
   58DOPE   H3X 7437   6.553   5.012   2.498  1.3341  0.2088 -0.8052
   58DOPE   H3Y 7438   6.603   5.120   2.628  1.0293  0.3204  0.5396
   58DOPE   C34 7439   6.581   4.902   2.683  0.9340  0.1785  1.1580
   58DOPE   H4X 7440   6.476   4.913   2.715  0.8389  0.7388  0.6857
   58DOPE   H4Y 7441   6.583   4.801   2.637 -1.9783  1.2139 -1.5590
   58DOPE   C35 7442   6.661   4.905   2.811  0.5408  0.1263  0.2435
   58DOPE   H5X 7443   6.648   5.004   2.860  0.3329 -0.6032  1.7192
   58DOPE   H5Y 7444   6.770   4.889   2.795  0.6177  0.2033  0.6858
   58DOPE   C36 7445   6.621   4.792   2.905 -0.5034 -0.7879 -0.2650
   58DOPE   H6X 7446   6.631   4.691   2.860  4.2653 -1.4780  1.6908
   58DOPE   H6Y 7447   6.513   4.805   2.927 -0.3161  0.1392  0.1505
   58DOPE   C37 7448   6.692   4.803   3.041  1.2434 -0.3519 -0.2154
   58DOPE   H7X 7449   6.638   4.727   3.102  1.9449  1.1359  2.4000
   58DOPE   H7Y 7450   6.799   4.776   3.048  1.8536  2.1634  2.0401
   58DOPE   C38 7451   6.671   4.930   3.136 -0.2326  0.1888 -0.2011
   58DOPE   H8X 7452   6.677   4.894   3.241 -0.2017  2.7400  0.7578
   58DOPE   H8Y 7453   6.567   4.966   3.118 -0.7475 -1.4235 -0.5844
   58DOPE   C39 7454   6.771   5.042   3.120 -0.5565  0.9189  0.1372
   58DOPE   H9X 7455   6.799   5.066   3.017 -1.2575  1.5897  0.1045
   58DOPE  C310 7456   6.828   5.119   3.213  0.4907 -0.2869  0.0515
   58DOPE  H10X 7457   6.892   5.202   3.178  0.8836  0.1763  1.7964
   58DOPE  C311 7458   6.809   5.127   3.361  0.5669 -0.6606 -0.4757
   58DOPE  H11X 7459   6.743   5.052   3.409 -0.1242  1.2745  1.7756
   58DOPE  H11Y 7460   6.904   5.122   3.419  1.9842  0.5976 -2.5612
   58DOPE  C312 7461   6.745   5.266   3.397  0.1146  0.3177 -0.6498
   58DOPE  H12X 7462   6.804   5.353   3.362 -2.3786  2.4720  0.2311
   58DOPE  H12Y 7463   6.753   5.267   3.507  1.2543  0.0900 -0.7173
   58DOPE  C313 7464   6.591   5.285   3.356 -0.2055 -0.4837 -0.9688
   58DOPE  H13X 7465   6.588   5.279   3.245 -0.8749  0.1860 -0.9938
   58DOPE  H13Y 7466   6.544   5.200   3.410 -0.1742  0.4203  0.5120
   58DOPE  C314 7467   6.535   5.426   3.399  0.0444 -0.5903  0.0837
   58DOPE  H14X 7468   6.593   5.496   3.336 -1.4626 -0.2074 -0.9202
   58DOPE  H14Y 7469   6.557   5.430   3.508  1.0327 -3.1349  0.0591
   58DOPE  C315 7470   6.396   5.460   3.358  0.3710  0.6677 -0.1277
   58DOPE  H15X 7471   6.326   5.398   3.418  0.2242  2.9915  2.2994
   58DOPE  H15Y 7472   6.377   5.435   3.252  0.3586 -2.7641  0.5620
   58DOPE  C316 7473   6.353   5.608   3.388 -0.4656  0.0493 -0.1605
   58DOPE  H16X 7474   6.422   5.679   3.337  1.0875 -0.0738  1.6754
   58DOPE  H16Y 7475   6.363   5.615   3.498  1.0609 -1.8751 -0.1299
   58DOPE  C317 7476   6.211   5.645   3.348 -0.1112  0.2135  0.1339
   58DOPE  H17X 7477   6.184   5.739   3.401  1.1321 -0.4917  2.1777
   58DOPE  H17Y 7478   6.200   5.660   3.239 -0.5520 -1.6200 -0.1005
   58DOPE  C318 7479   6.102   5.545   3.385 -0.1009  0.4982  0.1529
   58DOPE  H18X 7480   6.105   5.512   3.491  0.7441 -0.8901 -0.2783
   58DOPE  H18Y 7481   6.000   5.575   3.353 -0.3922 -0.9873 -0.3858
   58DOPE  H18Z 7482   6.128   5.447   3.340 -0.3104  1.1025 -1.3388
   59DOPE     N 7483   7.303   0.693   2.088 -0.5119  0.3811  0.5234
   59DOPE   HN1 7484   7.306   0.775   2.024  2.5407 -1.6157 -2.2050
   59DOPE   HN2 7485   7.287   0.606   2.034 -1.6642 -0.1011  1.5849
   59DOPE   HN3 7486   7.222   0.711   2.151  1.1272  4.1560  1.8788
   59DOPE   C12 7487   7.432   0.696   2.166  0.2323 -0.8791  0.2533
   59DOPE  H12A 7488   7.516   0.650   2.109 -0.4220 -1.4560 -0.2612
   59DOPE  H12B 7489   7.409   0.641   2.260 -1.1303 -0.7245  0.0384
   59DOPE   C11 7490   7.464   0.835   2.219  0.0795 -0.7282  0.2061
   59DOPE  H11A 7491   7.471   0.906   2.134  0.0350  1.6082  2.0438
   59DOPE  H11B 7492   7.566   0.836   2.263  1.1694  1.1855 -2.1480
   59DOPE     P 7493   7.383   1.026   2.380 -0.1539 -0.0624 -0.2428
   59DOPE   O13 7494   7.309   1.134   2.308 -0.1040 -0.2411 -0.1477
   59DOPE   O14 7495   7.532   1.048   2.390 -0.1860  0.3176  0.2371
   59DOPE   O11 7496   7.338   1.016   2.535 -0.0504 -0.1660  0.1551
   59DOPE   O12 7497   7.363   0.883   2.309  0.2974 -0.2814 -0.0199
   59DOPE    C1 7498   7.264   0.911   2.590  0.7117 -0.4236  0.5332
   59DOPE    HA 7499   7.212   0.852   2.512 -1.2498 -0.0694  1.5052
   59DOPE    HB 7500   7.179   0.958   2.645 -1.3005 -1.0729 -1.8387
   59DOPE    C2 7501   7.327   0.822   2.695 -0.0106  0.2641  0.6692
   59DOPE    HS 7502   7.263   0.736   2.724  0.9379  0.0430  2.2342
   59DOPE   O21 7503   7.377   0.895   2.812 -0.0036  0.3544  0.4192
   59DOPE   C21 7504   7.275   0.936   2.890 -0.0829  0.6815 -0.0205
   59DOPE   O22 7505   7.160   0.920   2.858  0.3850  0.2950  0.3774
   59DOPE   C22 7506   7.329   0.987   3.022  0.1314 -0.2624  0.8880
   59DOPE   H2R 7507   7.301   1.095   3.031  0.1541  0.1462 -2.6871
   59DOPE   H2S 7508   7.440   0.984   3.015  0.0447  0.4777 -1.7664
   59DOPE    C3 7509   7.449   0.745   2.629 -0.1811  0.0359 -0.1120
   59DOPE    HX 7510   7.533   0.812   2.600  0.5511 -0.3999  0.9326
   59DOPE    HY 7511   7.404   0.702   2.537 -2.3991  2.4329 -0.2735
   59DOPE   O31 7512   7.494   0.643   2.721 -0.1710  0.6802  0.1463
   59DOPE   C31 7513   7.613   0.580   2.679  0.8138 -1.0411 -0.1884
   59DOPE   O32 7514   7.654   0.602   2.565  0.5406 -0.2388 -0.6790
   59DOPE   C32 7515   7.672   0.496   2.794  0.3968 -0.4609  0.1714
   59DOPE   H2X 7516   7.610   0.404   2.792 -1.0211  0.4037 -2.8102
   59DOPE   H2Y 7517   7.776   0.466   2.771  0.1085 -1.4858  0.1434
   59DOPE   C23 7518   7.263   0.917   3.143 -0.0606 -0.1489 -0.1686
   59DOPE   H3R 7519   7.154   0.903   3.131  0.3649 -2.5087 -1.9886
   59DOPE   H3S 7520   7.283   0.985   3.229 -1.6018 -0.1150  0.1812
   59DOPE   C24 7521   7.323   0.781   3.161 -0.1649 -0.1368 -0.5301
   59DOPE   H4R 7522   7.336   0.734   3.061  0.2520 -0.6460 -0.2387
   59DOPE   H4S 7523   7.253   0.716   3.217  0.1922 -0.0343  0.0405
   59DOPE   C25 7524   7.461   0.774   3.238 -0.2591 -0.5426  0.3650
   59DOPE   H5R 7525   7.530   0.851   3.196  0.3550 -1.4344 -0.2980
   59DOPE   H5S 7526   7.500   0.673   3.213  0.7662  0.0110 -0.3438
   59DOPE   C26 7527   7.444   0.791   3.388 -0.6959  0.6700 -0.0426
   59DOPE   H6R 7528   7.399   0.694   3.417  0.5851  0.8309  2.8062
   59DOPE   H6S 7529   7.372   0.872   3.415 -2.9019 -1.8128  1.9960
   59DOPE   C27 7530   7.575   0.788   3.462 -0.3791 -0.6001  0.7542
   59DOPE   H7R 7531   7.647   0.721   3.409  0.0141  1.3086 -1.2400
   59DOPE   H7S 7532   7.555   0.748   3.564 -2.2521  0.3654  0.8044
   59DOPE   C28 7533   7.639   0.929   3.461  0.2552  0.7075 -0.1383
   59DOPE   H8R 7534   7.557   0.991   3.504  1.6556  0.6888  2.7821
   59DOPE   H8S 7535   7.661   0.959   3.356  1.3551 -2.8202 -1.0247
   59DOPE   C29 7536   7.770   0.926   3.546 -0.0979  0.2828  0.1472
   59DOPE   H9R 7537   7.841   0.845   3.524 -0.8988  0.1390 -2.3027
   59DOPE  C210 7538   7.794   0.997   3.652  0.0973 -0.3515  0.6379
   59DOPE  H10R 7539   7.894   0.993   3.696 -0.3081  0.6794  1.7120
   59DOPE  C211 7540   7.697   1.099   3.701  0.4333 -0.5634 -0.3862
   59DOPE  H11R 7541   7.633   1.054   3.780  1.1710 -0.0263  0.5370
   59DOPE  H11S 7542   7.624   1.147   3.633 -0.9178 -0.8213  0.8397
   59DOPE  C212 7543   7.783   1.212   3.768 -0.8343  0.2362  0.7745
   59DOPE  H12R 7544   7.841   1.268   3.692  0.2616 -0.1173  1.3321
   59DOPE  H12S 7545   7.858   1.167   3.837 -1.8973 -0.3315  1.5903
   59DOPE  C213 7546   7.697   1.321   3.839 -0.1179  0.6313  0.0750
   59DOPE  H13R 7547   7.647   1.271   3.924 -2.9488  1.1509 -1.1576
   59DOPE  H13S 7548   7.619   1.351   3.765 -0.9375  3.0366  1.7868
   59DOPE  C214 7549   7.769   1.443   3.893  0.0418 -0.1262  0.7634
   59DOPE  H14R 7550   7.700   1.517   3.939  0.4067 -0.8100  2.4759
   59DOPE  H14S 7551   7.819   1.489   3.805  1.1674  0.6523  1.7698
   59DOPE  C215 7552   7.880   1.400   3.994 -0.1078  0.3686 -0.2588
   59DOPE  H15R 7553   7.953   1.347   3.929 -1.1748 -1.4765 -0.0162
   59DOPE  H15S 7554   7.827   1.334   4.066 -1.3315 -1.7090 -2.8863
   59DOPE  C216 7555   7.953   1.505   4.075  0.1083  0.4348  0.0201
   59DOPE  H16R 7556   8.028   1.544   4.003  2.0620  0.1315  1.7861
   59DOPE  H16S 7557   8.012   1.451   4.152 -0.0152  1.0636  0.5609
   59DOPE  C217 7558   7.880   1.621   4.141  0.6421 -0.1494  0.2037
   59DOPE  H17R 7559   7.838   1.685   4.061 -1.1396 -0.7640  0.6149
   59DOPE  H17S 7560   7.963   1.672   4.195  0.9170  0.0173 -0.3629
   59DOPE  C218 7561   7.769   1.577   4.236  1.4246  0.4872  0.0607
   59DOPE  H18R 7562   7.813   1.526   4.325  2.5338  2.5091  0.7405
   59DOPE  H18S 7563   7.702   1.502   4.190  0.6663  0.1195  1.6765
   59DOPE  H18T 7564   7.701   1.661   4.262 -1.6673 -2.1342  1.1245
   59DOPE   C33 7565   7.686   0.579   2.922  0.2823 -0.2217  0.3195
   59DOPE   H3X 7566   7.620   0.536   3.001 -0.1915  2.1008  1.2795
   59DOPE   H3Y 7567   7.649   0.683   2.919 -0.7045 -0.4809  2.0948
   59DOPE   C34 7568   7.830   0.577   2.973 -0.2836  0.5194  0.1407
   59DOPE   H4X 7569   7.852   0.469   2.989  2.1927  0.7022 -1.5321
   59DOPE   H4Y 7570   7.901   0.628   2.905  0.3425 -1.1258 -0.4948
   59DOPE   C35 7571   7.826   0.632   3.115 -0.5409 -0.1759  0.0193
   59DOPE   H5X 7572   7.732   0.604   3.168 -1.5958  2.0590 -0.5356
   59DOPE   H5Y 7573   7.814   0.742   3.105 -0.6765 -0.2625 -0.8261
   59DOPE   C36 7574   7.951   0.586   3.193 -0.0486 -0.1007  0.2102
   59DOPE   H6X 7575   8.038   0.645   3.155 -0.8441  0.3199 -1.0023
   59DOPE   H6Y 7576   7.957   0.476   3.181  0.8568 -0.3414  2.3279
   59DOPE   C37 7577   7.942   0.614   3.341 -0.4336 -0.3355 -0.9354
   59DOPE   H7X 7578   7.885   0.708   3.356 -1.0726 -0.6508 -1.3376
   59DOPE   H7Y 7579   7.875   0.537   3.384  1.4056 -1.0172  0.9023
   59DOPE   C38 7580   8.081   0.602   3.413 -0.1185 -0.4341 -0.2137
   59DOPE   H8X 7581   8.150   0.687   3.392  0.0934  0.0129  1.9947
   59DOPE   H8Y 7582   8.139   0.513   3.382  0.3281  0.1251 -1.0153
   59DOPE   C39 7583   8.053   0.589   3.559  0.3656 -0.3071 -0.0617
   59DOPE   H9X 7584   7.978   0.511   3.581 -0.3011  0.5885  0.9610
   59DOPE  C310 7585   8.089   0.673   3.656 -0.6115 -0.4759 -0.2258
   59DOPE  H10X 7586   8.058   0.655   3.760 -1.1196  1.0676 -0.0875
   59DOPE  C311 7587   8.181   0.787   3.640 -0.1794 -0.2055 -0.6148
   59DOPE  H11X 7588   8.282   0.741   3.627  0.2131  0.5334 -0.2887
   59DOPE  H11Y 7589   8.162   0.835   3.542  1.2146  0.5589 -0.5370
   59DOPE  C312 7590   8.193   0.896   3.750 -0.0109 -0.7318 -0.0341
   59DOPE  H12X 7591   8.266   0.851   3.821  0.9423  0.4186 -0.2332
   59DOPE  H12Y 7592   8.100   0.935   3.796  0.3746  0.9605 -0.5890
   59DOPE  C313 7593   8.272   1.015   3.692 -0.3364 -0.6632 -0.7162
   59DOPE  H13X 7594   8.351   0.975   3.625 -0.3998 -0.9165 -0.6387
   59DOPE  H13Y 7595   8.197   1.066   3.628 -1.0510 -1.5634 -0.6221
   59DOPE  C314 7596   8.327   1.122   3.791 -0.8404 -1.0290 -0.2888
   59DOPE  H14X 7597   8.411   1.171   3.737 -0.3026 -1.7069 -0.0718
   59DOPE  H14Y 7598   8.384   1.068   3.869 -0.8893 -2.1304 -0.9980
   59DOPE  C315 7599   8.227   1.214   3.850  0.1181  0.2271  0.0584
   59DOPE  H15X 7600   8.156   1.152   3.908  1.1548 -1.4587 -0.4000
   59DOPE  H15Y 7601   8.175   1.257   3.761  1.9123  2.1580 -0.1298
   59DOPE  C316 7602   8.284   1.334   3.926 -0.2984 -0.4426  0.2679
   59DOPE  H16X 7603   8.196   1.375   3.981 -0.1416  0.3313 -0.0451
   59DOPE  H16Y 7604   8.323   1.415   3.861  0.8830 -1.0839  0.1600
   59DOPE  C317 7605   8.378   1.315   4.047  0.2912 -0.0035  0.1509
   59DOPE  H17X 7606   8.337   1.233   4.109 -1.0890  1.4035  1.1992
   59DOPE  H17Y 7607   8.478   1.283   4.010 -0.1336  0.3928 -1.4092
   59DOPE  C318 7608   8.387   1.445   4.124  0.0028  0.2737 -0.1359
   59DOPE  H18X 7609   8.286   1.469   4.163  0.8762  1.3964  1.5010
   59DOPE  H18Y 7610   8.455   1.430   4.210  0.9167 -2.3105 -1.2041
   59DOPE  H18Z 7611   8.432   1.535   4.077 -1.8004  1.0221 -0.5270
   60DOPE     N 7612   0.368   5.765   1.986  0.0870  0.2154 -0.2149
   60DOPE   HN1 7613   0.327   5.687   2.042 -1.4372 -0.3017 -1.9417
   60DOPE   HN2 7614   0.437   5.720   1.922 -1.3150 -0.1829 -1.5048
   60DOPE   HN3 7615   0.413   5.830   2.053  0.6014 -1.5057  1.1855
   60DOPE   C12 7616   0.262   5.825   1.912 -0.1556  0.5261 -0.0832
   60DOPE  H12A 7617   0.246   5.767   1.818  0.6596  0.0971  0.0346
   60DOPE  H12B 7618   0.300   5.926   1.887  0.3269  0.4662  0.3841
   60DOPE   C11 7619   0.137   5.816   2.003  0.1899  0.3313  0.2410
   60DOPE  H11A 7620   0.057   5.865   1.945 -0.2379 -0.4881  0.1184
   60DOPE  H11B 7621   0.156   5.878   2.093 -0.5000  2.2590 -0.8823
   60DOPE     P 7622  -0.029   5.650   2.110 -0.2316 -0.2169 -0.0088
   60DOPE   O13 7623  -0.012   5.527   2.191 -0.4170 -0.2043  0.3372
   60DOPE   O14 7624  -0.142   5.656   2.015  0.2489  0.2887  0.0883
   60DOPE   O11 7625  -0.045   5.775   2.206 -0.0333  0.2905  0.2460
   60DOPE   O12 7626   0.097   5.679   2.035  0.0144 -0.2061 -0.1699
   60DOPE    C1 7627   0.028   5.785   2.333 -0.2231  0.5647  0.1852
   60DOPE    HA 7628   0.108   5.861   2.321 -0.1967  0.5886  0.5046
   60DOPE    HB 7629   0.076   5.690   2.365  2.3546  2.0186  0.8656
   60DOPE    C2 7630  -0.070   5.835   2.442 -0.1133 -0.1696  0.2257
   60DOPE    HS 7631  -0.018   5.856   2.538 -0.4671 -1.4840  0.7350
   60DOPE   O21 7632  -0.161   5.730   2.472  0.5517 -0.1925 -0.1460
   60DOPE   C21 7633  -0.127   5.630   2.550  0.5773 -0.4540  0.5758
   60DOPE   O22 7634  -0.013   5.602   2.586 -0.2187 -0.2446 -0.0115
   60DOPE   C22 7635  -0.255   5.542   2.570  0.1405  0.9717  0.3152
   60DOPE   H2R 7636  -0.223   5.455   2.631 -2.6291  0.5765  1.3472
   60DOPE   H2S 7637  -0.292   5.511   2.470 -2.1117  0.4713  1.2506
   60DOPE    C3 7638  -0.133   5.969   2.404 -0.3324 -0.6202  0.6138
   60DOPE    HX 7639  -0.173   5.958   2.301 -0.1203 -0.5426  0.5225
   60DOPE    HY 7640  -0.048   6.039   2.416 -2.0526  1.2694  2.8123
   60DOPE   O31 7641  -0.241   6.004   2.499 -0.3625 -0.0420  0.7843
   60DOPE   C31 7642  -0.256   6.133   2.515  0.6409 -0.1073 -0.7691
   60DOPE   O32 7643  -0.191   6.219   2.462  0.1389 -0.3059  0.4976
   60DOPE   C32 7644  -0.397   6.150   2.583  0.2465 -0.7453  0.4095
   60DOPE   H2X 7645  -0.467   6.098   2.514 -0.9402  0.6711  0.4968
   60DOPE   H2Y 7646  -0.399   6.091   2.678  0.0899 -1.7165 -0.1749
   60DOPE   C23 7647  -0.369   5.617   2.643 -0.5561  0.0887 -0.5058
   60DOPE   H3R 7648  -0.435   5.540   2.688  1.1102 -1.3691 -0.4304
   60DOPE   H3S 7649  -0.426   5.690   2.583 -1.3644 -0.5818 -0.5702
   60DOPE   C24 7650  -0.324   5.691   2.774 -0.0077 -0.9007 -0.6550
   60DOPE   H4R 7651  -0.395   5.771   2.802  2.1526  0.4505  1.3278
   60DOPE   H4S 7652  -0.225   5.740   2.759  0.4779 -1.7663 -0.3744
   60DOPE   C25 7653  -0.323   5.587   2.876  0.4920 -0.0874 -0.7016
   60DOPE   H5R 7654  -0.273   5.493   2.845 -2.4995 -2.7748  2.0251
   60DOPE   H5S 7655  -0.426   5.558   2.904 -0.0623  0.5402 -1.9873
   60DOPE   C26 7656  -0.252   5.622   3.013 -0.2170  0.1712  0.1762
   60DOPE   H6R 7657  -0.258   5.533   3.080  4.1703  0.2507  0.9282
   60DOPE   H6S 7658  -0.308   5.703   3.065 -1.1574 -0.3487  0.0079
   60DOPE   C27 7659  -0.109   5.662   2.994  0.1132  0.6553  0.2599
   60DOPE   H7R 7660  -0.101   5.741   2.916 -1.0575  1.4571  0.9094
   60DOPE   H7S 7661  -0.054   5.577   2.949 -1.7435  0.1320 -1.1861
   60DOPE   C28 7662  -0.047   5.713   3.126 -0.0821  0.7891  0.4253
   60DOPE   H8R 7663  -0.123   5.761   3.191 -0.9134 -1.4698  1.2170
   60DOPE   H8S 7664   0.038   5.783   3.115  2.8833 -2.8842 -3.2098
   60DOPE   C29 7665  -0.005   5.602   3.217  0.0700 -0.1261  0.6141
   60DOPE   H9R 7666   0.087   5.550   3.189  1.0751  1.8115  0.1893
   60DOPE  C210 7667  -0.059   5.555   3.327  0.4596 -0.1932  0.1188
   60DOPE  H10R 7668  -0.005   5.481   3.389  1.0088 -0.0765 -0.2131
   60DOPE  C211 7669  -0.190   5.600   3.387  0.1095  0.6398  0.1469
   60DOPE  H11R 7670  -0.251   5.669   3.325 -1.5760  0.3207  1.3653
   60DOPE  H11S 7671  -0.179   5.658   3.482 -2.6231  0.6011  0.5726
   60DOPE  C212 7672  -0.272   5.471   3.413 -0.3848 -0.4709  0.1727
   60DOPE  H12R 7673  -0.205   5.399   3.466 -0.7893 -0.4265  0.7517
   60DOPE  H12S 7674  -0.299   5.415   3.321  1.9192 -1.9618  0.3216
   60DOPE  C213 7675  -0.397   5.504   3.495  0.1703  0.1861  0.5328
   60DOPE  H13R 7676  -0.467   5.553   3.425  1.5217  2.2855  0.5754
   60DOPE  H13S 7677  -0.378   5.589   3.564  0.5417  2.3173 -2.0508
   60DOPE  C214 7678  -0.479   5.385   3.551 -0.2444  0.2454 -0.3520
   60DOPE  H14R 7679  -0.418   5.334   3.629  0.5626  1.5288 -0.1111
   60DOPE  H14S 7680  -0.511   5.315   3.471 -1.5611  1.2173 -0.7019
   60DOPE  C215 7681  -0.602   5.436   3.633 -0.2606 -0.8573 -0.1476
   60DOPE  H15R 7682  -0.652   5.512   3.570  0.4729  0.9496  1.3798
   60DOPE  H15S 7683  -0.579   5.499   3.721 -1.2307  1.7420 -1.6503
   60DOPE  C216 7684  -0.706   5.332   3.672 -0.0134 -0.2474  0.7635
   60DOPE  H16R 7685  -0.660   5.237   3.707 -1.2610 -1.0038  0.4078
   60DOPE  H16S 7686  -0.759   5.322   3.575  0.2443 -1.0493  0.6938
   60DOPE  C217 7687  -0.796   5.380   3.787 -0.0486 -0.5075  0.7550
   60DOPE  H17R 7688  -0.841   5.476   3.755 -1.1413 -1.0050  0.7437
   60DOPE  H17S 7689  -0.745   5.396   3.884 -0.8261  0.0605  1.0800
   60DOPE  C218 7690  -0.905   5.277   3.817  0.0946 -0.0221  0.0190
   60DOPE  H18R 7691  -0.945   5.223   3.729  0.6346 -2.2032  1.0493
   60DOPE  H18S 7692  -0.995   5.321   3.865 -0.9467 -0.7638 -1.1945
   60DOPE  H18T 7693  -0.868   5.200   3.888  1.5681  0.2051 -0.4596
   60DOPE   C33 7694  -0.446   6.290   2.603  0.1541  0.2354  0.0213
   60DOPE   H3X 7695  -0.557   6.292   2.606  0.1069 -0.5060 -0.7472
   60DOPE   H3Y 7696  -0.430   6.356   2.515 -1.0438  1.4638  0.6877
   60DOPE   C34 7697  -0.397   6.361   2.734  0.3418 -0.0012  0.4631
   60DOPE   H4X 7698  -0.392   6.279   2.808 -0.0432 -0.6017 -0.1616
   60DOPE   H4Y 7699  -0.302   6.413   2.707  0.1519 -0.0983 -0.4249
   60DOPE   C35 7700  -0.500   6.461   2.780  0.4581  0.4677 -0.0690
   60DOPE   H5X 7701  -0.601   6.418   2.767  0.5750  0.7140 -2.3293
   60DOPE   H5Y 7702  -0.495   6.554   2.718  3.0251 -0.3332 -1.2303
   60DOPE   C36 7703  -0.466   6.500   2.928 -0.5244 -0.6175 -0.0230
   60DOPE   H6X 7704  -0.397   6.587   2.926 -1.5042  0.1517 -0.9019
   60DOPE   H6Y 7705  -0.410   6.431   2.995 -0.7663 -0.6204  0.1820
   60DOPE   C37 7706  -0.586   6.544   3.011 -0.6411  0.0266 -0.2981
   60DOPE   H7X 7707  -0.659   6.598   2.946 -1.6305 -2.3835 -1.3363
   60DOPE   H7Y 7708  -0.633   6.447   3.041 -0.3370 -0.2159 -0.5949
   60DOPE   C38 7709  -0.549   6.617   3.144  0.1568  1.0100  0.6096
   60DOPE   H8X 7710  -0.639   6.675   3.173 -0.8076  0.8574 -1.8563
   60DOPE   H8Y 7711  -0.459   6.676   3.118  1.5818 -1.4065 -0.2819
   60DOPE   C39 7712  -0.494   6.506   3.238  0.3424 -0.0694 -0.9785
   60DOPE   H9X 7713  -0.402   6.461   3.198  0.1328 -1.0597 -0.3850
   60DOPE  C310 7714  -0.542   6.479   3.364 -0.8090  1.0972  0.2795
   60DOPE  H10X 7715  -0.497   6.411   3.437 -1.1456  1.8018  1.1584
   60DOPE  C311 7716  -0.659   6.544   3.420 -0.4331  0.3766 -0.5438
   60DOPE  H11X 7717  -0.727   6.564   3.335  0.2872 -0.8596 -1.4416
   60DOPE  H11Y 7718  -0.723   6.481   3.485  1.1455 -0.7120  0.0165
   60DOPE  C312 7719  -0.629   6.676   3.499  0.9434  0.5497  0.7633
   60DOPE  H12X 7720  -0.585   6.739   3.418 -1.0450 -0.9827 -1.6709
   60DOPE  H12Y 7721  -0.553   6.666   3.579  0.4134  0.3449  1.2478
   60DOPE  C313 7722  -0.755   6.745   3.545  0.1383 -0.0077 -0.3845
   60DOPE  H13X 7723  -0.815   6.745   3.452  0.1832 -0.7109 -0.4127
   60DOPE  H13Y 7724  -0.806   6.673   3.613  0.4939 -0.6559 -0.7970
   60DOPE  C314 7725  -0.731   6.886   3.597  0.2867 -0.7867 -0.1086
   60DOPE  H14X 7726  -0.827   6.942   3.606  0.0500 -1.2931  0.6657
   60DOPE  H14Y 7727  -0.655   6.940   3.537 -0.3945  1.4484  0.9301
   60DOPE  C315 7728  -0.676   6.887   3.742 -0.9194 -0.3408  0.0351
   60DOPE  H15X 7729  -0.571   6.849   3.741 -1.0601 -0.8265  1.4945
   60DOPE  H15Y 7730  -0.749   6.819   3.792 -0.9412  0.6533  1.4239
   60DOPE  C316 7731  -0.679   7.017   3.813  0.2553  0.2581  0.1543
   60DOPE  H16X 7732  -0.779   7.065   3.811  0.5610  0.9585  0.9890
   60DOPE  H16Y 7733  -0.609   7.084   3.759  1.6947 -0.0963  1.5252
   60DOPE  C317 7734  -0.628   7.016   3.953 -0.1637  0.0647  0.3683
   60DOPE  H17X 7735  -0.689   6.947   4.015 -1.5389  0.6185 -0.3320
   60DOPE  H17Y 7736  -0.521   6.987   3.942 -1.1285 -3.4520 -1.1639
   60DOPE  C318 7737  -0.639   7.148   4.025  0.4970 -0.4146  0.8813
   60DOPE  H18X 7738  -0.594   7.138   4.126 -2.0959 -0.2480  2.1373
   60DOPE  H18Y 7739  -0.592   7.232   3.970  1.0973 -0.4041  1.3913
   60DOPE  H18Z 7740  -0.743   7.182   4.043  0.5659 -0.5069  1.4803
   6123SM     N 7741   2.950   5.329   6.959 -0.2455  0.2566  0.2053
   6123SM   C15 7742   2.853   5.442   6.977  0.3780 -0.2533  0.3668
   6123SM  H15A 7743   2.906   5.507   7.045  2.8580 -1.1936 -0.5351
   6123SM  H15B 7744   2.770   5.398   7.031  2.2776 -2.6969  1.5188
   6123SM  H15C 7745   2.835   5.487   6.881 -1.6734 -2.8827 -0.6071
   6123SM   C14 7746   2.969   5.282   7.097 -0.3219  0.1229 -0.0749
   6123SM  H14A 7747   3.014   5.184   7.103  0.8491  0.5535 -1.1771
   6123SM  H14B 7748   2.873   5.257   7.138  0.5102 -1.5348  0.9477
   6123SM  H14C 7749   3.028   5.355   7.151  2.7260 -1.7771 -0.6090
   6123SM   C13 7750   2.879   5.221   6.892 -0.4115  0.6679  0.3583
   6123SM  H13A 7751   2.863   5.229   6.785  1.1245  3.6803  0.2644
   6123SM  H13B 7752   2.786   5.214   6.947  0.1774  0.4299  1.3603
   6123SM  H13C 7753   2.924   5.125   6.914 -0.8502  0.1305 -0.9670
   6123SM   C12 7754   3.079   5.369   6.891  0.1980  0.0485 -0.1775
   6123SM  H12A 7755   3.135   5.278   6.879  1.4685  0.9983 -1.9010
   6123SM  H12B 7756   3.139   5.433   6.955 -1.1041  0.5223  0.6092
   6123SM   C11 7757   3.066   5.438   6.754 -0.4563 -0.3106  0.2843
   6123SM  H11A 7758   3.011   5.383   6.674 -0.1357 -0.3547  0.0927
   6123SM  H11B 7759   3.170   5.454   6.720 -0.7346  0.7352 -0.0971
   6123SM     P 7760   3.068   5.688   6.811  0.3907  0.2788 -0.0949
   6123SM   O13 7761   2.972   5.803   6.795 -0.1863  0.4038  0.3642
   6123SM   O14 7762   3.141   5.672   6.942  0.1229  0.3590  0.4642
   6123SM   O11 7763   3.175   5.704   6.699 -0.3091  0.1595 -0.4514
   6123SM   O12 7764   2.996   5.562   6.766 -0.7685  0.0260  0.0385
   6123SM   C1S 7765   3.122   5.710   6.569 -0.9450 -0.1260 -0.1039
   6123SM   H1S 7766   3.067   5.806   6.559  2.7179  2.3066  1.2972
   6123SM   H1T 7767   3.075   5.614   6.537 -0.1230 -0.4980 -0.1994
   6123SM    NF 7768   3.178   5.751   6.334  0.1159 -0.3897  0.1784
   6123SM   HNF 7769   3.199   5.687   6.261  2.1355 -0.0513  0.4027
   6123SM   C2S 7770   3.238   5.735   6.462 -0.0579  0.2475  1.2762
   6123SM   H2S 7771   3.292   5.828   6.491 -0.8170  0.4566  2.0397
   6123SM   C3S 7772   3.342   5.623   6.467 -0.0629 -0.2032  0.2748
   6123SM   H3S 7773   3.288   5.533   6.428 -2.7683  1.7418 -0.8006
   6123SM    O3 7774   3.384   5.580   6.595 -0.1291 -0.3020 -0.1359
   6123SM   HO3 7775   3.314   5.602   6.656  0.9648 -2.3413  2.0455
   6123SM   C4S 7776   3.459   5.648   6.368  0.4744 -0.3806  0.5717
   6123SM   H4S 7777   3.429   5.617   6.267  1.6058 -2.4467  0.8009
   6123SM   C5S 7778   3.586   5.689   6.391 -0.2751  0.4207  0.1466
   6123SM   H5S 7779   3.602   5.720   6.496  0.4517 -0.5452  0.3285
   6123SM   C6S 7780   3.707   5.670   6.296 -0.5601  0.6598 -0.2032
   6123SM   H6S 7781   3.757   5.575   6.325 -3.6347 -0.9115  0.4227
   6123SM   H6T 7782   3.769   5.757   6.326  1.9362 -1.0553 -0.1066
   6123SM   C7S 7783   3.681   5.684   6.142  0.6928 -0.0050 -0.3937
   6123SM   H7S 7784   3.615   5.771   6.121  0.4608 -0.8446 -3.6302
   6123SM   H7T 7785   3.621   5.596   6.111  1.6994 -0.9152  0.1872
   6123SM   C8S 7786   3.807   5.686   6.064  0.0591 -0.0558 -0.7679
   6123SM   H8S 7787   3.872   5.597   6.066  2.6198  1.6075  3.2092
   6123SM   H8T 7788   3.876   5.763   6.105 -1.1664  0.6452  0.0639
   6123SM   C9S 7789   3.775   5.723   5.923 -0.0162 -0.5713 -0.1660
   6123SM   H9S 7790   3.869   5.764   5.882  0.9229  0.0086  2.3661
   6123SM   H9T 7791   3.694   5.799   5.933 -0.8451 -0.9855 -2.9531
   6123SM  C10S 7792   3.740   5.595   5.845  0.2067 -0.1167  0.0543
   6123SM  H10S 7793   3.645   5.563   5.893 -0.3060  1.3424  0.0627
   6123SM  H10T 7794   3.826   5.526   5.859  1.1488  0.9246 -0.4525
   6123SM  C11S 7795   3.693   5.620   5.702 -0.3497 -0.0163 -0.8963
   6123SM  H11S 7796   3.619   5.700   5.720  0.2165  0.5497 -1.0798
   6123SM  H11T 7797   3.659   5.521   5.663 -1.7022 -1.1454  2.6838
   6123SM  C12S 7798   3.793   5.684   5.610  0.0406  0.0083 -0.2939
   6123SM  H12S 7799   3.828   5.776   5.660 -1.7613  0.1421  0.8220
   6123SM  H12T 7800   3.743   5.725   5.520  0.8483 -1.0067 -1.2405
   6123SM  C13S 7801   3.921   5.595   5.590 -0.8406 -0.3330  0.3881
   6123SM  H13S 7802   3.978   5.564   5.681 -1.2110  1.7100  1.3796
   6123SM  H13T 7803   3.993   5.662   5.538 -0.8374 -0.0338  0.7674
   6123SM  C14S 7804   3.904   5.457   5.516  0.0392  0.2244 -0.3476
   6123SM  H14S 7805   3.871   5.474   5.411 -0.1605  1.6159 -0.0864
   6123SM  H14T 7806   3.829   5.393   5.568 -1.0011  1.6342 -0.0416
   6123SM  C15S 7807   4.035   5.372   5.508  0.2103 -0.0380 -0.0630
   6123SM  H15S 7808   4.028   5.290   5.434 -2.4484  1.0760 -1.1887
   6123SM  H15T 7809   4.045   5.331   5.611 -0.9018  0.5775  0.3174
   6123SM  C16S 7810   4.158   5.453   5.476  0.1357  0.1351 -0.0882
   6123SM  H16S 7811   4.164   5.533   5.552  1.3595 -0.2406  0.2397
   6123SM  H16T 7812   4.138   5.495   5.375  1.5377 -1.0474 -0.9031
   6123SM  C17S 7813   4.288   5.376   5.481  0.5919 -0.3878 -0.2091
   6123SM  H17S 7814   4.280   5.285   5.418  2.1741 -1.0880  0.5425
   6123SM  H17T 7815   4.314   5.342   5.583  1.0404  2.8337  0.8594
   6123SM  C18S 7816   4.406   5.459   5.442  0.4859  0.4565 -0.7344
   6123SM  H18S 7817   4.384   5.540   5.369  0.1698  3.7423  2.6580
   6123SM  H18T 7818   4.499   5.406   5.416  0.4192 -0.6470  1.0728
   6123SM  H18U 7819   4.444   5.510   5.534 -0.0690 -1.6336  0.7261
   6123SM   C1F 7820   3.103   5.859   6.300 -0.7019 -0.0733  0.1018
   6123SM    OF 7821   3.090   5.954   6.377  0.1505  0.5448 -0.2721
   6123SM   C2F 7822   3.045   5.848   6.162  0.8635  0.4071 -0.6804
   6123SM   H2F 7823   2.941   5.887   6.166  0.7723  0.0830  1.2839
   6123SM   H2G 7824   3.053   5.744   6.126 -2.3707 -0.5736  1.0156
   6123SM   C3F 7825   3.114   5.949   6.065  0.5505  0.0770 -0.5814
   6123SM   H3F 7826   3.076   6.048   6.098 -1.1441 -1.0448  1.0397
   6123SM   H3G 7827   3.061   5.935   5.968 -1.0602 -0.4739  0.3530
   6123SM   C4F 7828   3.263   5.916   6.058 -0.3927  0.1431  0.4405
   6123SM   H4F 7829   3.282   5.807   6.055  0.1132  0.1075  2.8097
   6123SM   H4G 7830   3.305   5.946   6.156  1.1194  0.4907 -0.2794
   6123SM   C5F 7831   3.335   6.001   5.955  0.0196  0.2891  0.8127
   6123SM   H5F 7832   3.394   6.079   6.007  0.4002 -0.6356  1.7955
   6123SM   H5G 7833   3.251   6.052   5.903 -1.1619 -0.9247  1.4814
   6123SM   C6F 7834   3.418   5.940   5.837  0.4968  0.2536 -0.4046
   6123SM   H6F 7835   3.357   5.855   5.800 -3.4799  0.6729  4.1759
   6123SM   H6G 7836   3.510   5.896   5.883  0.0833  0.3959  0.5687
   6123SM   C7F 7837   3.454   6.044   5.729  0.4978 -0.0259  0.4214
   6123SM   H7F 7838   3.515   5.998   5.649 -1.8112  1.6616 -2.4804
   6123SM   H7G 7839   3.516   6.127   5.770  2.1532  1.0933 -3.8219
   6123SM   C8F 7840   3.338   6.122   5.667  0.4619  0.4176 -0.0894
   6123SM   H8F 7841   3.299   6.194   5.742  0.7432  1.3339 -0.8041
   6123SM   H8G 7842   3.255   6.054   5.639  1.3043 -0.2646 -1.0121
   6123SM   C9F 7843   3.378   6.193   5.532  0.1999 -0.4250  0.2691
   6123SM   H9F 7844   3.418   6.113   5.467  0.5862  0.1065 -0.1490
   6123SM   H9G 7845   3.458   6.268   5.550  0.5479 -0.6427 -0.3530
   6123SM  C10F 7846   3.263   6.247   5.448  0.2218  0.0614  0.1635
   6123SM  H10F 7847   3.223   6.337   5.501 -0.6312  0.8929 -1.7770
   6123SM  H10G 7848   3.185   6.169   5.441 -0.4002  0.7771 -1.7647
   6123SM  C11F 7849   3.305   6.292   5.308  0.2081  0.0060 -0.0582
   6123SM  H11F 7850   3.328   6.207   5.241 -2.1616 -1.2292  0.5667
   6123SM  H11G 7851   3.402   6.347   5.310 -0.0918  0.6698 -1.9499
   6123SM  C12F 7852   3.199   6.378   5.243 -0.5359  0.2673  0.3348
   6123SM  H12F 7853   3.181   6.470   5.303  2.0180 -0.1549  1.8933
   6123SM  H12G 7854   3.101   6.325   5.243  0.7716 -2.3252 -0.5654
   6123SM  C13F 7855   3.233   6.421   5.094  0.2222  0.2952 -0.7282
   6123SM  H13F 7856   3.239   6.330   5.031  1.2220 -0.1088 -0.0825
   6123SM  H13G 7857   3.329   6.478   5.100 -0.1809  0.8627  2.4271
   6123SM  C14F 7858   3.133   6.524   5.033  0.5863 -0.3103 -0.1364
   6123SM  H14F 7859   3.131   6.610   5.104 -0.2051 -1.4098  1.2225
   6123SM  H14G 7860   3.027   6.491   5.037  0.7362 -0.8586 -0.5795
   6123SM  C15F 7861   3.167   6.580   4.895 -0.6362 -0.7221  0.3966
   6123SM  H15F 7862   3.258   6.640   4.916  1.3209 -3.7350  1.3632
   6123SM  H15G 7863   3.083   6.647   4.868  0.2645  0.3142  0.1160
   6123SM  C16F 7864   3.184   6.477   4.783 -0.0757 -0.1095  0.3426
   6123SM  H16F 7865   3.283   6.428   4.797  0.8469  1.3838 -0.6442
   6123SM  H16G 7866   3.180   6.522   4.682 -0.9593 -0.1359  0.3638
   6123SM  C17F 7867   3.069   6.369   4.769  0.0028 -0.5227  0.1968
   6123SM  H17F 7868   2.975   6.427   4.759 -0.8506 -1.7270  0.9661
   6123SM  H17G 7869   3.075   6.308   4.862 -1.4214 -0.8475  0.0932
   6123SM  C18F 7870   3.079   6.267   4.653 -0.0792  0.2184 -0.2350
   6123SM  H18F 7871   3.170   6.205   4.672 -1.4742 -1.3231  1.8657
   6123SM  H18G 7872   3.086   6.332   4.564  0.8451  1.6096  0.8045
   6123SM  C19F 7873   2.956   6.174   4.639  0.3394  1.0074 -0.3875
   6123SM  H19F 7874   2.859   6.227   4.647  0.1987  0.7976 -0.7009
   6123SM  H19G 7875   2.972   6.110   4.729 -1.3339 -0.6777 -1.2221
   6123SM  C20F 7876   2.958   6.084   4.514  0.6248  0.2533 -0.5979
   6123SM  H20F 7877   3.032   6.001   4.515 -0.4193 -0.7707  2.0362
   6123SM  H20G 7878   2.977   6.152   4.429  0.6870  1.5123  0.3892
   6123SM  C21F 7879   2.832   5.998   4.504  1.0075  0.8237 -0.0472
   6123SM  H21F 7880   2.747   6.069   4.508 -2.1642 -2.7056  1.4410
   6123SM  H21G 7881   2.839   5.922   4.584  2.6128  0.0701 -0.8587
   6123SM  C22F 7882   2.828   5.924   4.372  0.1384 -0.2887 -0.1265
   6123SM  H22F 7883   2.916   5.859   4.348 -0.1167 -0.7179  0.0831
   6123SM  H22G 7884   2.822   5.995   4.287 -2.3418 -1.0526 -0.6690
   6123SM  C23F 7885   2.703   5.831   4.375  0.1272  0.5202 -0.1995
   6123SM  H23F 7886   2.609   5.882   4.402 -1.0292 -1.5214 -0.1439
   6123SM  H23G 7887   2.725   5.756   4.454 -1.8618 -0.4042 -0.4782
   6123SM  H23H 7888   2.687   5.780   4.278 -2.8106  0.3900  0.2651
   6223SM     N 7889   2.395   3.957   7.178  0.9947 -0.0371 -0.2435
   6223SM   C15 7890   2.312   3.833   7.161  0.2334 -0.1783  0.1859
   6223SM  H15A 7891   2.377   3.754   7.194  0.9670 -0.0888 -0.9798
   6223SM  H15B 7892   2.284   3.815   7.058 -0.6916 -0.3866  0.4700
   6223SM  H15C 7893   2.230   3.838   7.230 -0.5930 -3.5419 -0.3983
   6223SM   C14 7894   2.314   4.072   7.126 -0.0408  0.4404 -0.7435
   6223SM  H14A 7895   2.280   4.055   7.025 -3.3651 -0.4306  0.3672
   6223SM  H14B 7896   2.370   4.164   7.134  1.8886 -0.8323  1.7269
   6223SM  H14C 7897   2.220   4.081   7.178 -1.3877  0.2160 -2.9861
   6223SM   C13 7898   2.439   3.967   7.322  0.1656 -0.2484  0.0482
   6223SM  H13A 7899   2.479   4.063   7.352 -0.7686 -0.1818  1.1821
   6223SM  H13B 7900   2.512   3.894   7.354  1.0826  0.7120  0.1981
   6223SM  H13C 7901   2.361   3.959   7.396  0.1931 -0.8183  0.0150
   6223SM   C12 7902   2.515   3.945   7.082 -0.1279 -0.3869 -0.1601
   6223SM  H12A 7903   2.575   3.860   7.112  0.6292  0.7295  1.6868
   6223SM  H12B 7904   2.586   4.026   7.088  0.9436 -0.7969 -4.2449
   6223SM   C11 7905   2.494   3.937   6.926 -0.0608  0.4191  0.5163
   6223SM  H11A 7906   2.426   3.853   6.901  0.0725  0.5431 -0.2788
   6223SM  H11B 7907   2.595   3.920   6.883 -0.6269  0.6970 -0.9802
   6223SM     P 7908   2.543   4.184   6.852 -0.0520 -0.0705 -0.3160
   6223SM   O13 7909   2.476   4.309   6.891  0.1900  0.3582  0.8048
   6223SM   O14 7910   2.675   4.149   6.910 -1.0487 -0.5062 -0.3491
   6223SM   O11 7911   2.564   4.194   6.704 -0.3818 -0.0400  0.0448
   6223SM   O12 7912   2.446   4.068   6.873  0.2919  1.2837  0.3039
   6223SM   C1S 7913   2.618   4.092   6.616 -0.1574 -0.0869  0.4845
   6223SM   H1S 7914   2.555   4.001   6.623  0.4859 -0.4428  2.2379
   6223SM   H1T 7915   2.720   4.077   6.657  0.4614  0.7747 -0.6831
   6223SM    NF 7916   2.680   4.022   6.393  0.3276  0.1369  0.8615
   6223SM   HNF 7917   2.776   3.994   6.398 -0.6038 -3.4524  2.1368
   6223SM   C2S 7918   2.631   4.135   6.467  0.1357 -0.0610  0.5056
   6223SM   H2S 7919   2.532   4.160   6.425  1.7556  1.6758 -2.6727
   6223SM   C3S 7920   2.720   4.266   6.456  1.2820  0.3225 -0.3777
   6223SM   H3S 7921   2.808   4.230   6.513  0.3743  0.4703  1.1755
   6223SM    O3 7922   2.660   4.383   6.514  0.0384  0.6270 -0.1682
   6223SM   HO3 7923   2.593   4.351   6.575  0.0353  1.2729  0.1764
   6223SM   C4S 7924   2.757   4.299   6.318 -0.2606 -0.6766 -0.7854
   6223SM   H4S 7925   2.676   4.263   6.252 -1.7133  0.6069  0.2260
   6223SM   C5S 7926   2.881   4.340   6.278  0.8878 -0.1280 -0.1641
   6223SM   H5S 7927   2.941   4.355   6.369 -2.4943  3.8658  1.7867
   6223SM   C6S 7928   2.944   4.355   6.147  0.5180  0.2958  0.4281
   6223SM   H6S 7929   3.009   4.446   6.149  2.1330 -0.7828 -0.5525
   6223SM   H6T 7930   2.869   4.371   6.066 -1.2620  0.9530  2.1381
   6223SM   C7S 7931   3.027   4.229   6.117  0.0997  0.3647 -0.1964
   6223SM   H7S 7932   3.093   4.205   6.203 -0.8489 -2.5490 -0.1651
   6223SM   H7T 7933   3.084   4.250   6.024 -2.9937  1.7236 -1.9804
   6223SM   C8S 7934   2.941   4.100   6.093 -0.3581  0.0483 -0.4520
   6223SM   H8S 7935   2.895   4.066   6.189 -1.3318 -0.0246 -0.9317
   6223SM   H8T 7936   3.012   4.022   6.058  0.0935  1.3546 -2.6213
   6223SM   C9S 7937   2.831   4.102   5.976 -0.5819 -0.9595 -0.1534
   6223SM   H9S 7938   2.889   4.083   5.883  0.5798 -0.3757  0.4354
   6223SM   H9T 7939   2.797   4.207   5.970  0.6844 -0.2586  3.2523
   6223SM  C10S 7940   2.709   4.008   5.997 -0.9876  0.4199 -0.0972
   6223SM  H10S 7941   2.654   4.043   6.086 -0.5277  0.4528  0.1748
   6223SM  H10T 7942   2.748   3.908   6.025 -2.3292  0.3239  1.5506
   6223SM  C11S 7943   2.627   4.001   5.873  0.7307  0.3082  0.3014
   6223SM  H11S 7944   2.620   4.096   5.815 -1.4809 -0.2666 -0.4640
   6223SM  H11T 7945   2.520   3.988   5.904  1.1398  0.4359  1.8813
   6223SM  C12S 7946   2.682   3.892   5.780  0.4636 -0.3156  0.6354
   6223SM  H12S 7947   2.675   3.797   5.837  0.4456 -0.1271  0.9573
   6223SM  H12T 7948   2.779   3.923   5.736  0.3023  0.4561  0.7990
   6223SM  C13S 7949   2.596   3.879   5.654  1.1274 -0.1103  0.6564
   6223SM  H13S 7950   2.598   3.974   5.595  1.9188 -1.5666 -1.8257
   6223SM  H13T 7951   2.488   3.871   5.676  0.4198  2.3170 -1.4227
   6223SM  C14S 7952   2.632   3.762   5.564  0.1587  0.2018 -0.8105
   6223SM  H14S 7953   2.601   3.660   5.597 -1.2920  0.6815 -0.6468
   6223SM  H14T 7954   2.743   3.758   5.569  0.1742  1.2947  0.0540
   6223SM  C15S 7955   2.601   3.772   5.414  0.4933 -0.6553  0.2171
   6223SM  H15S 7956   2.625   3.874   5.377 -2.3735 -0.1604 -0.5168
   6223SM  H15T 7957   2.491   3.763   5.397 -0.1013  3.1846  1.1088
   6223SM  C16S 7958   2.677   3.668   5.337  0.5227  0.4404  0.1184
   6223SM  H16S 7959   2.660   3.565   5.373 -0.5468  0.7901  0.6423
   6223SM  H16T 7960   2.785   3.697   5.334  1.3490 -2.3036 -2.9037
   6223SM  C17S 7961   2.638   3.657   5.187  0.3788  0.2901 -0.1224
   6223SM  H17S 7962   2.647   3.758   5.141  2.9987  0.8319  1.3728
   6223SM  H17T 7963   2.534   3.620   5.174  0.9060 -1.2889 -0.0948
   6223SM  C18S 7964   2.726   3.565   5.106 -0.7239  0.2943  0.6104
   6223SM  H18S 7965   2.833   3.588   5.118 -0.1313 -0.7618 -1.9371
   6223SM  H18T 7966   2.701   3.546   4.999 -0.7908  2.4311  0.1955
   6223SM  H18U 7967   2.711   3.466   5.155 -0.5109 -0.6398 -1.1223
   6223SM   C1F 7968   2.597   3.919   6.352 -0.1555 -0.2079 -0.2472
   6223SM    OF 7969   2.477   3.929   6.365  0.0808 -0.2666  0.4715
   6223SM   C2F 7970   2.663   3.814   6.281 -0.8958 -0.3461 -0.7260
   6223SM   H2F 7971   2.681   3.737   6.359 -0.2930 -1.7923 -2.2354
   6223SM   H2G 7972   2.753   3.852   6.228 -0.5953  0.0790  0.0797
   6223SM   C3F 7973   2.570   3.745   6.177  0.1966  0.7159  0.2348
   6223SM   H3F 7974   2.570   3.819   6.095  2.6045  0.1668 -0.3238
   6223SM   H3G 7975   2.469   3.718   6.216 -0.4314  0.0401 -1.7484
   6223SM   C4F 7976   2.633   3.614   6.121  0.2566 -0.4311  1.0010
   6223SM   H4F 7977   2.636   3.534   6.199  0.6321 -0.5901  0.8264
   6223SM   H4G 7978   2.741   3.636   6.106 -0.0463  0.7177  0.3568
   6223SM   C5F 7979   2.562   3.556   5.990 -0.2647  0.2038 -0.1575
   6223SM   H5F 7980   2.521   3.644   5.936 -0.1574  1.1518  1.2413
   6223SM   H5G 7981   2.471   3.504   6.027  0.2204 -0.2593  0.4129
   6223SM   C6F 7982   2.657   3.462   5.918  0.8365  0.1314  0.6581
   6223SM   H6F 7983   2.672   3.376   5.987  0.0401  0.5769  1.3999
   6223SM   H6G 7984   2.755   3.514   5.914  1.2368 -0.5938  0.9166
   6223SM   C7F 7985   2.614   3.399   5.780  1.9649  0.0659 -0.2566
   6223SM   H7F 7986   2.632   3.475   5.700  0.4327  1.3319  0.5354
   6223SM   H7G 7987   2.510   3.362   5.796  2.0487 -0.2999 -0.5384
   6223SM   C8F 7988   2.694   3.282   5.740 -0.3726  0.4629 -0.2351
   6223SM   H8F 7989   2.673   3.204   5.816 -0.1632 -0.5624 -1.2118
   6223SM   H8G 7990   2.801   3.314   5.747 -0.5200  0.6932  1.6373
   6223SM   C9F 7991   2.674   3.227   5.597  0.6132  0.4428  0.2025
   6223SM   H9F 7992   2.711   3.123   5.597  0.5451  0.4184 -0.0083
   6223SM   H9G 7993   2.734   3.278   5.519  0.5335 -0.6823 -0.6159
   6223SM  C10F 7994   2.528   3.222   5.553  0.7402  0.4259  0.0693
   6223SM  H10F 7995   2.472   3.318   5.546 -0.8252 -0.5225 -1.3608
   6223SM  H10G 7996   2.473   3.179   5.639 -0.2480  2.1771  0.3649
   6223SM  C11F 7997   2.506   3.145   5.421  0.4025 -0.6075 -0.4700
   6223SM  H11F 7998   2.403   3.108   5.443  0.3320  0.7373  1.8033
   6223SM  H11G 7999   2.558   3.048   5.409 -1.2140 -1.8651  1.8135
   6223SM  C12F 8000   2.509   3.237   5.297 -0.1448 -0.0336 -0.1276
   6223SM  H12F 8001   2.612   3.278   5.286 -0.1203  1.0094  2.9534
   6223SM  H12G 8002   2.459   3.333   5.322  1.5521  0.4241  1.7786
   6223SM  C13F 8003   2.453   3.178   5.169 -0.0619 -0.5813 -0.7499
   6223SM  H13F 8004   2.528   3.111   5.121  0.2514 -0.2305 -0.7588
   6223SM  H13G 8005   2.435   3.267   5.105  1.6979 -0.6852 -1.4520
   6223SM  C14F 8006   2.318   3.100   5.195 -0.7125 -0.5077 -0.0079
   6223SM  H14F 8007   2.257   3.153   5.271 -1.4923 -0.1010 -0.8990
   6223SM  H14G 8008   2.336   2.994   5.223  0.4146 -0.4336 -0.4360
   6223SM  C15F 8009   2.226   3.101   5.074  0.4154 -0.0440 -1.0628
   6223SM  H15F 8010   2.223   3.203   5.031  2.1304  1.0008  1.0998
   6223SM  H15G 8011   2.121   3.078   5.102  0.7954 -1.6349 -0.8094
   6223SM  C16F 8012   2.285   3.019   4.962 -0.5488  0.2641 -0.5787
   6223SM  H16F 8013   2.291   2.914   4.998  0.2024  1.1242  1.9711
   6223SM  H16G 8014   2.381   3.065   4.929  0.1211 -1.5126 -1.2566
   6223SM  C17F 8015   2.200   3.027   4.833 -0.3507  0.5820 -0.4315
   6223SM  H17F 8016   2.187   3.135   4.810  0.9866  0.9575  0.4688
   6223SM  H17G 8017   2.107   2.979   4.870 -1.8165  3.1198 -0.5661
   6223SM  C18F 8018   2.259   2.946   4.711 -0.1083 -0.2355  0.1774
   6223SM  H18F 8019   2.300   2.853   4.755 -0.4232 -1.0034 -1.1000
   6223SM  H18G 8020   2.354   2.993   4.676  0.9378 -1.5101  1.1973
   6223SM  C19F 8021   2.165   2.906   4.586 -0.3990 -0.0629 -0.4366
   6223SM  H19F 8022   2.063   2.885   4.625 -1.1962  1.7642 -1.4143
   6223SM  H19G 8023   2.220   2.821   4.539  0.5312  0.1179  0.3078
   6223SM  C20F 8024   2.141   3.012   4.473  0.7079  0.0207  0.3571
   6223SM  H20F 8025   2.079   3.084   4.530  0.1277  1.1242 -1.5664
   6223SM  H20G 8026   2.078   2.957   4.400 -0.7520  2.2477 -0.1507
   6223SM  C21F 8027   2.263   3.076   4.410  0.2115  1.0009  0.0749
   6223SM  H21F 8028   2.342   2.998   4.411 -1.2326 -0.5329 -0.4467
   6223SM  H21G 8029   2.304   3.153   4.478  1.2020 -0.4930  1.2593
   6223SM  C22F 8030   2.238   3.118   4.269 -0.1255  0.0647  0.2568
   6223SM  H22F 8031   2.140   3.170   4.274 -1.0541 -1.4062 -1.4219
   6223SM  H22G 8032   2.225   3.023   4.212 -1.3591 -0.7417  1.8266
   6223SM  C23F 8033   2.349   3.193   4.201  0.5198 -0.4294 -0.3070
   6223SM  H23F 8034   2.369   3.290   4.252  2.6117 -0.3476 -1.2021
   6223SM  H23G 8035   2.314   3.217   4.099  0.7972 -1.3211 -0.6187
   6223SM  H23H 8036   2.448   3.143   4.202  1.1075  0.6857 -0.6251
   6323SM     N 8037   5.348   6.318   7.723  0.3587  0.2630 -0.5830
   6323SM   C15 8038   5.376   6.258   7.580 -0.5359 -0.0950  0.5466
   6323SM  H15A 8039   5.439   6.327   7.526  1.3376 -0.1681  2.5160
   6323SM  H15B 8040   5.290   6.230   7.520 -0.3758 -1.8827  1.0779
   6323SM  H15C 8041   5.438   6.170   7.590 -0.8585 -0.1057  3.1870
   6323SM   C14 8042   5.281   6.450   7.715  0.3889 -0.3201  0.4352
   6323SM  H14A 8043   5.347   6.523   7.670 -0.3485  1.3211  1.9091
   6323SM  H14B 8044   5.265   6.490   7.815  2.1560  1.5980  0.0229
   6323SM  H14C 8045   5.190   6.450   7.658  0.4119  0.1037  0.3897
   6323SM   C13 8046   5.271   6.220   7.813 -0.4276 -1.0909  0.0718
   6323SM  H13A 8047   5.171   6.211   7.773 -1.2504  0.9944  1.4740
   6323SM  H13B 8048   5.255   6.246   7.917  2.4410 -0.9088  0.5541
   6323SM  H13C 8049   5.310   6.119   7.819 -1.2175 -1.4089 -0.0105
   6323SM   C12 8050   5.476   6.348   7.797  0.9409  0.2125 -0.4048
   6323SM  H12A 8051   5.508   6.251   7.833  0.7793 -0.5462 -2.1911
   6323SM  H12B 8052   5.458   6.421   7.874 -0.1443 -0.2609 -0.1937
   6323SM   C11 8053   5.591   6.415   7.714  0.4159  0.4893 -0.2348
   6323SM  H11A 8054   5.569   6.523   7.697  0.8293  0.8209  1.1866
   6323SM  H11B 8055   5.605   6.351   7.625 -1.1846  0.7711 -0.7314
   6323SM     P 8056   5.771   6.519   7.866  0.4510  0.0034  0.2867
   6323SM   O13 8057   5.663   6.558   7.959  0.5616 -0.6126  0.8400
   6323SM   O14 8058   5.900   6.475   7.924 -0.0629 -0.3363  0.1750
   6323SM   O11 8059   5.797   6.630   7.760  0.3267  0.1600  0.1274
   6323SM   O12 8060   5.712   6.400   7.793 -0.0402 -0.0684 -0.2429
   6323SM   C1S 8061   5.869   6.615   7.640 -0.4878  0.0324 -0.3094
   6323SM   H1S 8062   5.875   6.510   7.605  1.8676 -0.3470  1.0245
   6323SM   H1T 8063   5.972   6.655   7.653  0.1249 -1.6848  0.3611
   6323SM    NF 8064   5.889   6.653   7.398 -0.3551 -0.0647 -0.5226
   6323SM   HNF 8065   5.959   6.721   7.380  0.8010 -0.9696  0.3875
   6323SM   C2S 8066   5.802   6.682   7.511 -0.7091  0.2182 -0.1379
   6323SM   H2S 8067   5.708   6.627   7.491 -0.0158 -0.2125 -2.5320
   6323SM   C3S 8068   5.772   6.830   7.542 -0.0977  0.2795  0.1425
   6323SM   H3S 8069   5.866   6.884   7.567  1.4998 -0.8153 -3.0018
   6323SM    O3 8070   5.677   6.842   7.650 -0.1766 -0.2267 -0.0330
   6323SM   HO3 8071   5.652   6.754   7.677 -0.8843  0.0714  0.3235
   6323SM   C4S 8072   5.700   6.890   7.428 -0.2405  0.6065 -0.9493
   6323SM   H4S 8073   5.607   6.834   7.409  0.2409 -0.7688  0.5789
   6323SM   C5S 8074   5.724   6.998   7.357 -0.1656 -0.3786 -0.2743
   6323SM   H5S 8075   5.823   7.046   7.358  0.3071 -1.3456 -0.1336
   6323SM   C6S 8076   5.643   7.052   7.242  0.9236 -0.1920  0.1231
   6323SM   H6S 8077   5.709   7.075   7.155  1.5562  0.1877  0.6894
   6323SM   H6T 8078   5.603   7.148   7.281 -0.3840 -0.7466  0.1685
   6323SM   C7S 8079   5.526   6.968   7.193 -0.5597  0.0974 -0.1748
   6323SM   H7S 8080   5.474   6.910   7.273 -1.2999 -1.4250 -1.6992
   6323SM   H7T 8081   5.564   6.895   7.118  0.4406  0.6988 -0.2653
   6323SM   C8S 8082   5.418   7.059   7.141  0.0977 -0.1055 -0.1585
   6323SM   H8S 8083   5.386   7.129   7.222 -1.3274  1.5432 -2.0291
   6323SM   H8T 8084   5.336   6.987   7.122  0.8568 -1.7414  2.2570
   6323SM   C9S 8085   5.459   7.131   7.014 -0.2079  0.4743 -0.6243
   6323SM   H9S 8086   5.538   7.072   6.964  0.7747 -2.2058  3.6142
   6323SM   H9T 8087   5.497   7.232   7.041  2.0461 -0.3992 -0.3319
   6323SM  C10S 8088   5.343   7.145   6.917 -0.2554  0.2476  0.1604
   6323SM  H10S 8089   5.361   7.235   6.855  0.9170 -0.7267 -0.9560
   6323SM  H10T 8090   5.251   7.173   6.975 -0.4231 -1.3540  0.7033
   6323SM  C11S 8091   5.310   7.026   6.841  0.2627  0.4734 -0.0955
   6323SM  H11S 8092   5.203   7.032   6.812  0.5194 -0.6626 -1.3815
   6323SM  H11T 8093   5.310   6.939   6.910 -1.4874 -0.8550 -1.6553
   6323SM  C12S 8094   5.391   7.000   6.719  0.4418  0.0438  0.3778
   6323SM  H12S 8095   5.490   6.956   6.744  0.8027  0.5195 -0.1883
   6323SM  H12T 8096   5.409   7.101   6.676  2.1346 -0.8846 -1.2600
   6323SM  C13S 8097   5.326   6.909   6.606  0.0358  0.0840  0.4074
   6323SM  H13S 8098   5.309   6.805   6.640 -0.9413 -0.0376 -0.4074
   6323SM  H13T 8099   5.395   6.906   6.519  0.4218  1.5929  0.6328
   6323SM  C14S 8100   5.179   6.953   6.574  0.3885  0.5825  0.2218
   6323SM  H14S 8101   5.167   7.063   6.568  0.1665  0.5680  0.4153
   6323SM  H14T 8102   5.119   6.909   6.656  0.8429  2.0902  1.4104
   6323SM  C15S 8103   5.122   6.895   6.440 -0.1116 -0.0248  0.4607
   6323SM  H15S 8104   5.160   6.791   6.430 -1.3523 -0.3583 -1.3334
   6323SM  H15T 8105   5.166   6.949   6.353 -0.2156 -1.3794 -0.4600
   6323SM  C16S 8106   4.975   6.870   6.425 -0.1090  0.3163 -0.2542
   6323SM  H16S 8107   4.948   6.803   6.509 -0.9535  2.4729  1.2858
   6323SM  H16T 8108   4.950   6.818   6.329 -0.8678 -3.4023  1.7651
   6323SM  C17S 8109   4.888   6.987   6.446  0.1019  0.6983  0.6103
   6323SM  H17S 8110   4.912   7.069   6.374  0.2887  1.2255  1.2681
   6323SM  H17T 8111   4.912   7.037   6.542 -0.0349 -0.6612  1.3645
   6323SM  C18S 8112   4.740   6.958   6.450 -0.1620  1.0775 -0.0225
   6323SM  H18S 8113   4.708   6.885   6.373  0.9919  1.2612 -0.6996
   6323SM  H18T 8114   4.689   7.056   6.442 -2.0820  0.2814  1.4466
   6323SM  H18U 8115   4.717   6.898   6.542  0.1634 -1.3898 -1.4495
   6323SM   C1F 8116   5.891   6.533   7.342 -0.2140 -0.1462  0.4388
   6323SM    OF 8117   5.826   6.445   7.387 -0.0935 -0.1560 -0.3003
   6323SM   C2F 8118   5.985   6.516   7.222  0.6105 -0.1562  0.4492
   6323SM   H2F 8119   6.045   6.424   7.239 -0.8630 -1.4440 -1.0601
   6323SM   H2G 8120   6.046   6.608   7.213  0.0440  0.3731  1.6972
   6323SM   C3F 8121   5.892   6.506   7.105  0.0350 -0.1265 -0.2362
   6323SM   H3F 8122   5.841   6.407   7.098  2.4267 -1.4212 -0.6142
   6323SM   H3G 8123   5.964   6.498   7.020  2.6028 -1.5362  1.9166
   6323SM   C4F 8124   5.799   6.623   7.089 -0.1050 -0.1205  0.2586
   6323SM   H4F 8125   5.848   6.723   7.085 -0.5514  0.1102  0.4568
   6323SM   H4G 8126   5.732   6.643   7.176 -0.0453  0.0621  0.2634
   6323SM   C5F 8127   5.714   6.600   6.962 -0.6675 -0.3364  0.5210
   6323SM   H5F 8128   5.618   6.653   6.976 -0.6460 -0.1683  0.0388
   6323SM   H5G 8129   5.688   6.493   6.949 -0.6034 -0.3954  0.8745
   6323SM   C6F 8130   5.795   6.636   6.841 -0.7277 -0.4040  0.3351
   6323SM   H6F 8131   5.871   6.557   6.823  0.9063  0.8942  1.1727
   6323SM   H6G 8132   5.869   6.719   6.856  0.0802 -1.0812  0.1949
   6323SM   C7F 8133   5.702   6.660   6.716 -0.7368 -0.5197  0.2104
   6323SM   H7F 8134   5.657   6.760   6.727  1.8889  0.7889 -0.1498
   6323SM   H7G 8135   5.634   6.572   6.713  0.0205 -1.0982 -0.5579
   6323SM   C8F 8136   5.781   6.651   6.587  0.1339 -0.3493  0.4129
   6323SM   H8F 8137   5.855   6.569   6.597 -0.2524 -0.9084 -1.0404
   6323SM   H8G 8138   5.835   6.746   6.567 -1.4200  0.4982  0.0746
   6323SM   C9F 8139   5.697   6.609   6.465  0.4344 -0.2248  0.1753
   6323SM   H9F 8140   5.690   6.499   6.458  0.2545 -0.1022 -1.9949
   6323SM   H9G 8141   5.765   6.631   6.381 -0.8825  1.5354 -0.5034
   6323SM  C10F 8142   5.556   6.671   6.459 -0.6492 -0.2116 -0.3383
   6323SM  H10F 8143   5.552   6.766   6.517 -2.5003 -0.5311  0.1145
   6323SM  H10G 8144   5.495   6.602   6.522  2.4232 -1.7642  1.2280
   6323SM  C11F 8145   5.503   6.680   6.320 -0.1117  0.2682 -0.2243
   6323SM  H11F 8146   5.577   6.714   6.245 -0.2943  0.9422 -0.1078
   6323SM  H11G 8147   5.416   6.749   6.326  0.4311  0.9811 -0.4908
   6323SM  C12F 8148   5.448   6.543   6.266  0.6191 -0.0498  0.2787
   6323SM  H12F 8149   5.534   6.489   6.222 -0.0661 -1.3132  0.4538
   6323SM  H12G 8150   5.380   6.572   6.183 -0.4824 -2.6587  0.1941
   6323SM  C13F 8151   5.369   6.459   6.360  0.2942 -0.2045 -0.2877
   6323SM  H13F 8152   5.424   6.430   6.452 -1.2243 -0.8580  0.4544
   6323SM  H13G 8153   5.335   6.362   6.318 -0.6162  1.1362 -2.8945
   6323SM  C14F 8154   5.232   6.522   6.409 -0.2683  0.3106  0.2219
   6323SM  H14F 8155   5.187   6.562   6.316 -1.4353  3.1657  1.8657
   6323SM  H14G 8156   5.252   6.607   6.478  0.6121  0.9638 -0.7902
   6323SM  C15F 8157   5.145   6.424   6.487  0.1519 -0.7507 -0.5080
   6323SM  H15F 8158   5.144   6.334   6.422  0.1226 -0.8499 -0.3708
   6323SM  H15G 8159   5.043   6.469   6.489  0.4660  0.0279 -1.6655
   6323SM  C16F 8160   5.189   6.394   6.629  0.4182  0.0027  0.1206
   6323SM  H16F 8161   5.292   6.354   6.639 -0.0851 -1.2380  0.6025
   6323SM  H16G 8162   5.126   6.310   6.666 -1.2791  0.9347 -0.5229
   6323SM  C17F 8163   5.166   6.512   6.725 -1.0505 -0.1675  0.6967
   6323SM  H17F 8164   5.060   6.545   6.734 -0.8493  0.7837 -0.2272
   6323SM  H17G 8165   5.210   6.599   6.673 -0.5913 -0.2804  0.8921
   6323SM  C18F 8166   5.235   6.488   6.861  0.3703 -0.5376  0.0062
   6323SM  H18F 8167   5.336   6.445   6.847  0.1543 -1.0152 -0.0901
   6323SM  H18G 8168   5.171   6.417   6.918 -0.0269 -0.7000 -0.6280
   6323SM  C19F 8169   5.263   6.618   6.930  0.3174  0.5319 -0.2517
   6323SM  H19F 8170   5.171   6.680   6.936  0.1265  0.1868  0.4636
   6323SM  H19G 8171   5.337   6.674   6.869  1.6058  2.1272  2.5774
   6323SM  C20F 8172   5.338   6.598   7.062  0.5753 -0.8030 -0.1819
   6323SM  H20F 8173   5.363   6.700   7.100  1.2067 -0.2385 -2.0258
   6323SM  H20G 8174   5.432   6.541   7.048  1.4556 -0.3095  2.8749
   6323SM  C21F 8175   5.250   6.521   7.169 -0.3534  0.3870  0.7529
   6323SM  H21F 8176   5.233   6.411   7.158 -1.6708  0.0611  4.5204
   6323SM  H21G 8177   5.149   6.565   7.158 -1.7444 -2.7952 -0.6521
   6323SM  C22F 8178   5.302   6.532   7.315 -0.3472 -0.4100  0.4196
   6323SM  H22F 8179   5.249   6.464   7.385 -1.9814  2.0209  1.6930
   6323SM  H22G 8180   5.283   6.635   7.351  0.1953  0.1571 -0.8613
   6323SM  C23F 8181   5.456   6.508   7.317 -0.1688 -0.1861 -0.2488
   6323SM  H23F 8182   5.487   6.425   7.251  1.0498  1.6306 -2.0993
   6323SM  H23G 8183   5.487   6.494   7.423 -0.7817 -1.5310 -0.2341
   6323SM  H23H 8184   5.504   6.600   7.278 -1.9148  0.8082 -0.1659
   6423SM     N 8185   3.103   4.441   7.679 -0.4207 -0.2199  0.1360
   6423SM   C15 8186   3.138   4.561   7.598  0.1318 -0.5411  0.4718
   6423SM  H15A 8187   3.166   4.640   7.666 -2.5640 -0.8086  2.0409
   6423SM  H15B 8188   3.051   4.595   7.543 -1.2946 -1.2355  2.1834
   6423SM  H15C 8189   3.218   4.538   7.530 -0.1806  0.3290 -0.2127
   6423SM   C14 8190   3.007   4.491   7.782  0.3724  0.2179 -0.3320
   6423SM  H14A 8191   2.967   4.404   7.833  2.1099 -0.7193 -0.4970
   6423SM  H14B 8192   2.928   4.554   7.741 -1.1630 -1.6677 -0.4162
   6423SM  H14C 8193   3.061   4.547   7.858 -2.1298  2.3229  0.0704
   6423SM   C13 8194   3.048   4.340   7.579  0.2849  0.1000  0.0150
   6423SM  H13A 8195   3.054   4.242   7.623 -0.6231 -0.4665 -1.0504
   6423SM  H13B 8196   3.109   4.320   7.491 -2.0076 -2.0590 -1.2147
   6423SM  H13C 8197   2.944   4.357   7.559 -0.7679 -4.0021  1.0903
   6423SM   C12 8198   3.225   4.382   7.752  0.4367 -0.0979  0.4482
   6423SM  H12A 8199   3.187   4.304   7.817 -2.1541  1.4636  0.9482
   6423SM  H12B 8200   3.270   4.458   7.815  3.6900  0.0354 -1.7791
   6423SM   C11 8201   3.338   4.327   7.666  0.0649 -0.8824  0.1416
   6423SM  H11A 8202   3.302   4.233   7.619  1.0637 -1.7188  0.9958
   6423SM  H11B 8203   3.424   4.293   7.728  1.6268 -2.4781 -2.7083
   6423SM     P 8204   3.464   4.384   7.449 -0.2644  0.1130 -0.0962
   6423SM   O13 8205   3.377   4.300   7.368 -0.0376 -0.2045  0.9101
   6423SM   O14 8206   3.525   4.506   7.389 -0.2975 -0.2029  0.4523
   6423SM   O11 8207   3.593   4.303   7.496 -0.0885 -0.0518  0.2271
   6423SM   O12 8208   3.381   4.424   7.576 -0.6343 -0.2878  0.4225
   6423SM   C1S 8209   3.655   4.208   7.410 -0.4432  0.0969 -0.3145
   6423SM   H1S 8210   3.588   4.132   7.365 -0.9261  0.1653  0.2719
   6423SM   H1T 8211   3.714   4.141   7.476 -1.6219  0.4162  1.1172
   6423SM    NF 8212   3.812   4.161   7.219 -0.2926 -0.0504  1.2884
   6423SM   HNF 8213   3.889   4.098   7.221  0.8101  0.9872 -2.2488
   6423SM   C2S 8214   3.766   4.268   7.310  0.3560  0.6165  0.8661
   6423SM   H2S 8215   3.719   4.346   7.246  1.1690  0.7455  0.4188
   6423SM   C3S 8216   3.881   4.333   7.386  0.0337 -0.7972  0.2217
   6423SM   H3S 8217   3.915   4.265   7.467  2.0044  2.6974  2.6088
   6423SM    O3 8218   3.847   4.449   7.463  0.2381  0.1017  0.5985
   6423SM   HO3 8219   3.751   4.453   7.463  0.2702  2.4536  1.1019
   6423SM   C4S 8220   4.004   4.371   7.307  0.3955 -0.2339  0.3993
   6423SM   H4S 8221   4.000   4.456   7.237 -0.7289 -1.8180 -1.5523
   6423SM   C5S 8222   4.119   4.300   7.306  0.2587  0.2836 -0.1850
   6423SM   H5S 8223   4.127   4.206   7.361  1.0021  0.4350 -0.0199
   6423SM   C6S 8224   4.240   4.333   7.217  0.2553  0.7213  0.5021
   6423SM   H6S 8225   4.293   4.241   7.183  0.6873  0.6524  1.3360
   6423SM   H6T 8226   4.301   4.410   7.269  1.7150  0.1568 -0.3046
   6423SM   C7S 8227   4.199   4.403   7.078 -0.1969  0.0156 -0.4991
   6423SM   H7S 8228   4.298   4.417   7.029 -0.3132  1.5942 -0.3608
   6423SM   H7T 8229   4.155   4.504   7.097  0.7517  0.8423 -2.4197
   6423SM   C8S 8230   4.123   4.321   6.981 -0.2646  0.3734 -0.1303
   6423SM   H8S 8231   4.023   4.297   7.025 -0.2085  0.3846  0.0055
   6423SM   H8T 8232   4.179   4.225   6.982  1.3584  1.2753  1.6033
   6423SM   C9S 8233   4.104   4.379   6.840  0.2167 -0.4643 -0.5940
   6423SM   H9S 8234   4.202   4.368   6.790  0.4590  0.3962 -0.3272
   6423SM   H9T 8235   4.079   4.486   6.858 -0.7731 -0.7006 -0.4968
   6423SM  C10S 8236   3.989   4.317   6.757  0.2515  0.6425 -0.7689
   6423SM  H10S 8237   3.892   4.332   6.808 -1.2235 -1.5162 -2.7549
   6423SM  H10T 8238   4.018   4.212   6.738  0.3904  0.6429 -0.5541
   6423SM  C11S 8239   3.983   4.380   6.620  0.5429  0.5639 -0.4989
   6423SM  H11S 8240   4.083   4.378   6.570  0.9348 -0.6148  0.2960
   6423SM  H11T 8241   3.947   4.485   6.611 -0.9706  0.0322 -0.8354
   6423SM  C12S 8242   3.889   4.302   6.523  0.4533  0.7437 -0.3310
   6423SM  H12S 8243   3.790   4.296   6.573 -0.0652 -2.9735 -1.5022
   6423SM  H12T 8244   3.922   4.197   6.504  2.6477  1.0119  1.5240
   6423SM  C13S 8245   3.889   4.372   6.391 -0.2107 -0.2904  1.1555
   6423SM  H13S 8246   3.993   4.407   6.373  0.7266 -3.4368 -0.2747
   6423SM  H13T 8247   3.835   4.469   6.393 -1.6657 -1.0205 -0.4702
   6423SM  C14S 8248   3.822   4.303   6.276 -0.2434 -0.8692  0.6127
   6423SM  H14S 8249   3.718   4.271   6.301 -0.6306  0.5511  0.8653
   6423SM  H14T 8250   3.882   4.210   6.260  1.5718  0.4832 -0.8376
   6423SM  C15S 8251   3.830   4.395   6.149  0.7455 -0.1093 -0.2334
   6423SM  H15S 8252   3.938   4.418   6.139  0.5847  0.2624 -1.2691
   6423SM  H15T 8253   3.773   4.488   6.172 -0.0628 -0.5984 -0.2294
   6423SM  C16S 8254   3.781   4.328   6.019 -1.0084  0.0527 -0.1082
   6423SM  H16S 8255   3.776   4.404   5.939 -3.2914  0.5845  0.4684
   6423SM  H16T 8256   3.678   4.284   6.023 -1.1547  0.4477  0.6553
   6423SM  C17S 8257   3.880   4.209   5.972  0.7626 -0.4282 -0.6806
   6423SM  H17S 8258   3.875   4.136   6.056  0.5116 -0.0029 -0.3261
   6423SM  H17T 8259   3.979   4.255   5.952 -0.6043  1.8980 -2.6255
   6423SM  C18S 8260   3.830   4.142   5.845  0.1791 -0.6847  0.9020
   6423SM  H18S 8261   3.900   4.059   5.821  1.3505  0.1408  1.4046
   6423SM  H18T 8262   3.812   4.223   5.771 -1.9107  0.1554  2.2340
   6423SM  H18U 8263   3.730   4.096   5.862 -0.8603  2.0850  2.9571
   6423SM   C1F 8264   3.731   4.129   7.118  0.0009  0.4576  0.5481
   6423SM    OF 8265   3.635   4.195   7.086  0.0900 -0.2687 -0.2791
   6423SM   C2F 8266   3.753   3.995   7.052  0.5074 -0.0516  0.7649
   6423SM   H2F 8267   3.668   3.926   7.069  0.4835  0.1825  1.6745
   6423SM   H2G 8268   3.840   3.956   7.110  0.5805 -2.1113 -0.6391
   6423SM   C3F 8269   3.793   3.985   6.905  0.1697  0.0981  0.1910
   6423SM   H3F 8270   3.827   3.880   6.897 -0.7555 -0.2603  0.8544
   6423SM   H3G 8271   3.875   4.054   6.876 -1.7102  2.5213  0.3146
   6423SM   C4F 8272   3.678   4.004   6.795  0.1443  0.0659 -0.1326
   6423SM   H4F 8273   3.641   4.109   6.798 -0.9542 -0.3168  0.9183
   6423SM   H4G 8274   3.592   3.934   6.808  0.8620 -0.9788 -0.8125
   6423SM   C5F 8275   3.733   3.969   6.657  0.0512  0.1253  0.1908
   6423SM   H5F 8276   3.777   3.867   6.654 -2.7182 -1.1032 -1.4854
   6423SM   H5G 8277   3.816   4.039   6.635  0.0536 -0.0900 -0.4983
   6423SM   C6F 8278   3.622   3.979   6.540 -0.0024 -0.7971 -0.7149
   6423SM   H6F 8279   3.588   4.084   6.549  2.1552 -0.1476  0.5439
   6423SM   H6G 8280   3.538   3.913   6.570  1.0721 -1.4076  1.0405
   6423SM   C7F 8281   3.660   3.946   6.398  0.5373  0.3843  0.2075
   6423SM   H7F 8282   3.713   3.849   6.397 -0.6801 -0.3082 -1.8838
   6423SM   H7G 8283   3.737   4.019   6.364  1.1362 -1.0018 -1.5184
   6423SM   C8F 8284   3.535   3.949   6.299 -0.5965 -0.4936  0.3058
   6423SM   H8F 8285   3.479   4.044   6.311  0.3925  0.2807 -0.9263
   6423SM   H8G 8286   3.462   3.868   6.321 -2.7391  1.4467  0.6909
   6423SM   C9F 8287   3.573   3.950   6.150  0.3121  0.9772 -0.4290
   6423SM   H9F 8288   3.623   3.853   6.126  0.8503  1.6562 -2.2787
   6423SM   H9G 8289   3.635   4.036   6.115 -2.7143  2.6851 -1.9885
   6423SM  C10F 8290   3.441   3.957   6.077 -0.0892 -0.3043 -0.0896
   6423SM  H10F 8291   3.417   4.062   6.105 -0.0236 -0.5053  0.7375
   6423SM  H10G 8292   3.375   3.878   6.120  0.3689 -1.2459 -1.0799
   6423SM  C11F 8293   3.441   3.938   5.921 -0.2242 -0.5846 -0.4232
   6423SM  H11F 8294   3.528   3.996   5.883  0.3031 -1.8698 -1.2337
   6423SM  H11G 8295   3.352   3.984   5.873  1.7998  1.6057 -2.3894
   6423SM  C12F 8296   3.463   3.784   5.884 -0.2847  0.2640 -0.1352
   6423SM  H12F 8297   3.380   3.728   5.933  1.0898 -1.8108 -0.0578
   6423SM  H12G 8298   3.561   3.760   5.929 -0.2283  1.1393  0.2285
   6423SM  C13F 8299   3.478   3.756   5.731  0.2531  0.2500  0.7510
   6423SM  H13F 8300   3.571   3.811   5.706 -0.1877  0.6323 -0.0681
   6423SM  H13G 8301   3.386   3.797   5.686 -0.6319 -2.0975  0.2545
   6423SM  C14F 8302   3.499   3.606   5.685 -0.2050 -0.4791  0.0678
   6423SM  H14F 8303   3.407   3.547   5.703 -0.0401 -1.4434 -1.9669
   6423SM  H14G 8304   3.590   3.566   5.733  0.2107  1.8737  1.3951
   6423SM  C15F 8305   3.521   3.583   5.534 -0.2173  0.6517  1.0897
   6423SM  H15F 8306   3.622   3.616   5.500 -0.7154  0.6022 -0.5146
   6423SM  H15G 8307   3.451   3.645   5.474  0.0653 -1.2196 -1.3444
   6423SM  C16F 8308   3.520   3.437   5.491 -0.4664  0.0018  0.0189
   6423SM  H16F 8309   3.418   3.398   5.468 -0.5410 -0.7853  1.5722
   6423SM  H16G 8310   3.572   3.373   5.566  1.8269 -1.1361 -2.3777
   6423SM  C17F 8311   3.614   3.410   5.366  0.2644  0.1017 -0.3859
   6423SM  H17F 8312   3.643   3.303   5.377 -0.5907 -0.0909  0.1068
   6423SM  H17G 8313   3.712   3.461   5.358  0.2900  0.2034  0.4762
   6423SM  C18F 8314   3.543   3.422   5.234  0.3607  0.5271 -0.0155
   6423SM  H18F 8315   3.518   3.531   5.232 -0.9721  0.2271 -1.8062
   6423SM  H18G 8316   3.448   3.365   5.245  0.7507 -0.3079 -0.8181
   6423SM  C19F 8317   3.621   3.383   5.108 -0.1894  0.9363  0.2844
   6423SM  H19F 8318   3.630   3.272   5.113 -0.7436  0.8317 -0.7388
   6423SM  H19G 8319   3.723   3.427   5.108  1.8062 -3.2059  0.3528
   6423SM  C20F 8320   3.543   3.410   4.983  0.3944 -0.3246 -0.1560
   6423SM  H20F 8321   3.531   3.519   4.965  0.0433 -0.6658 -2.2019
   6423SM  H20G 8322   3.441   3.373   5.007  0.7475 -0.3393  1.4192
   6423SM  C21F 8323   3.595   3.330   4.860 -0.3206  0.3041  0.7551
   6423SM  H21F 8324   3.608   3.222   4.884 -2.6605  0.0651  1.1062
   6423SM  H21G 8325   3.700   3.364   4.842 -0.6114  0.6959 -0.2813
   6423SM  C22F 8326   3.513   3.353   4.732 -0.1640 -0.0558 -0.3355
   6423SM  H22F 8327   3.516   3.464   4.722  0.1315  0.1499  1.6364
   6423SM  H22G 8328   3.408   3.317   4.744 -0.5983  1.0002 -0.8325
   6423SM  C23F 8329   3.577   3.283   4.619 -0.7218  0.3862  0.5649
   6423SM  H23F 8330   3.605   3.182   4.656 -1.1657 -0.4584 -1.2824
   6423SM  H23G 8331   3.665   3.344   4.592 -1.1202  1.1531  0.9517
   6423SM  H23H 8332   3.505   3.264   4.537 -0.7562  2.4579  0.0593
   6523SM     N 8333   4.256   5.090   7.662  0.6358 -0.1677  0.4567
   6523SM   C15 8334   4.290   4.974   7.762  0.1460  0.7788  0.3147
   6523SM  H15A 8335   4.396   4.966   7.780  0.7168  0.7957 -2.6110
   6523SM  H15B 8336   4.270   4.887   7.702  2.0942 -0.2254  1.0371
   6523SM  H15C 8337   4.238   4.973   7.857  1.0638 -0.6581  0.8340
   6523SM   C14 8338   4.116   5.074   7.607  0.0773  0.5693 -0.7586
   6523SM  H14A 8339   4.094   5.157   7.542  0.4059  0.7179 -0.6803
   6523SM  H14B 8340   4.038   5.067   7.682 -0.4587  0.1131 -1.3463
   6523SM  H14C 8341   4.107   4.983   7.551  0.6127 -1.0229  1.5998
   6523SM   C13 8342   4.260   5.226   7.729 -0.3412 -0.4076 -0.4669
   6523SM  H13A 8343   4.253   5.307   7.659  0.0464  0.3579  0.3615
   6523SM  H13B 8344   4.355   5.239   7.779  0.0159  2.5094 -1.7286
   6523SM  H13C 8345   4.179   5.248   7.798 -0.6565  0.9401 -1.2315
   6523SM   C12 8346   4.351   5.084   7.542 -0.4320 -0.4188  0.0916
   6523SM  H12A 8347   4.450   5.104   7.582 -0.1285 -2.2090  0.3370
   6523SM  H12B 8348   4.326   5.162   7.473  0.0908 -0.2704  0.0623
   6523SM   C11 8349   4.363   4.950   7.466 -0.1898 -0.2852 -0.3265
   6523SM  H11A 8350   4.388   4.866   7.535 -2.4625 -0.6620  0.1016
   6523SM  H11B 8351   4.458   4.966   7.411  0.2837 -1.6968  0.0313
   6523SM     P 8352   4.249   4.790   7.301 -0.1646  0.1483 -0.1357
   6523SM   O13 8353   4.275   4.678   7.398  0.7372 -0.6425  0.7997
   6523SM   O14 8354   4.122   4.787   7.224  0.2425 -0.3183  0.3487
   6523SM   O11 8355   4.368   4.793   7.196 -0.3032 -0.0508 -0.5221
   6523SM   O12 8356   4.252   4.924   7.382 -0.4437 -0.2283 -0.4181
   6523SM   C1S 8357   4.394   4.904   7.116 -0.4821  0.3105  1.4306
   6523SM   H1S 8358   4.394   4.998   7.175 -0.2661  1.3903 -0.2262
   6523SM   H1T 8359   4.307   4.930   7.052  0.5078  1.4293  0.5107
   6523SM    NF 8360   4.513   5.024   6.940  1.2024 -0.1526 -0.1977
   6523SM   HNF 8361   4.487   5.020   6.844  2.9405 -3.4450 -0.6833
   6523SM   C2S 8362   4.506   4.901   7.007 -0.0171 -0.0544  0.1321
   6523SM   H2S 8363   4.594   4.890   7.075  0.7313 -3.3508 -1.2339
   6523SM   C3S 8364   4.508   4.778   6.919 -0.5407 -0.2038 -0.1754
   6523SM   H3S 8365   4.419   4.787   6.853 -0.8974  0.6873  0.4025
   6523SM    O3 8366   4.490   4.650   6.981  0.0064 -0.0167 -0.7535
   6523SM   HO3 8367   4.475   4.669   7.074  0.7574 -1.4580 -0.3034
   6523SM   C4S 8368   4.629   4.775   6.826  0.1937  0.0004  0.7294
   6523SM   H4S 8369   4.711   4.712   6.864  0.0639 -2.3063 -2.4521
   6523SM   C5S 8370   4.635   4.801   6.695  0.0460 -0.6535  0.7708
   6523SM   H5S 8371   4.545   4.844   6.649 -0.1913  0.0188  1.8307
   6523SM   C6S 8372   4.753   4.788   6.603 -0.1060 -0.6499 -0.0976
   6523SM   H6S 8373   4.724   4.715   6.525 -1.2370 -0.7331  0.3931
   6523SM   H6T 8374   4.837   4.732   6.650  0.8599 -0.3383 -1.3855
   6523SM   C7S 8375   4.817   4.920   6.541 -0.0560  0.7509  0.5657
   6523SM   H7S 8376   4.889   4.897   6.460  0.4615  1.3296  0.8578
   6523SM   H7T 8377   4.880   4.966   6.620  0.7805  2.7830 -1.1791
   6523SM   C8S 8378   4.716   5.022   6.488  0.0201 -0.1470 -0.2508
   6523SM   H8S 8379   4.645   5.047   6.570  0.1700 -1.4684  0.2962
   6523SM   H8T 8380   4.656   4.972   6.408 -1.4400 -0.1796  0.8125
   6523SM   C9S 8381   4.776   5.153   6.436  0.8276 -0.0294 -0.2052
   6523SM   H9S 8382   4.824   5.211   6.518  0.5700 -0.8963  0.5781
   6523SM   H9T 8383   4.688   5.207   6.396  1.1705  1.0423  0.4304
   6523SM  C10S 8384   4.876   5.137   6.320  0.0738  0.3347  0.6327
   6523SM  H10S 8385   4.973   5.099   6.358  1.1855  1.7593 -0.6620
   6523SM  H10T 8386   4.909   5.239   6.291 -0.4089  0.6684  1.2547
   6523SM  C11S 8387   4.815   5.062   6.201 -0.5838 -0.3651  0.8132
   6523SM  H11S 8388   4.723   5.116   6.171  0.7911  1.6905  0.0529
   6523SM  H11T 8389   4.784   4.959   6.230 -1.5140 -0.5479 -0.7749
   6523SM  C12S 8390   4.918   5.060   6.082  0.9451  0.0023  0.0515
   6523SM  H12S 8391   5.013   5.006   6.103  0.3108 -1.1949 -0.0544
   6523SM  H12T 8392   4.949   5.164   6.059  0.3613  0.3223  0.6711
   6523SM  C13S 8393   4.852   4.997   5.955  0.2124  0.0651 -0.2239
   6523SM  H13S 8394   4.750   5.031   5.926 -0.0129 -0.1240  0.3246
   6523SM  H13T 8395   4.833   4.890   5.978 -0.4182 -0.1527 -1.6343
   6523SM  C14S 8396   4.941   5.000   5.828  0.9010  0.3476 -0.3134
   6523SM  H14S 8397   4.899   4.934   5.750 -2.9230  2.1354 -0.0056
   6523SM  H14T 8398   5.045   4.974   5.859  1.1886  1.2512 -0.4806
   6523SM  C15S 8399   4.943   5.142   5.769  0.2624 -0.0183 -0.1316
   6523SM  H15S 8400   4.991   5.213   5.840 -0.2719 -0.3651  0.5934
   6523SM  H15T 8401   4.842   5.186   5.751 -0.1032 -0.0399  1.6402
   6523SM  C16S 8402   5.021   5.155   5.641 -0.4263 -0.1342  0.0007
   6523SM  H16S 8403   4.975   5.083   5.570  1.8267 -0.4030 -1.2758
   6523SM  H16T 8404   5.126   5.127   5.661 -0.1241  2.1565  2.0653
   6523SM  C17S 8405   5.023   5.303   5.592 -1.0671 -0.5257 -0.0389
   6523SM  H17S 8406   5.026   5.372   5.679 -1.2787  0.1138 -0.5313
   6523SM  H17T 8407   4.922   5.322   5.550 -1.1441 -1.6659 -0.3967
   6523SM  C18S 8408   5.129   5.343   5.489 -0.8228  0.4274  0.4590
   6523SM  H18S 8409   5.160   5.266   5.416 -1.7750  0.6055 -0.1527
   6523SM  H18T 8410   5.216   5.369   5.554 -0.6475 -1.2746  0.9711
   6523SM  H18U 8411   5.092   5.436   5.440  0.2592  0.8536  0.4275
   6523SM   C1F 8412   4.530   5.145   6.997  0.3045 -0.1540 -0.1000
   6523SM    OF 8413   4.555   5.152   7.117  0.0562 -0.2979 -0.1370
   6523SM   C2F 8414   4.523   5.270   6.906  1.2393  0.1112  1.2958
   6523SM   H2F 8415   4.440   5.341   6.927  0.6800  0.7013 -2.3305
   6523SM   H2G 8416   4.492   5.239   6.805 -0.6182 -1.6292  2.3264
   6523SM   C3F 8417   4.649   5.362   6.909 -0.5847  0.5309  0.3090
   6523SM   H3F 8418   4.667   5.373   7.018 -1.9795 -2.4224  0.9520
   6523SM   H3G 8419   4.620   5.461   6.867 -0.7402  0.9311  1.3310
   6523SM   C4F 8420   4.771   5.300   6.837  0.0564  0.2177  0.1144
   6523SM   H4F 8421   4.756   5.306   6.727  1.1133 -0.2188 -0.0680
   6523SM   H4G 8422   4.773   5.191   6.856 -4.2298 -0.1136 -0.4379
   6523SM   C5F 8423   4.911   5.370   6.856 -0.0917  0.0758 -0.3700
   6523SM   H5F 8424   4.995   5.305   6.823  1.3261  1.5564  0.2403
   6523SM   H5G 8425   4.924   5.387   6.965  0.0166  1.8293 -0.6248
   6523SM   C6F 8426   4.907   5.517   6.805 -0.4140 -0.7861  0.3975
   6523SM   H6F 8427   4.997   5.567   6.844 -0.1467 -0.5611 -0.4854
   6523SM   H6G 8428   4.816   5.563   6.850 -1.1789 -2.5335  0.7199
   6523SM   C7F 8429   4.909   5.530   6.650  0.0435  0.0887 -0.5410
   6523SM   H7F 8430   4.892   5.634   6.617 -1.3100 -0.1461 -0.6318
   6523SM   H7G 8431   4.836   5.467   6.596  1.2161  0.5148 -2.7242
   6523SM   C8F 8432   5.051   5.500   6.607 -0.0971 -0.4111  0.4925
   6523SM   H8F 8433   5.125   5.522   6.686 -0.1426 -0.8515  0.6582
   6523SM   H8G 8434   5.076   5.571   6.525 -1.2938  0.4017  0.8198
   6523SM   C9F 8435   5.081   5.361   6.555  0.5881 -0.2788  0.3040
   6523SM   H9F 8436   5.020   5.337   6.466  0.6501 -0.4822  0.3157
   6523SM   H9G 8437   5.056   5.278   6.625 -1.3982 -1.0594 -1.2252
   6523SM  C10F 8438   5.225   5.344   6.506  0.1452  0.2384  0.1186
   6523SM  H10F 8439   5.301   5.337   6.586  0.7593 -2.1491 -0.5880
   6523SM  H10G 8440   5.264   5.428   6.445  0.6315  0.1839  0.3518
   6523SM  C11F 8441   5.245   5.220   6.416  0.3015  0.0714  0.2666
   6523SM  H11F 8442   5.177   5.243   6.331 -0.0588 -0.9909  0.2492
   6523SM  H11G 8443   5.211   5.129   6.469  0.0897  0.4599  0.8163
   6523SM  C12F 8444   5.386   5.191   6.380  0.4124 -0.2287  0.4452
   6523SM  H12F 8445   5.455   5.179   6.467  2.7591  0.2068 -1.2644
   6523SM  H12G 8446   5.422   5.283   6.330  0.5000 -1.4540 -1.8847
   6523SM  C13F 8447   5.413   5.084   6.279 -0.1323 -1.2233  0.6454
   6523SM  H13F 8448   5.379   4.986   6.320  0.1755 -2.4368 -1.7937
   6523SM  H13G 8449   5.523   5.077   6.265  0.2984  1.8870  1.7441
   6523SM  C14F 8450   5.364   5.117   6.140 -0.1569 -0.4425 -0.8251
   6523SM  H14F 8451   5.385   5.218   6.098 -1.3144 -0.4384 -1.4299
   6523SM  H14G 8452   5.253   5.107   6.136 -0.1101 -1.3759 -0.1081
   6523SM  C15F 8453   5.438   5.026   6.037  0.4563 -0.7393  1.0642
   6523SM  H15F 8454   5.548   5.022   6.050  0.7015 -0.2849 -0.6400
   6523SM  H15G 8455   5.425   5.064   5.933  1.3787 -0.3612  1.0764
   6523SM  C16F 8456   5.399   4.879   6.039 -0.4721  0.3817  0.1212
   6523SM  H16F 8457   5.421   4.849   6.143  3.3233  0.5918 -0.4748
   6523SM  H16G 8458   5.474   4.828   5.974 -0.1362 -2.1370  2.3166
   6523SM  C17F 8459   5.264   4.832   5.987 -0.0188  0.2799  0.4067
   6523SM  H17F 8460   5.272   4.817   5.877  1.1039  1.7298  0.2582
   6523SM  H17G 8461   5.177   4.901   5.989 -1.6575 -1.5152 -1.7689
   6523SM  C18F 8462   5.198   4.711   6.062  0.1592  0.0641 -0.1165
   6523SM  H18F 8463   5.198   4.731   6.171 -1.9964  1.7436 -0.3534
   6523SM  H18G 8464   5.260   4.626   6.027 -3.1690 -2.1541 -1.1215
   6523SM  C19F 8465   5.051   4.684   6.017 -0.4582 -0.0598 -0.4214
   6523SM  H19F 8466   5.035   4.694   5.908 -0.4401  1.6294 -0.2821
   6523SM  H19G 8467   4.991   4.769   6.056  0.1017  0.6693 -1.1182
   6523SM  C20F 8468   4.988   4.554   6.079 -0.3079 -0.2895 -0.0479
   6523SM  H20F 8469   5.023   4.553   6.184 -1.3093 -0.8132  0.2842
   6523SM  H20G 8470   5.031   4.465   6.029  2.9122  1.2293 -0.2877
   6523SM  C21F 8471   4.836   4.534   6.067 -0.6174 -0.5598  0.2374
   6523SM  H21F 8472   4.777   4.600   6.133 -1.2790 -1.6318  0.7513
   6523SM  H21G 8473   4.821   4.428   6.096 -0.3843 -0.9496 -1.0101
   6523SM  C22F 8474   4.775   4.559   5.930  0.0020 -0.3473  0.0550
   6523SM  H22F 8475   4.818   4.492   5.853 -0.4999  0.1405 -0.6599
   6523SM  H22G 8476   4.794   4.662   5.893 -5.0517  0.4646 -0.9798
   6523SM  C23F 8477   4.622   4.544   5.935  0.4204  0.0266 -0.3097
   6523SM  H23F 8478   4.587   4.484   6.022 -0.4384  1.7865  0.5991
   6523SM  H23G 8479   4.585   4.498   5.841 -1.7674 -0.0852  0.5491
   6523SM  H23H 8480   4.569   4.640   5.951 -1.9179 -1.3211  0.4850
   6623SM     N 8481   3.507   2.828   7.036  0.1485 -0.1436  0.2063
   6623SM   C15 8482   3.502   2.774   7.179  0.5820 -0.8866 -0.0962
   6623SM  H15A 8483   3.499   2.666   7.183  0.9371 -0.8852  0.3610
   6623SM  H15B 8484   3.411   2.805   7.229 -0.5117 -1.2415 -1.7832
   6623SM  H15C 8485   3.582   2.814   7.240 -0.4965  0.8452  0.2618
   6623SM   C14 8486   3.642   2.769   6.985  0.3206  0.2820  0.4178
   6623SM  H14A 8487   3.606   2.700   6.910  0.3653  0.8581 -0.1456
   6623SM  H14B 8488   3.678   2.702   7.061 -1.8253  0.0560  1.3214
   6623SM  H14C 8489   3.714   2.838   6.944  1.0105 -0.5067  0.2809
   6623SM   C13 8490   3.400   2.771   6.956  0.0569  0.8415  0.5638
   6623SM  H13A 8491   3.303   2.793   6.998  1.0904  0.7653  3.1724
   6623SM  H13B 8492   3.396   2.663   6.952  1.8401  0.7512  0.4399
   6623SM  H13C 8493   3.398   2.813   6.856  1.8829  0.4182  0.3240
   6623SM   C12 8494   3.501   2.983   7.029  0.4120 -0.1543  0.1528
   6623SM  H12A 8495   3.399   3.010   7.049 -0.0552 -2.2576  0.8698
   6623SM  H12B 8496   3.510   3.010   6.925 -1.0178  1.7680  0.4832
   6623SM   C11 8497   3.603   3.070   7.108 -0.7633  0.4718  0.1756
   6623SM  H11A 8498   3.602   3.172   7.063 -1.4077  0.5577  0.3777
   6623SM  H11B 8499   3.701   3.018   7.102  0.1126  1.3859  3.9802
   6623SM     P 8500   3.664   3.154   7.358 -0.0316  0.3504  0.3667
   6623SM   O13 8501   3.589   3.270   7.413  0.7690  0.6162 -0.7758
   6623SM   O14 8502   3.726   3.060   7.448  0.0085  0.0980 -0.1049
   6623SM   O11 8503   3.784   3.214   7.275 -0.1020 -0.4275 -0.1366
   6623SM   O12 8504   3.573   3.087   7.248  0.5110 -0.6476 -0.5896
   6623SM   C1S 8505   3.898   3.136   7.235  0.4689  0.0103  0.6019
   6623SM   H1S 8506   3.877   3.028   7.218  1.0728  0.0019 -0.1510
   6623SM   H1T 8507   3.979   3.142   7.311  0.8263  1.2077  0.1482
   6623SM    NF 8508   4.059   3.119   7.049  0.6373 -0.1492  0.5245
   6623SM   HNF 8509   4.150   3.147   7.076  0.9179 -0.2053 -0.3174
   6623SM   C2S 8510   3.956   3.203   7.110  0.0973 -0.3181 -0.1748
   6623SM   H2S 8511   3.876   3.207   7.033  0.1132 -1.2517 -0.2543
   6623SM   C3S 8512   4.004   3.344   7.136  0.5916 -0.7006  0.4611
   6623SM   H3S 8513   4.078   3.347   7.218  0.5876  4.0008  0.5464
   6623SM    O3 8514   3.897   3.431   7.176 -0.3546  0.0590  0.5465
   6623SM   HO3 8515   3.819   3.376   7.184  0.9222 -1.5495  3.4862
   6623SM   C4S 8516   4.066   3.401   7.010  0.0509 -0.1547  0.8637
   6623SM   H4S 8517   4.175   3.388   7.004  0.0814  0.7618 -2.8456
   6623SM   C5S 8518   4.001   3.467   6.906 -0.1393 -0.2048  0.4521
   6623SM   H5S 8519   3.895   3.493   6.915  0.0424  0.8641 -0.3828
   6623SM   C6S 8520   4.059   3.536   6.781 -0.1038  0.1062  0.6869
   6623SM   H6S 8521   4.069   3.647   6.775 -0.5524  0.0551 -2.3823
   6623SM   H6T 8522   3.984   3.519   6.701 -0.0062 -0.2717  0.6748
   6623SM   C7S 8523   4.196   3.465   6.749 -0.5306  0.2676  0.6836
   6623SM   H7S 8524   4.174   3.357   6.739  1.5320 -0.0270 -1.6686
   6623SM   H7T 8525   4.269   3.482   6.831  0.8572  0.8322 -0.6147
   6623SM   C8S 8526   4.266   3.521   6.617  0.1948  0.2464 -0.5164
   6623SM   H8S 8527   4.335   3.443   6.579 -0.0435  0.0835 -0.6127
   6623SM   H8T 8528   4.322   3.613   6.645 -0.8646  1.3388 -1.8537
   6623SM   C9S 8529   4.182   3.558   6.496 -0.1205  0.4737 -0.4184
   6623SM   H9S 8530   4.102   3.634   6.514  0.5295  1.0599  0.0531
   6623SM   H9T 8531   4.137   3.464   6.459 -1.3047  1.2060 -0.9168
   6623SM  C10S 8532   4.255   3.608   6.371  0.5618 -0.1793 -0.0929
   6623SM  H10S 8533   4.318   3.689   6.413 -1.6283  1.6786 -0.2298
   6623SM  H10T 8534   4.171   3.652   6.315 -0.1832  0.3656  1.3983
   6623SM  C11S 8535   4.338   3.501   6.299 -0.0140 -0.3081 -0.4965
   6623SM  H11S 8536   4.264   3.442   6.241 -1.8756 -0.1215  1.5727
   6623SM  H11T 8537   4.393   3.437   6.371  0.0692 -2.3445 -2.2613
   6623SM  C12S 8538   4.424   3.563   6.188  0.2575  0.3520 -0.0248
   6623SM  H12S 8539   4.361   3.634   6.129  0.4352  1.4512  1.0781
   6623SM  H12T 8540   4.446   3.484   6.113 -1.6057 -0.7768  0.5440
   6623SM  C13S 8541   4.557   3.627   6.221 -0.3331  0.2745 -0.2978
   6623SM  H13S 8542   4.630   3.552   6.258  1.4561  1.2508 -1.6572
   6623SM  H13T 8543   4.543   3.715   6.288 -0.5392  1.0841 -1.3813
   6623SM  C14S 8544   4.634   3.684   6.094 -0.1989 -0.2599  0.0376
   6623SM  H14S 8545   4.571   3.772   6.072 -0.3275 -0.9373 -2.7644
   6623SM  H14T 8546   4.621   3.622   6.003 -1.8545 -1.1259  0.8358
   6623SM  C15S 8547   4.774   3.746   6.107 -0.4650 -0.0871  0.0559
   6623SM  H15S 8548   4.840   3.658   6.119 -2.2535 -1.1787  3.5451
   6623SM  H15T 8549   4.787   3.815   6.194 -3.0008 -0.0175  0.4655
   6623SM  C16S 8550   4.815   3.811   5.978  0.0040 -0.3578 -0.6099
   6623SM  H16S 8551   4.748   3.897   5.953  3.4603  1.7064 -4.0837
   6623SM  H16T 8552   4.817   3.740   5.892  0.3660 -1.0536 -0.0242
   6623SM  C17S 8553   4.954   3.874   5.979 -0.1439 -0.0123  0.7775
   6623SM  H17S 8554   4.977   3.892   5.872 -3.5902  1.0727  0.0999
   6623SM  H17T 8555   5.022   3.795   6.019  0.3405 -0.0630 -0.1213
   6623SM  C18S 8556   4.965   4.010   6.061  0.5859 -0.3658 -0.0529
   6623SM  H18S 8557   4.910   3.994   6.156  0.4430  0.2424 -0.0262
   6623SM  H18T 8558   4.906   4.092   6.015 -0.8050 -1.9190 -1.1225
   6623SM  H18U 8559   5.069   4.034   6.093  1.2450 -0.6585 -1.8439
   6623SM   C1F 8560   4.029   2.994   7.002 -0.2080 -0.2356  0.6601
   6623SM    OF 8561   3.916   2.951   6.980  0.8522 -0.1472 -0.3030
   6623SM   C2F 8562   4.150   2.905   6.993 -0.4302 -0.1982 -0.4088
   6623SM   H2F 8563   4.105   2.803   6.988 -0.0274 -0.5271  1.9167
   6623SM   H2G 8564   4.203   2.919   7.089 -0.2553 -0.2246 -0.5019
   6623SM   C3F 8565   4.246   2.938   6.872  0.0646 -0.0762  0.3474
   6623SM   H3F 8566   4.272   3.046   6.871 -1.5351  0.3655  1.9375
   6623SM   H3G 8567   4.179   2.903   6.790 -3.0797 -2.2127  3.5675
   6623SM   C4F 8568   4.373   2.858   6.880 -0.0410 -0.5727  0.6624
   6623SM   H4F 8569   4.346   2.753   6.903  0.1354 -0.8226 -0.2542
   6623SM   H4G 8570   4.425   2.894   6.972  0.0919  2.1707 -0.3812
   6623SM   C5F 8571   4.451   2.869   6.757 -0.0861  0.3994 -0.1741
   6623SM   H5F 8572   4.558   2.844   6.775  0.2870  1.4657 -0.8164
   6623SM   H5G 8573   4.450   2.978   6.738 -1.9782  0.6705  1.2541
   6623SM   C6F 8574   4.400   2.786   6.636  0.0145  0.2209  0.3766
   6623SM   H6F 8575   4.300   2.825   6.609  0.2223  1.0836  0.8098
   6623SM   H6G 8576   4.382   2.679   6.660 -1.4150  0.2155 -0.5719
   6623SM   C7F 8577   4.495   2.797   6.514  0.6256  0.7849 -0.6299
   6623SM   H7F 8578   4.595   2.751   6.530 -0.1072 -0.4828  0.4898
   6623SM   H7G 8579   4.521   2.903   6.491  2.0986  0.2105 -1.7861
   6623SM   C8F 8580   4.419   2.743   6.389  0.4970  0.1482 -0.9705
   6623SM   H8F 8581   4.328   2.805   6.384  1.0579  1.2570  1.2789
   6623SM   H8G 8582   4.390   2.639   6.417 -1.9280  0.2589 -2.8192
   6623SM   C9F 8583   4.510   2.746   6.268  0.0865 -0.0566 -0.7231
   6623SM   H9F 8584   4.584   2.665   6.283 -0.1769 -0.0542  0.7626
   6623SM   H9G 8585   4.564   2.843   6.255 -0.2297  0.3356  0.6073
   6623SM  C10F 8586   4.438   2.712   6.134  0.1023  0.4982 -0.8406
   6623SM  H10F 8587   4.358   2.785   6.111 -0.7344  0.0282  0.4705
   6623SM  H10G 8588   4.391   2.612   6.144  1.4851  0.1224  4.1196
   6623SM  C11F 8589   4.530   2.721   6.008  0.2256  0.2904  0.2011
   6623SM  H11F 8590   4.609   2.643   6.014 -1.1216 -1.0333  1.7914
   6623SM  H11G 8591   4.571   2.824   6.006 -1.1780  0.8831  0.5199
   6623SM  C12F 8592   4.463   2.703   5.873 -0.0462 -0.3752  0.6861
   6623SM  H12F 8593   4.392   2.786   5.851  1.1964  0.2839 -1.1144
   6623SM  H12G 8594   4.405   2.610   5.888  0.1146 -0.3575  1.4388
   6623SM  C13F 8595   4.542   2.691   5.746  0.8055  0.0556  0.5441
   6623SM  H13F 8596   4.636   2.639   5.774  1.3685  0.8259  0.1574
   6623SM  H13G 8597   4.573   2.788   5.700  1.8190  0.9447  2.9219
   6623SM  C14F 8598   4.478   2.602   5.636 -0.2958 -0.4883 -0.8963
   6623SM  H14F 8599   4.388   2.663   5.611  2.2589  3.0938 -2.1906
   6623SM  H14G 8600   4.446   2.512   5.692 -0.1231 -0.8132 -1.3197
   6623SM  C15F 8601   4.564   2.578   5.517 -0.4760  0.4203  0.4528
   6623SM  H15F 8602   4.633   2.491   5.522 -1.0745 -0.0727  0.1920
   6623SM  H15G 8603   4.623   2.668   5.488  0.9504 -0.6175  0.0036
   6623SM  C16F 8604   4.475   2.550   5.392 -0.5955  0.0860  0.0387
   6623SM  H16F 8605   4.534   2.572   5.301 -0.6824  0.7474  0.1401
   6623SM  H16G 8606   4.396   2.628   5.386 -0.2130  0.4320 -0.5636
   6623SM  C17F 8607   4.420   2.406   5.385 -0.0199  0.1311  1.0039
   6623SM  H17F 8608   4.337   2.391   5.457  0.3943 -1.2096  1.2347
   6623SM  H17G 8609   4.498   2.331   5.408 -0.1055 -0.2048  0.2286
   6623SM  C18F 8610   4.358   2.383   5.249 -0.0928  0.0594  0.3618
   6623SM  H18F 8611   4.332   2.276   5.243 -0.1354  0.1305 -1.8504
   6623SM  H18G 8612   4.439   2.393   5.172  0.2425 -2.6806  0.2632
   6623SM  C19F 8613   4.232   2.469   5.227 -0.1257  0.0921  0.8440
   6623SM  H19F 8614   4.248   2.577   5.252 -1.0003  0.0530  1.6164
   6623SM  H19G 8615   4.154   2.430   5.295 -1.1203 -2.1089 -1.4228
   6623SM  C20F 8616   4.174   2.443   5.081  0.2425 -0.0442 -0.4419
   6623SM  H20F 8617   4.186   2.334   5.066 -1.3078 -0.5151  1.3591
   6623SM  H20G 8618   4.235   2.507   5.014 -0.8468 -0.4462 -1.8841
   6623SM  C21F 8619   4.024   2.471   5.053 -0.3055  0.3694  0.2559
   6623SM  H21F 8620   4.016   2.580   5.073  1.1950  0.5072  0.2324
   6623SM  H21G 8621   3.958   2.422   5.128  1.0645 -0.1810  1.1462
   6623SM  C22F 8622   3.977   2.444   4.904 -0.2359 -0.5719  0.2614
   6623SM  H22F 8623   4.032   2.353   4.870  0.0922 -0.3327  0.1503
   6623SM  H22G 8624   3.997   2.532   4.840  0.6291 -0.9417 -0.0020
   6623SM  C23F 8625   3.827   2.423   4.896  0.6134 -0.9051 -0.7883
   6623SM  H23F 8626   3.785   2.403   4.795 -0.5950 -0.9733 -0.2904
   6623SM  H23G 8627   3.772   2.511   4.934  1.0538 -1.8802  2.3268
   6623SM  H23H 8628   3.798   2.340   4.964 -1.1022 -0.2359 -0.6493
   6723SM     N 8629   2.956   6.709   6.963 -0.4950  0.1771 -0.4444
   6723SM   C15 8630   3.090   6.714   7.039  1.3249  0.4840 -1.1155
   6723SM  H15A 8631   3.170   6.746   6.973  0.8341  2.4666 -0.8311
   6723SM  H15B 8632   3.120   6.623   7.089  0.2673  0.4205 -0.5788
   6723SM  H15C 8633   3.077   6.789   7.115  1.1662  0.2634 -0.9271
   6723SM   C14 8634   2.940   6.836   6.893 -0.0236 -0.5723  0.5217
   6723SM  H14A 8635   2.959   6.916   6.963 -2.2486 -0.7300  1.3945
   6723SM  H14B 8636   2.849   6.860   6.840 -0.0121  0.4263  0.9192
   6723SM  H14C 8637   3.019   6.848   6.821 -1.7051 -0.9349 -1.4790
   6723SM   C13 8638   2.969   6.604   6.855 -0.2860  0.1093  0.1686
   6723SM  H13A 8639   3.001   6.510   6.897  0.9170  0.6277  0.4731
   6723SM  H13B 8640   3.051   6.631   6.790  0.6701  1.9512  2.0134
   6723SM  H13C 8641   2.876   6.590   6.802  0.7093 -1.1856 -1.3109
   6723SM   C12 8642   2.834   6.678   7.053  0.4001  0.3783 -0.6881
   6723SM  H12A 8643   2.849   6.578   7.090  1.3083  1.3977  1.8885
   6723SM  H12B 8644   2.743   6.665   6.997  0.9662 -1.5135 -1.2206
   6723SM   C11 8645   2.813   6.773   7.169 -0.2691 -0.2434  0.0886
   6723SM  H11A 8646   2.904   6.806   7.223 -1.3710  1.8130  0.8023
   6723SM  H11B 8647   2.758   6.711   7.243 -0.7887 -1.5346 -1.3384
   6723SM     P 8648   2.592   6.873   7.071  0.0538  0.2670  0.2545
   6723SM   O13 8649   2.542   6.733   7.068 -0.3628  0.0792 -0.5824
   6723SM   O14 8650   2.506   6.966   7.144 -0.2317 -0.1217  0.3200
   6723SM   O11 8651   2.598   6.921   6.922  0.3823  0.1668  0.2013
   6723SM   O12 8652   2.740   6.888   7.126 -0.4233  0.0786 -0.0271
   6723SM   C1S 8653   2.624   7.055   6.889 -0.1653  0.1555 -0.6252
   6723SM   H1S 8654   2.724   7.089   6.922  0.1870  0.8602 -2.3290
   6723SM   H1T 8655   2.546   7.123   6.929 -2.3052 -2.5593  0.0663
   6723SM    NF 8656   2.716   7.168   6.690  0.1101 -0.0426  0.2964
   6723SM   HNF 8657   2.667   7.255   6.682  0.6006  0.2194  0.1516
   6723SM   C2S 8658   2.617   7.065   6.738 -1.0042  0.4189  0.0507
   6723SM   H2S 8659   2.639   6.968   6.688  0.0886 -0.2470  1.7148
   6723SM   C3S 8660   2.466   7.095   6.698  0.3834  0.0261  0.0083
   6723SM   H3S 8661   2.433   7.182   6.759 -1.9312 -0.7775  0.0102
   6723SM    O3 8662   2.373   6.998   6.757  0.1303 -0.0448  0.6228
   6723SM   HO3 8663   2.434   6.941   6.804  0.1761 -0.1112  0.4837
   6723SM   C4S 8664   2.452   7.116   6.554  0.0523  0.1229  0.1689
   6723SM   H4S 8665   2.439   7.026   6.493 -0.2228  1.0106 -1.1165
   6723SM   C5S 8666   2.467   7.232   6.487 -0.1335  0.2146  0.3875
   6723SM   H5S 8667   2.506   7.319   6.542 -1.3610  2.1204 -1.5843
   6723SM   C6S 8668   2.458   7.248   6.334 -0.7249  0.1187  0.0774
   6723SM   H6S 8669   2.554   7.275   6.283 -2.2150  0.9362 -2.5184
   6723SM   H6T 8670   2.400   7.340   6.309 -0.5713 -0.2569 -1.7977
   6723SM   C7S 8671   2.395   7.145   6.244 -0.0212 -0.0489  0.7938
   6723SM   H7S 8672   2.296   7.106   6.275  0.9666 -4.0985 -0.5876
   6723SM   H7T 8673   2.465   7.059   6.241 -1.1759 -0.9687 -1.2693
   6723SM   C8S 8674   2.382   7.192   6.094  0.1110 -0.4725  0.0834
   6723SM   H8S 8675   2.480   7.226   6.055  0.7808 -0.2390  1.8534
   6723SM   H8T 8676   2.320   7.283   6.085  1.3686  0.4965  0.9693
   6723SM   C9S 8677   2.330   7.072   6.011 -0.1721  0.1923 -0.1281
   6723SM   H9S 8678   2.237   7.028   6.055  1.6946 -2.8732  1.1154
   6723SM   H9T 8679   2.389   6.978   6.012 -1.3467 -0.5783 -0.6324
   6723SM  C10S 8680   2.316   7.099   5.858 -0.5259  0.8609 -0.1895
   6723SM  H10S 8681   2.240   7.176   5.831 -1.0016  1.1381  1.7622
   6723SM  H10T 8682   2.272   7.004   5.822  0.0059  0.0356  1.2677
   6723SM  C11S 8683   2.452   7.125   5.793  0.2481  0.4880 -0.1927
   6723SM  H11S 8684   2.519   7.039   5.814  0.9185  1.4661  2.0550
   6723SM  H11T 8685   2.488   7.219   5.841  1.9917 -0.6756  0.8967
   6723SM  C12S 8686   2.443   7.134   5.640  0.0506 -0.1652 -0.1851
   6723SM  H12S 8687   2.374   7.219   5.618 -0.4741 -1.0210 -2.0131
   6723SM  H12T 8688   2.394   7.043   5.600 -3.8996  1.5434  0.2310
   6723SM  C13S 8689   2.575   7.173   5.563  0.7188  0.4785  0.1641
   6723SM  H13S 8690   2.636   7.081   5.558 -1.1782 -0.7882 -1.5055
   6723SM  H13T 8691   2.640   7.251   5.607  1.2805  0.4498 -0.5872
   6723SM  C14S 8692   2.545   7.202   5.420  0.7887 -0.6651 -0.4696
   6723SM  H14S 8693   2.493   7.300   5.408  1.5198 -0.2765 -0.5202
   6723SM  H14T 8694   2.473   7.129   5.378 -0.4762  0.0667  0.3722
   6723SM  C15S 8695   2.672   7.185   5.331  0.1427 -0.0204  0.2956
   6723SM  H15S 8696   2.642   7.208   5.226  0.4486 -0.4925  0.0982
   6723SM  H15T 8697   2.706   7.080   5.339 -0.7169 -0.1777  2.3287
   6723SM  C16S 8698   2.794   7.279   5.370  1.0108 -0.5424  0.2267
   6723SM  H16S 8699   2.801   7.282   5.481  0.7980 -1.8595  0.3009
   6723SM  H16T 8700   2.747   7.375   5.342 -2.4551 -2.1720 -0.0948
   6723SM  C17S 8701   2.927   7.237   5.302  0.5990  0.2195  0.6428
   6723SM  H17S 8702   2.984   7.330   5.282 -0.1034  0.1276 -2.3725
   6723SM  H17T 8703   2.897   7.178   5.212  0.5304 -1.4995  1.7472
   6723SM  C18S 8704   2.996   7.140   5.391  0.4593 -0.6312 -0.0737
   6723SM  H18S 8705   2.918   7.067   5.421  0.2273  0.2231  1.5237
   6723SM  H18T 8706   3.027   7.191   5.485  4.7549 -1.1806 -1.0242
   6723SM  H18U 8707   3.078   7.087   5.339 -2.2992 -2.9752 -2.4034
   6723SM   C1F 8708   2.843   7.133   6.673 -0.0747  0.0523 -0.4246
   6723SM    OF 8709   2.872   7.016   6.666 -0.1051  0.7552 -0.1391
   6723SM   C2F 8710   2.946   7.237   6.656 -0.4332 -0.3502  0.6660
   6723SM   H2F 8711   3.037   7.208   6.714  2.5701  2.2686 -2.3111
   6723SM   H2G 8712   2.902   7.334   6.687  0.7731  0.8269 -1.1224
   6723SM   C3F 8713   2.995   7.248   6.508  0.5317  0.0678 -0.3904
   6723SM   H3F 8714   3.032   7.149   6.475  0.6970 -0.0796  0.2361
   6723SM   H3G 8715   3.077   7.323   6.508 -0.3488  1.0575 -0.7013
   6723SM   C4F 8716   2.888   7.292   6.403 -0.1436 -0.2378  0.3095
   6723SM   H4F 8717   2.838   7.387   6.434 -0.6794 -0.4079 -0.0258
   6723SM   H4G 8718   2.809   7.218   6.379  0.2433 -0.3132 -0.7831
   6723SM   C5F 8719   2.950   7.328   6.267  0.0576 -0.1711 -0.1332
   6723SM   H5F 8720   2.991   7.235   6.223  0.6949  0.5025 -1.0083
   6723SM   H5G 8721   3.036   7.396   6.285 -0.0496  0.0435 -0.4219
   6723SM   C6F 8722   2.846   7.395   6.174  0.4203 -0.7310  0.5478
   6723SM   H6F 8723   2.832   7.497   6.215  0.1042  0.0165 -1.2980
   6723SM   H6G 8724   2.753   7.334   6.165  0.0965 -0.2931  0.9231
   6723SM   C7F 8725   2.890   7.415   6.028  0.5313 -0.5964 -0.4164
   6723SM   H7F 8726   2.797   7.411   5.967  0.0447  1.8675  0.0512
   6723SM   H7G 8727   2.950   7.327   5.995  0.7704 -0.0769 -1.4120
   6723SM   C8F 8728   2.961   7.540   5.995 -0.2794 -0.0876  0.1749
   6723SM   H8F 8729   3.049   7.554   6.060 -0.5596  1.5618  0.2464
   6723SM   H8G 8730   2.896   7.626   6.021 -0.7652 -0.2226 -0.5514
   6723SM   C9F 8731   3.008   7.556   5.845 -0.5662 -0.3269  0.5385
   6723SM   H9F 8732   2.918   7.545   5.781 -0.7042 -4.8601  1.1726
   6723SM   H9G 8733   3.083   7.476   5.830 -0.1250  0.2614 -0.4736
   6723SM  C10F 8734   3.056   7.706   5.815 -0.1525 -0.2293  0.1261
   6723SM  H10F 8735   3.132   7.736   5.890 -0.6856  1.3910  0.0652
   6723SM  H10G 8736   2.975   7.780   5.832  1.4957  1.6672  0.1531
   6723SM  C11F 8737   3.116   7.721   5.676  0.0031  0.2561 -0.1951
   6723SM  H11F 8738   3.137   7.830   5.665  4.2203 -0.2872  0.9891
   6723SM  H11G 8739   3.045   7.693   5.595 -0.5526  1.6208 -0.2197
   6723SM  C12F 8740   3.241   7.641   5.657 -0.0322 -0.6538 -0.1110
   6723SM  H12F 8741   3.227   7.531   5.647  1.5612 -0.7614 -1.6290
   6723SM  H12G 8742   3.293   7.648   5.755  1.4564 -0.7639 -0.8613
   6723SM  C13F 8743   3.321   7.686   5.532 -0.1350  0.0519  0.0171
   6723SM  H13F 8744   3.317   7.796   5.516 -1.5054  0.3764  2.1781
   6723SM  H13G 8745   3.263   7.650   5.445 -0.4341  1.2425 -0.2983
   6723SM  C14F 8746   3.464   7.629   5.518  0.0131  0.2896 -0.2789
   6723SM  H14F 8747   3.510   7.663   5.612 -3.4185 -0.4571  1.8579
   6723SM  H14G 8748   3.512   7.679   5.431  0.6005  0.8509  0.3577
   6723SM  C15F 8749   3.465   7.476   5.506 -0.2859 -0.3316 -0.5640
   6723SM  H15F 8750   3.383   7.434   5.443 -0.2194 -0.3673 -0.6259
   6723SM  H15G 8751   3.453   7.429   5.606  0.3072  1.3392  0.3340
   6723SM  C16F 8752   3.596   7.425   5.437  0.1328  0.1779 -0.0224
   6723SM  H16F 8753   3.680   7.431   5.509  0.3959  0.1390 -0.3280
   6723SM  H16G 8754   3.630   7.478   5.346 -0.5351  1.5066  0.4739
   6723SM  C17F 8755   3.594   7.275   5.418 -0.3081 -0.9229  0.4132
   6723SM  H17F 8756   3.500   7.271   5.359  0.1620  0.5766 -0.4793
   6723SM  H17G 8757   3.578   7.218   5.513 -0.1515 -0.2772  0.8353
   6723SM  C18F 8758   3.703   7.219   5.330  0.2312  0.3579  1.2451
   6723SM  H18F 8759   3.806   7.227   5.371  0.2347 -1.4486  1.6410
   6723SM  H18G 8760   3.707   7.286   5.241 -1.8287 -0.2668  0.6196
   6723SM  C19F 8761   3.695   7.071   5.295  0.4127 -1.3580  0.0860
   6723SM  H19F 8762   3.598   7.038   5.253  0.2149  2.3342 -2.8672
   6723SM  H19G 8763   3.710   7.008   5.385 -2.0424 -2.2387 -0.0469
   6723SM  C20F 8764   3.804   7.037   5.193 -0.4369 -0.1425 -0.4526
   6723SM  H20F 8765   3.901   7.063   5.240  1.0805 -2.0866 -2.3497
   6723SM  H20G 8766   3.783   7.098   5.103 -1.4682 -0.7029 -0.6026
   6723SM  C21F 8767   3.820   6.888   5.167  0.3340  0.9350  0.1249
   6723SM  H21F 8768   3.721   6.840   5.182  1.0645 -1.0515 -1.0798
   6723SM  H21G 8769   3.884   6.842   5.246  0.3006  0.9133  0.1394
   6723SM  C22F 8770   3.878   6.850   5.026  0.3384 -0.6031 -0.3253
   6723SM  H22F 8771   3.966   6.917   5.016 -0.4905  0.2629 -2.3742
   6723SM  H22G 8772   3.803   6.885   4.951 -1.2523 -0.8834  1.0759
   6723SM  C23F 8773   3.907   6.710   5.004  0.4835  0.1131 -0.0045
   6723SM  H23F 8774   3.948   6.690   4.903 -1.0277  0.2724 -0.6696
   6723SM  H23G 8775   3.825   6.634   5.003 -0.0398  0.5959 -3.1401
   6723SM  H23H 8776   3.987   6.682   5.076  1.2231  1.4581 -0.2879
   6823SM     N 8777   2.737   3.091   6.955 -0.5466  0.1731 -0.2784
   6823SM   C15 8778   2.620   2.995   6.955  0.0190 -0.2109  0.2116
   6823SM  H15A 8779   2.539   3.023   6.890  0.1448 -1.6842 -0.6277
   6823SM  H15B 8780   2.577   2.989   7.054  2.5381  1.0649  1.4859
   6823SM  H15C 8781   2.646   2.892   6.934  1.4237 -0.8029  3.9149
   6823SM   C14 8782   2.701   3.227   6.960  0.4436 -0.0284 -0.4025
   6823SM  H14A 8783   2.773   3.303   6.987 -1.7273  1.7625  0.7755
   6823SM  H14B 8784   2.626   3.248   7.035  0.9288  1.8409 -0.3830
   6823SM  H14C 8785   2.648   3.270   6.875 -2.2153  1.4590  1.8490
   6823SM   C13 8786   2.815   3.060   7.081  0.3963 -0.1410  0.0549
   6823SM  H13A 8787   2.753   3.082   7.166 -1.5552 -1.0142 -1.0695
   6823SM  H13B 8788   2.900   3.126   7.089  2.7340 -3.1248  1.9272
   6823SM  H13C 8789   2.840   2.955   7.074  1.1450  0.1100 -1.6098
   6823SM   C12 8790   2.826   3.071   6.832  0.4684 -0.0136 -0.2223
   6823SM  H12A 8791   2.761   3.077   6.746 -0.5230  1.7640  0.5929
   6823SM  H12B 8792   2.872   2.973   6.841  1.4412  0.2592 -1.8338
   6823SM   C11 8793   2.941   3.166   6.803 -0.3467  0.0500 -0.8400
   6823SM  H11A 8794   2.903   3.268   6.781 -0.5407  0.0919 -0.3232
   6823SM  H11B 8795   2.983   3.135   6.705  0.8223  2.5190 -1.2002
   6823SM     P 8796   3.140   3.062   6.932  0.2791  0.1272 -0.2809
   6823SM   O13 8797   3.241   3.096   7.034 -0.4151  0.0486 -0.1979
   6823SM   O14 8798   3.078   2.926   6.931  0.1893  0.8537 -0.1659
   6823SM   O11 8799   3.209   3.069   6.792  0.2720  0.2841  0.1491
   6823SM   O12 8800   3.032   3.173   6.920  0.1539 -0.1917  0.5455
   6823SM   C1S 8801   3.315   3.163   6.780 -0.1734 -0.5990 -0.6232
   6823SM   H1S 8802   3.397   3.141   6.850 -0.6355  2.5399  1.0699
   6823SM   H1T 8803   3.280   3.263   6.813  1.8562 -0.0520  0.0103
   6823SM    NF 8804   3.503   3.253   6.646  0.6127 -0.5603 -0.5332
   6823SM   HNF 8805   3.499   3.335   6.588 -0.7746 -1.9612 -2.5716
   6823SM   C2S 8806   3.380   3.167   6.642  0.1830 -0.7273  0.4480
   6823SM   H2S 8807   3.409   3.064   6.612  0.2914  0.1411 -2.8064
   6823SM   C3S 8808   3.267   3.205   6.541  0.2376  0.7257 -0.3384
   6823SM   H3S 8809   3.215   3.300   6.564 -1.7038 -0.3737 -0.0275
   6823SM    O3 8810   3.163   3.104   6.539  0.4171 -0.8603  0.3267
   6823SM   HO3 8811   3.147   3.084   6.632  2.3488  1.7928  1.3276
   6823SM   C4S 8812   3.328   3.204   6.399  0.0643 -0.4279 -0.0861
   6823SM   H4S 8813   3.356   3.105   6.361  0.8534 -0.3235  0.1981
   6823SM   C5S 8814   3.334   3.311   6.313 -0.3398  0.3614 -0.2837
   6823SM   H5S 8815   3.298   3.412   6.336  0.7432  1.6000 -3.4215
   6823SM   C6S 8816   3.394   3.297   6.173 -0.1728  0.0731  0.0271
   6823SM   H6S 8817   3.439   3.396   6.151  1.0997  0.1441  2.6217
   6823SM   H6T 8818   3.314   3.298   6.095  0.6441 -1.7046 -0.8830
   6823SM   C7S 8819   3.497   3.189   6.166 -0.0976 -0.1941 -0.0562
   6823SM   H7S 8820   3.432   3.100   6.154 -2.0445  0.8193  2.1925
   6823SM   H7T 8821   3.562   3.173   6.255 -1.0279 -2.3855  0.2915
   6823SM   C8S 8822   3.583   3.196   6.041  0.2325  0.0148 -0.3866
   6823SM   H8S 8823   3.650   3.284   6.043  1.6797 -1.0660  0.4179
   6823SM   H8T 8824   3.524   3.208   5.948  0.2904 -0.5171 -0.4911
   6823SM   C9S 8825   3.677   3.077   6.026 -0.0648  0.0292 -0.3187
   6823SM   H9S 8826   3.612   2.988   6.008 -0.9508  0.9258 -1.6875
   6823SM   H9T 8827   3.736   3.072   6.120  2.6668 -0.1472 -1.9453
   6823SM  C10S 8828   3.783   3.078   5.919 -0.0608  0.4679  0.3682
   6823SM  H10S 8829   3.832   2.979   5.905  3.6689  2.5798 -4.7399
   6823SM  H10T 8830   3.869   3.142   5.945 -0.4351  2.2904 -2.4649
   6823SM  C11S 8831   3.737   3.101   5.770  0.3489  0.0946 -0.1678
   6823SM  H11S 8832   3.660   3.178   5.790 -0.7622 -0.9331 -0.4236
   6823SM  H11T 8833   3.680   3.011   5.739 -1.2691  0.4246  1.6530
   6823SM  C12S 8834   3.844   3.122   5.663 -0.6477  0.2264 -0.0901
   6823SM  H12S 8835   3.801   3.111   5.561 -0.7655  0.0482 -0.0215
   6823SM  H12T 8836   3.925   3.047   5.668  0.0813  0.9689 -0.4869
   6823SM  C13S 8837   3.906   3.259   5.659  0.3709 -0.1640  0.4488
   6823SM  H13S 8838   3.962   3.260   5.754 -1.5506 -0.8791  1.6408
   6823SM  H13T 8839   3.816   3.322   5.676 -0.6171 -1.4730  0.2656
   6823SM  C14S 8840   3.980   3.294   5.531  0.3149 -0.0055  0.2086
   6823SM  H14S 8841   3.917   3.291   5.439  0.9787 -0.1842 -0.2558
   6823SM  H14T 8842   4.067   3.225   5.532  1.1511  0.9770  2.6406
   6823SM  C15S 8843   4.039   3.437   5.553 -0.1920  0.2349  0.0525
   6823SM  H15S 8844   4.118   3.447   5.476 -0.7215 -0.7380 -0.6338
   6823SM  H15T 8845   4.080   3.445   5.656  2.2101  1.4359 -0.9097
   6823SM  C16S 8846   3.939   3.551   5.520 -0.0044  0.0677 -0.2585
   6823SM  H16S 8847   3.851   3.532   5.585  1.9505 -3.5070  1.6467
   6823SM  H16T 8848   3.903   3.537   5.416 -1.4353 -0.3578  0.2665
   6823SM  C17S 8849   4.002   3.690   5.533  0.3962  0.0949 -0.2371
   6823SM  H17S 8850   4.098   3.697   5.479 -0.5669  0.8786 -1.9099
   6823SM  H17T 8851   4.027   3.715   5.639 -1.1034  0.4612  0.0636
   6823SM  C18S 8852   3.913   3.804   5.502 -0.3008 -0.2119  0.0804
   6823SM  H18S 8853   3.859   3.794   5.406  1.1484 -1.1426 -0.6600
   6823SM  H18T 8854   3.965   3.900   5.483 -0.8260  0.7159  2.8227
   6823SM  H18U 8855   3.841   3.827   5.584  0.0676  4.0817 -0.5531
   6823SM   C1F 8856   3.605   3.215   6.717 -0.0235 -0.2124 -0.1198
   6823SM    OF 8857   3.621   3.105   6.772  0.3228 -0.0639 -0.1125
   6823SM   C2F 8858   3.715   3.316   6.740 -0.4706 -0.0708  0.2300
   6823SM   H2F 8859   3.716   3.340   6.848 -0.1576 -2.8759  0.9140
   6823SM   H2G 8860   3.705   3.407   6.677  1.4880  1.3183  1.8152
   6823SM   C3F 8861   3.848   3.253   6.691  0.1156  0.2895  0.1133
   6823SM   H3F 8862   3.856   3.159   6.750 -1.1281 -0.6198 -1.1217
   6823SM   H3G 8863   3.940   3.310   6.717 -0.0125 -0.8705  3.6608
   6823SM   C4F 8864   3.852   3.212   6.541  0.3629  0.6293  0.6018
   6823SM   H4F 8865   3.865   3.304   6.482  0.5278  2.0843  2.7850
   6823SM   H4G 8866   3.757   3.160   6.515  0.1733 -0.2307  2.7228
   6823SM   C5F 8867   3.965   3.114   6.496 -0.3432  0.0797  0.6588
   6823SM   H5F 8868   3.936   3.018   6.543 -0.6285 -1.1300 -1.8465
   6823SM   H5G 8869   4.062   3.150   6.536  0.1945 -0.5519 -0.0412
   6823SM   C6F 8870   3.974   3.087   6.340  0.0699 -0.4362 -1.0122
   6823SM   H6F 8871   3.974   3.180   6.279  0.2632 -0.5758 -1.2247
   6823SM   H6G 8872   3.875   3.042   6.317 -1.0223  0.9802  0.6840
   6823SM   C7F 8873   4.092   3.008   6.298 -0.3790  0.1426 -0.0884
   6823SM   H7F 8874   4.096   2.907   6.343 -0.9751 -0.1873 -0.7491
   6823SM   H7G 8875   4.184   3.052   6.341  0.7996 -1.2765 -1.0440
   6823SM   C8F 8876   4.098   2.983   6.141 -0.2491  0.2193 -0.9085
   6823SM   H8F 8877   3.998   2.950   6.107 -0.2372 -1.0094  0.1560
   6823SM   H8G 8878   4.178   2.908   6.120  0.4334  0.8508 -0.6067
   6823SM   C9F 8879   4.148   3.114   6.071  0.7078 -0.1154 -1.0554
   6823SM   H9F 8880   4.232   3.148   6.136  0.8933 -1.4906 -0.5276
   6823SM   H9G 8881   4.071   3.194   6.065 -0.1189 -0.8512 -0.6303
   6823SM  C10F 8882   4.204   3.091   5.932 -0.3797  0.2283  0.4054
   6823SM  H10F 8883   4.122   3.052   5.869 -0.6483  2.0080 -0.4218
   6823SM  H10G 8884   4.285   3.015   5.939 -0.5394 -0.1470 -1.2355
   6823SM  C11F 8885   4.249   3.236   5.880 -0.0206  0.5016 -0.5092
   6823SM  H11F 8886   4.345   3.252   5.934  0.2539 -1.9401 -0.1614
   6823SM  H11G 8887   4.182   3.322   5.902 -0.3908  0.6024 -1.9639
   6823SM  C12F 8888   4.279   3.239   5.733  0.3606 -0.8707 -0.3198
   6823SM  H12F 8889   4.341   3.326   5.703  0.2154 -1.1826 -1.5523
   6823SM  H12G 8890   4.180   3.245   5.681  1.3599  1.3160 -2.1389
   6823SM  C13F 8891   4.363   3.123   5.688  0.1588 -0.3002  0.3645
   6823SM  H13F 8892   4.319   3.024   5.713  0.8609 -1.4862 -2.6423
   6823SM  H13G 8893   4.465   3.127   5.733  0.0229  0.0458  0.6482
   6823SM  C14F 8894   4.387   3.123   5.539 -0.0433  0.3867 -0.4510
   6823SM  H14F 8895   4.451   3.204   5.498  1.6186 -0.9591 -0.6371
   6823SM  H14G 8896   4.294   3.146   5.484 -0.7609  1.0908  1.0149
   6823SM  C15F 8897   4.447   2.988   5.487  0.3420  0.3564  0.0515
   6823SM  H15F 8898   4.403   2.903   5.545  0.1083  0.0181 -0.6124
   6823SM  H15G 8899   4.557   2.993   5.501  0.4673 -0.8628 -0.3977
   6823SM  C16F 8900   4.429   2.961   5.339  0.7032 -0.3753  0.2070
   6823SM  H16F 8901   4.490   2.871   5.316  1.7867  0.8859 -2.3200
   6823SM  H16G 8902   4.467   3.053   5.291  0.3307  0.1422  0.8974
   6823SM  C17F 8903   4.285   2.933   5.298  0.4318  0.0478  0.7465
   6823SM  H17F 8904   4.222   3.016   5.336  0.9835  0.2674  1.2049
   6823SM  H17G 8905   4.263   2.837   5.348  0.3621 -0.5023 -0.3074
   6823SM  C18F 8906   4.259   2.914   5.150 -0.1829  0.2692 -0.0005
   6823SM  H18F 8907   4.151   2.894   5.136  0.1603 -2.0054  0.3476
   6823SM  H18G 8908   4.308   2.820   5.119 -0.4494  0.6841 -1.7955
   6823SM  C19F 8909   4.309   3.041   5.075 -0.4174  0.2803 -0.7609
   6823SM  H19F 8910   4.418   3.022   5.066 -0.1699 -0.1894  2.1406
   6823SM  H19G 8911   4.301   3.125   5.148 -0.6816  0.8294 -1.4075
   6823SM  C20F 8912   4.246   3.053   4.937 -0.5975 -0.5192  0.1946
   6823SM  H20F 8913   4.152   2.994   4.939 -0.3760 -0.9198 -0.7329
   6823SM  H20G 8914   4.312   3.000   4.865 -0.3542  0.0670 -0.0271
   6823SM  C21F 8915   4.220   3.200   4.894 -0.0780 -0.1968 -0.0824
   6823SM  H21F 8916   4.306   3.247   4.946 -0.1434 -0.6598  0.4465
   6823SM  H21G 8917   4.131   3.245   4.944  0.2802  0.9773 -0.4531
   6823SM  C22F 8918   4.259   3.224   4.738 -0.0372  0.7280 -0.3494
   6823SM  H22F 8919   4.194   3.159   4.675  1.6110 -1.2279 -0.1128
   6823SM  H22G 8920   4.360   3.179   4.730  0.6590  2.2427 -0.3953
   6823SM  C23F 8921   4.253   3.369   4.688 -0.1380  0.2509  0.3635
   6823SM  H23F 8922   4.147   3.402   4.686 -0.3696 -0.4468  0.6799
   6823SM  H23G 8923   4.295   3.385   4.587  1.3193  1.8696  1.1652
   6823SM  H23H 8924   4.306   3.435   4.760  3.0275 -2.6284  0.9662
   6923SM     N 8925   3.993   3.514   7.538 -0.0395 -0.0310  0.0744
   6923SM   C15 8926   3.960   3.613   7.433 -0.0855 -0.1272  0.5130
   6923SM  H15A 8927   4.028   3.601   7.350 -1.0911  1.5550 -0.6126
   6923SM  H15B 8928   3.964   3.716   7.464  0.7301 -0.2921  0.9757
   6923SM  H15C 8929   3.862   3.594   7.392 -0.3500 -0.0630  1.1073
   6923SM   C14 8930   3.898   3.528   7.660 -0.7029 -0.1400  0.1491
   6923SM  H14A 8931   3.911   3.628   7.698 -1.6765  1.3535 -3.0686
   6923SM  H14B 8932   3.927   3.453   7.732  1.3686  0.8929  0.4624
   6923SM  H14C 8933   3.793   3.514   7.639 -0.3484 -0.9479 -1.2578
   6923SM   C13 8934   3.991   3.375   7.484  0.7189  0.3960  0.0067
   6923SM  H13A 8935   3.897   3.322   7.483  2.8261 -3.9185  2.2422
   6923SM  H13B 8936   4.053   3.306   7.540  0.5003 -0.7757 -1.1353
   6923SM  H13C 8937   4.025   3.368   7.382 -1.0535 -1.1612 -0.5423
   6923SM   C12 8938   4.132   3.532   7.585 -0.5161  0.3034  0.1979
   6923SM  H12A 8939   4.146   3.634   7.617  2.0367  0.6544 -1.7136
   6923SM  H12B 8940   4.199   3.512   7.502  0.1108  0.0562  0.7577
   6923SM   C11 8941   4.178   3.438   7.706  0.1062 -0.3971 -0.1533
   6923SM  H11A 8942   4.096   3.436   7.781  0.0236  0.5939 -0.2024
   6923SM  H11B 8943   4.263   3.480   7.764 -1.6422  2.4767  0.5305
   6923SM     P 8944   4.332   3.266   7.579  0.0754 -0.2010 -0.4548
   6923SM   O13 8945   4.452   3.257   7.669  0.3416  0.0967  0.1192
   6923SM   O14 8946   4.297   3.132   7.519 -0.1655  0.1532  0.1652
   6923SM   O11 8947   4.352   3.383   7.471  0.3157 -0.0649 -0.2362
   6923SM   O12 8948   4.208   3.308   7.666  0.2605  0.5746 -0.4020
   6923SM   C1S 8949   4.452   3.378   7.377  0.1485 -0.6506  0.0528
   6923SM   H1S 8950   4.472   3.275   7.340  2.5391  0.2255 -1.3173
   6923SM   H1T 8951   4.542   3.420   7.426  1.3132 -2.1532 -0.7148
   6923SM    NF 8952   4.499   3.447   7.134 -0.4946  0.2276  0.6921
   6923SM   HNF 8953   4.585   3.497   7.135  1.5556 -2.9967 -0.1200
   6923SM   C2S 8954   4.423   3.474   7.252  0.3460  0.1921  0.3384
   6923SM   H2S 8955   4.316   3.456   7.224  0.5094 -1.6329  0.7495
   6923SM   C3S 8956   4.440   3.620   7.299  0.1811 -0.2107 -0.3135
   6923SM   H3S 8957   4.545   3.614   7.334  0.3469  1.2264 -0.4982
   6923SM    O3 8958   4.363   3.656   7.411  0.3614  0.2029 -0.3347
   6923SM   HO3 8959   4.356   3.571   7.455 -1.0227 -0.0205 -0.9349
   6923SM   C4S 8960   4.422   3.720   7.190 -0.4992  0.2023 -0.5581
   6923SM   H4S 8961   4.516   3.754   7.144 -1.2481  1.9550 -0.8898
   6923SM   C5S 8962   4.306   3.774   7.133 -0.6666  0.1508 -0.2052
   6923SM   H5S 8963   4.211   3.731   7.170  0.2673 -1.7767  0.0757
   6923SM   C6S 8964   4.300   3.885   7.025  0.8566  0.0539  0.9652
   6923SM   H6S 8965   4.403   3.916   7.000 -0.0279  0.2629 -3.0445
   6923SM   H6T 8966   4.248   3.976   7.061  0.6006 -0.1336  1.0695
   6923SM   C7S 8967   4.246   3.835   6.897  0.1216 -0.3653  0.8077
   6923SM   H7S 8968   4.138   3.811   6.903  0.1808 -0.9137 -0.1631
   6923SM   H7T 8969   4.302   3.744   6.864  0.4689 -0.7769  2.4460
   6923SM   C8S 8970   4.260   3.944   6.785  0.6139 -0.6635 -0.2040
   6923SM   H8S 8971   4.365   3.976   6.773  0.6017  0.6122  2.4071
   6923SM   H8T 8972   4.201   4.025   6.833  1.3928 -0.8207  1.0740
   6923SM   C9S 8973   4.187   3.914   6.649  0.7718  0.5153  0.5487
   6923SM   H9S 8974   4.083   3.877   6.661  1.1983 -1.9708 -2.2144
   6923SM   H9T 8975   4.230   3.824   6.598  0.6370  1.8435 -2.1013
   6923SM  C10S 8976   4.185   4.036   6.557 -0.9415 -0.3476 -0.5506
   6923SM  H10S 8977   4.278   4.095   6.574 -0.4122 -1.5553  0.9870
   6923SM  H10T 8978   4.098   4.099   6.586  0.4432  1.2914  0.2210
   6923SM  C11S 8979   4.183   4.014   6.403 -0.2448  0.2163  0.4845
   6923SM  H11S 8980   4.277   3.961   6.376  1.1353  2.1473  1.2418
   6923SM  H11T 8981   4.189   4.108   6.344 -0.6119  0.0101  0.1168
   6923SM  C12S 8982   4.044   3.950   6.360 -0.6552 -0.7913  0.4101
   6923SM  H12S 8983   3.969   4.032   6.355  0.1014 -0.0686  0.6428
   6923SM  H12T 8984   4.006   3.871   6.428 -0.4119 -1.1187  0.1678
   6923SM  C13S 8985   4.048   3.901   6.210  0.0721  0.1963  0.8439
   6923SM  H13S 8986   4.143   3.849   6.182 -0.8568 -0.8156 -0.5648
   6923SM  H13T 8987   4.059   3.994   6.151 -0.3689  0.2353  0.8211
   6923SM  C14S 8988   3.940   3.802   6.165  0.3330 -0.0463  0.1896
   6923SM  H14S 8989   3.845   3.861   6.167  0.4783  0.3639 -2.2618
   6923SM  H14T 8990   3.941   3.715   6.234  1.9606 -1.2039 -1.2193
   6923SM  C15S 8991   3.968   3.750   6.020  0.1909  0.5987 -0.5691
   6923SM  H15S 8992   4.068   3.703   6.029  0.6320  1.9414  3.0076
   6923SM  H15T 8993   3.977   3.839   5.954  3.2006 -0.6229 -1.9746
   6923SM  C16S 8994   3.855   3.658   5.965 -0.2604 -0.5485  0.1940
   6923SM  H16S 8995   3.897   3.610   5.874  0.6544  2.0791 -0.8705
   6923SM  H16T 8996   3.777   3.729   5.930 -0.1077 -2.1554 -4.0590
   6923SM  C17S 8997   3.789   3.561   6.055 -0.1805 -0.1023 -0.1452
   6923SM  H17S 8998   3.697   3.508   6.023  1.5047 -2.7481 -0.9835
   6923SM  H17T 8999   3.746   3.623   6.137  0.7572  2.3958 -1.4524
   6923SM  C18S 9000   3.889   3.453   6.106 -0.4905 -0.3243 -0.0353
   6923SM  H18S 9001   3.974   3.497   6.163  0.5434 -1.3683 -0.7272
   6923SM  H18T 9002   3.918   3.392   6.018 -0.9967  0.1231 -0.5205
   6923SM  H18U 9003   3.845   3.373   6.168  1.0046 -1.9918 -1.0466
   6923SM   C1F 9004   4.502   3.331   7.066  1.0275  0.0654 -0.6787
   6923SM    OF 9005   4.424   3.240   7.088  0.1121 -0.5591 -0.2558
   6923SM   C2F 9006   4.608   3.318   6.970  0.2034 -1.0374  0.0136
   6923SM   H2F 9007   4.698   3.273   7.017  2.0273  1.9898 -0.3272
   6923SM   H2G 9008   4.635   3.415   6.923 -2.9205 -0.6450 -1.2110
   6923SM   C3F 9009   4.565   3.226   6.851 -0.5780  0.4409  0.1817
   6923SM   H3F 9010   4.469   3.254   6.803 -0.7670 -2.5573 -1.3834
   6923SM   H3G 9011   4.530   3.127   6.886  0.1208  0.3307  0.5913
   6923SM   C4F 9012   4.671   3.203   6.739 -0.9650 -0.4057  0.0164
   6923SM   H4F 9013   4.713   3.101   6.743 -1.8642 -0.9991 -3.0340
   6923SM   H4G 9014   4.753   3.277   6.751 -0.5283 -0.1885 -3.3023
   6923SM   C5F 9015   4.618   3.223   6.602  0.0533 -0.6259  0.5881
   6923SM   H5F 9016   4.564   3.320   6.600  0.2793 -0.5022 -0.9295
   6923SM   H5G 9017   4.546   3.141   6.582 -0.9945  0.3516  0.2587
   6923SM   C6F 9018   4.720   3.237   6.490 -0.7898  0.5116  0.0508
   6923SM   H6F 9019   4.784   3.146   6.493 -2.2056 -0.4984  1.5609
   6923SM   H6G 9020   4.781   3.327   6.509  0.8315 -0.3628 -0.8334
   6923SM   C7F 9021   4.670   3.252   6.349  0.3424  0.7397 -0.3072
   6923SM   H7F 9022   4.752   3.267   6.277  0.0889  3.4792 -0.1216
   6923SM   H7G 9023   4.593   3.328   6.325  1.3510  2.4591  1.5540
   6923SM   C8F 9024   4.615   3.119   6.296 -0.4913 -0.0117 -0.0864
   6923SM   H8F 9025   4.536   3.085   6.365 -0.5727 -1.4139 -0.8514
   6923SM   H8G 9026   4.699   3.047   6.309  0.2911  0.5552 -1.7790
   6923SM   C9F 9027   4.557   3.116   6.151  0.2017 -0.1105  0.2356
   6923SM   H9F 9028   4.503   3.211   6.133 -0.6966 -0.2378  2.0224
   6923SM   H9G 9029   4.492   3.026   6.155  0.0343  0.0587  3.1479
   6923SM  C10F 9030   4.662   3.100   6.038  0.9348 -0.4332 -0.0817
   6923SM  H10F 9031   4.620   3.065   5.941  1.5198  0.0482 -0.5130
   6923SM  H10G 9032   4.733   3.024   6.076 -1.3331 -1.5606  2.2529
   6923SM  C11F 9033   4.717   3.236   6.003  0.0108  0.1018 -0.4824
   6923SM  H11F 9034   4.677   3.303   6.082  1.6596  1.9323 -1.1132
   6923SM  H11G 9035   4.667   3.266   5.909  0.1928 -1.7958 -1.2277
   6923SM  C12F 9036   4.873   3.253   5.995 -0.2390  0.2192  0.3712
   6923SM  H12F 9037   4.907   3.168   5.932 -0.3366  1.5839 -1.5911
   6923SM  H12G 9038   4.914   3.240   6.098 -0.0599  0.7399  0.3661
   6923SM  C13F 9039   4.917   3.395   5.939 -0.5484  0.0242 -0.0631
   6923SM  H13F 9040   4.892   3.468   6.019 -2.1442  0.1980 -0.7066
   6923SM  H13G 9041   4.846   3.418   5.858  0.4399 -0.1686 -1.0027
   6923SM  C14F 9042   5.062   3.414   5.900  0.5661  0.2454  0.7365
   6923SM  H14F 9043   5.118   3.393   5.994  1.4887  2.6009  0.7624
   6923SM  H14G 9044   5.082   3.518   5.869  0.4002  1.1835  3.4710
   6923SM  C15F 9045   5.092   3.320   5.780  0.5100  0.2925 -0.1584
   6923SM  H15F 9046   5.009   3.305   5.708  1.0493  0.5919 -0.8549
   6923SM  H15G 9047   5.102   3.218   5.822  1.0896  0.7812  0.9190
   6923SM  C16F 9048   5.227   3.358   5.705 -0.6553  0.0628  0.0101
   6923SM  H16F 9049   5.203   3.454   5.654 -1.7448 -1.1059 -1.8087
   6923SM  H16G 9050   5.254   3.280   5.630 -1.4534  0.4130 -0.6615
   6923SM  C17F 9051   5.342   3.370   5.805  0.2069 -0.1961 -0.1865
   6923SM  H17F 9052   5.345   3.273   5.859  1.1399  0.3148  0.7001
   6923SM  H17G 9053   5.321   3.445   5.885  1.1671  0.5303 -0.5981
   6923SM  C18F 9054   5.475   3.401   5.740  0.4158  0.0592  0.2696
   6923SM  H18F 9055   5.471   3.502   5.693  0.2559 -0.0457  0.0522
   6923SM  H18G 9056   5.504   3.334   5.656  0.7928 -1.8949  1.8989
   6923SM  C19F 9057   5.587   3.407   5.843 -0.2267 -0.5920  0.0592
   6923SM  H19F 9058   5.617   3.309   5.886  1.2538 -0.0649  0.2794
   6923SM  H19G 9059   5.566   3.471   5.931 -1.6589 -0.5528 -0.2824
   6923SM  C20F 9060   5.717   3.465   5.779  0.2768 -0.5052 -0.3588
   6923SM  H20F 9061   5.695   3.561   5.727  3.3087  1.5112  1.7976
   6923SM  H20G 9062   5.760   3.395   5.704  2.3555  1.9763 -1.6331
   6923SM  C21F 9063   5.826   3.486   5.878  0.1051 -0.1450  0.0962
   6923SM  H21F 9064   5.829   3.400   5.948 -0.2515  0.4432  0.8443
   6923SM  H21G 9065   5.818   3.578   5.940  3.0238  0.4321 -0.2233
   6923SM  C22F 9066   5.967   3.491   5.812  0.8127 -0.0054  0.2508
   6923SM  H22F 9067   5.989   3.388   5.776 -1.6347  0.0181 -1.5695
   6923SM  H22G 9068   6.042   3.514   5.892 -0.4335 -1.1652  1.8206
   6923SM  C23F 9069   5.980   3.593   5.696 -0.2796  0.1368 -0.0267
   6923SM  H23F 9070   6.087   3.599   5.669 -0.2773 -1.1248 -0.3382
   6923SM  H23G 9071   5.946   3.694   5.729 -1.2321  1.5316 -4.5649
   6923SM  H23H 9072   5.915   3.557   5.614 -1.9461 -1.0306  1.7169
   7023SM     N 9073   4.493   2.694   7.385 -0.2948  0.3147 -0.8784
   7023SM   C15 9074   4.424   2.762   7.513  0.3131 -0.3033 -0.5573
   7023SM  H15A 9075   4.423   2.695   7.598 -2.9850  1.1022  0.7022
   7023SM  H15B 9076   4.320   2.773   7.483 -0.1997 -0.8168  0.9143
   7023SM  H15C 9077   4.472   2.854   7.541 -0.8597 -0.1025  0.9624
   7023SM   C14 9078   4.459   2.765   7.261  0.4934  0.0689 -0.0989
   7023SM  H14A 9079   4.506   2.723   7.173 -1.0240  0.2986 -1.0709
   7023SM  H14B 9080   4.480   2.870   7.273  1.7206  0.0500 -1.8283
   7023SM  H14C 9081   4.356   2.755   7.228  0.8144 -0.3005 -1.0270
   7023SM   C13 9082   4.644   2.699   7.415  1.1493 -0.3634  0.2874
   7023SM  H13A 9083   4.661   2.657   7.514  0.8103  5.5959  3.3135
   7023SM  H13B 9084   4.689   2.797   7.418  1.2844 -0.3783  3.8493
   7023SM  H13C 9085   4.696   2.642   7.339 -1.3151 -1.2107 -0.8424
   7023SM   C12 9086   4.440   2.552   7.387 -0.2088 -0.4862 -0.6186
   7023SM  H12A 9087   4.479   2.502   7.475 -0.6663 -0.9608 -0.6849
   7023SM  H12B 9088   4.484   2.494   7.308 -1.7230 -0.0591 -1.8071
   7023SM   C11 9089   4.288   2.526   7.366 -0.0317  0.1283 -0.7324
   7023SM  H11A 9090   4.250   2.597   7.289 -0.3786 -0.0744 -0.7472
   7023SM  H11B 9091   4.249   2.545   7.468  2.7631 -1.3538  0.7417
   7023SM     P 9092   4.239   2.277   7.395  0.1164 -0.2971  0.4319
   7023SM   O13 9093   4.341   2.165   7.375 -0.5656 -0.3643  0.3196
   7023SM   O14 9094   4.200   2.322   7.534 -0.6423  0.3159 -0.2375
   7023SM   O11 9095   4.102   2.225   7.322  0.0772  0.3039  0.3013
   7023SM   O12 9096   4.278   2.400   7.309  0.3605 -0.0668 -0.2965
   7023SM   C1S 9097   4.018   2.297   7.234  0.2374  0.0782  0.4392
   7023SM   H1S 9098   4.030   2.407   7.232  1.4471 -0.0356 -2.0775
   7023SM   H1T 9099   3.914   2.280   7.271  0.4427 -1.1172  0.5234
   7023SM    NF 9100   3.955   2.319   7.004  0.6245 -0.1578 -0.5282
   7023SM   HNF 9101   3.867   2.292   6.967  0.5114 -0.6163  0.0713
   7023SM   C2S 9102   4.018   2.236   7.093 -0.1885 -0.0129  0.0279
   7023SM   H2S 9103   4.123   2.243   7.058 -0.5191  2.5706 -0.6734
   7023SM   C3S 9104   3.956   2.098   7.102  0.0263  0.0884 -1.0766
   7023SM   H3S 9105   3.856   2.106   7.150  1.6279  1.1578  2.3964
   7023SM    O3 9106   4.025   2.006   7.188 -0.4132 -0.0734 -0.2856
   7023SM   HO3 9107   4.057   2.068   7.253  0.9440 -0.6093 -0.4168
   7023SM   C4S 9108   3.945   2.029   6.971 -0.3983 -0.0143  0.1526
   7023SM   H4S 9109   4.031   2.036   6.903  0.4087  1.0929  1.2275
   7023SM   C5S 9110   3.844   1.964   6.924  0.7463 -0.0934  0.5758
   7023SM   H5S 9111   3.753   1.954   6.985  0.2118  0.6876 -0.0675
   7023SM   C6S 9112   3.829   1.906   6.782  0.1299  0.1797  0.4720
   7023SM   H6S 9113   3.722   1.894   6.756  0.9584  0.0791 -3.5304
   7023SM   H6T 9114   3.868   1.802   6.782  1.5555  0.6748  1.5271
   7023SM   C7S 9115   3.908   1.981   6.675 -0.1437 -0.2578  0.3555
   7023SM   H7S 9116   3.896   1.933   6.575 -1.3235  3.6445 -1.5884
   7023SM   H7T 9117   4.016   1.987   6.696 -0.5797 -0.9169  3.1553
   7023SM   C8S 9118   3.867   2.128   6.646 -0.3790 -0.2519  0.3992
   7023SM   H8S 9119   3.896   2.190   6.734 -0.9463  1.6579 -0.6848
   7023SM   H8T 9120   3.759   2.146   6.627 -0.1071  3.1033  1.3137
   7023SM   C9S 9121   3.947   2.187   6.523  0.0561  0.2991 -0.2276
   7023SM   H9S 9122   4.054   2.168   6.546 -0.5510 -1.5302  1.3280
   7023SM   H9T 9123   3.928   2.295   6.504 -0.9788  0.4950  1.6484
   7023SM  C10S 9124   3.903   2.123   6.392 -0.8052  0.3126 -0.2598
   7023SM  H10S 9125   3.794   2.134   6.374 -0.7004  0.9676 -0.5105
   7023SM  H10T 9126   3.918   2.013   6.401 -1.8370  0.1303 -0.6277
   7023SM  C11S 9127   3.972   2.173   6.268 -0.2624 -0.4554  0.3108
   7023SM  H11S 9128   4.074   2.129   6.264  0.6353  1.5335  0.2049
   7023SM  H11T 9129   3.975   2.283   6.278  0.5844 -0.2038 -1.9836
   7023SM  C12S 9130   3.905   2.153   6.129  0.0706  0.7899  0.0117
   7023SM  H12S 9131   3.803   2.197   6.135 -0.5336 -0.2627 -1.7811
   7023SM  H12T 9132   3.893   2.042   6.125  1.4962  0.6492 -1.2637
   7023SM  C13S 9133   3.982   2.217   6.011 -0.9324  0.3988  0.0805
   7023SM  H13S 9134   4.088   2.190   6.025 -1.1717 -0.6702 -0.0817
   7023SM  H13T 9135   3.962   2.325   6.029 -0.1950  0.3612  1.1457
   7023SM  C14S 9136   3.933   2.176   5.873 -1.4115  0.4361 -0.3576
   7023SM  H14S 9137   3.910   2.067   5.873 -0.2161  0.1743 -1.3520
   7023SM  H14T 9138   4.016   2.186   5.801 -1.2298 -1.5804 -0.4936
   7023SM  C15S 9139   3.824   2.249   5.801 -0.0501  0.4359 -0.6440
   7023SM  H15S 9140   3.841   2.359   5.791  1.3075  0.3079  0.0502
   7023SM  H15T 9141   3.723   2.228   5.841 -0.1318  1.6398 -0.1714
   7023SM  C16S 9142   3.801   2.183   5.661  1.1832 -0.6360  0.9072
   7023SM  H16S 9143   3.788   2.073   5.673  0.1491 -0.6566 -0.1536
   7023SM  H16T 9144   3.892   2.199   5.599  1.2682  0.4843  1.3064
   7023SM  C17S 9145   3.684   2.232   5.572  0.6411  0.5784 -0.4902
   7023SM  H17S 9146   3.693   2.341   5.553 -1.0155  0.8607  0.2193
   7023SM  H17T 9147   3.603   2.204   5.643 -0.3104  0.1544 -1.7002
   7023SM  C18S 9148   3.665   2.170   5.439 -0.7155  0.7420 -0.2179
   7023SM  H18S 9149   3.575   2.192   5.378 -1.4535 -0.3723  0.4323
   7023SM  H18T 9150   3.662   2.060   5.457  2.5738  0.5961 -0.0342
   7023SM  H18U 9151   3.751   2.187   5.370 -0.1850  2.0290  0.7317
   7023SM   C1F 9152   4.009   2.431   6.958 -0.0307  0.8854 -0.0926
   7023SM    OF 9153   4.112   2.477   7.009  0.5471 -0.0305  0.3310
   7023SM   C2F 9154   3.945   2.502   6.837  0.3789  0.1105  0.4036
   7023SM   H2F 9155   3.937   2.609   6.865  2.8364  0.5841 -0.4873
   7023SM   H2G 9156   3.844   2.459   6.819  0.8884 -0.8968 -0.1583
   7023SM   C3F 9157   4.029   2.519   6.709 -0.1641 -0.0246 -0.6029
   7023SM   H3F 9158   4.063   2.421   6.668  0.6499  1.0462 -2.6434
   7023SM   H3G 9159   4.126   2.560   6.744 -0.3818 -1.1076  1.3976
   7023SM   C4F 9160   3.971   2.595   6.591 -0.5913 -0.0121 -0.7950
   7023SM   H4F 9161   3.960   2.700   6.627 -2.0021 -0.4008 -0.0222
   7023SM   H4G 9162   3.871   2.557   6.563 -1.5438  1.7368  0.0701
   7023SM   C5F 9163   4.063   2.604   6.472  0.4300 -0.2597 -0.0364
   7023SM   H5F 9164   4.107   2.502   6.466 -0.0366 -0.4190 -1.0490
   7023SM   H5G 9165   4.135   2.685   6.497  0.7715 -0.0291 -1.6480
   7023SM   C6F 9166   3.995   2.636   6.338  0.7071 -0.0905  0.2142
   7023SM   H6F 9167   3.958   2.741   6.331 -1.8115 -1.0059 -1.8710
   7023SM   H6G 9168   3.910   2.565   6.333  1.5162 -1.3480  2.7203
   7023SM   C7F 9169   4.089   2.622   6.223 -0.5583 -0.0889  0.0370
   7023SM   H7F 9170   4.146   2.527   6.221 -0.9035 -0.4204  2.6474
   7023SM   H7G 9171   4.175   2.692   6.226  0.0827 -0.5870 -3.2747
   7023SM   C8F 9172   4.015   2.643   6.089  0.0224 -0.6384  0.6433
   7023SM   H8F 9173   3.969   2.743   6.076  1.5033 -0.2038 -2.1048
   7023SM   H8G 9174   3.932   2.569   6.090  1.2277 -2.0407  0.7178
   7023SM   C9F 9175   4.106   2.620   5.973  0.3754  0.6552 -0.3700
   7023SM   H9F 9176   4.144   2.516   5.979 -1.1496  0.0553 -0.7274
   7023SM   H9G 9177   4.192   2.691   5.974  1.3747 -0.4596 -2.1196
   7023SM  C10F 9178   4.031   2.623   5.840  0.4648 -0.1746 -0.3256
   7023SM  H10F 9179   3.966   2.712   5.827  1.1868  0.3814 -0.1380
   7023SM  H10G 9180   3.966   2.533   5.830 -0.2210  0.5614 -3.4222
   7023SM  C11F 9181   4.125   2.618   5.718  1.1420  0.9107  0.5221
   7023SM  H11F 9182   4.204   2.543   5.740 -0.8823 -1.1156  1.3091
   7023SM  H11G 9183   4.175   2.717   5.714 -0.0794  1.5610  0.7704
   7023SM  C12F 9184   4.053   2.602   5.581  0.7526  0.1569 -0.7924
   7023SM  H12F 9185   4.014   2.499   5.571  0.5338  0.3234 -1.7128
   7023SM  H12G 9186   4.137   2.627   5.513  0.0123  0.2395 -1.6996
   7023SM  C13F 9187   3.945   2.703   5.562  0.0967  0.1915  0.2086
   7023SM  H13F 9188   3.998   2.800   5.549 -2.3424  1.3981 -1.8444
   7023SM  H13G 9189   3.854   2.707   5.626 -0.0901 -2.6064  0.2286
   7023SM  C14F 9190   3.876   2.684   5.422 -0.2362 -0.2394 -0.2551
   7023SM  H14F 9191   3.804   2.601   5.443  0.8051 -0.7245  1.6231
   7023SM  H14G 9192   3.954   2.649   5.351 -0.1474 -1.0971  0.2446
   7023SM  C15F 9193   3.811   2.811   5.359  0.0883  0.8256 -0.1138
   7023SM  H15F 9194   3.737   2.856   5.429  0.3140  2.6934 -1.0278
   7023SM  H15G 9195   3.751   2.775   5.272  0.3422  0.4890 -0.1502
   7023SM  C16F 9196   3.902   2.918   5.304  0.8514  0.2498 -0.3961
   7023SM  H16F 9197   3.962   2.867   5.226  1.2487 -0.9382  0.6536
   7023SM  H16G 9198   3.967   2.967   5.380 -1.2301  1.6550  0.5603
   7023SM  C17F 9199   3.824   3.034   5.234  0.5331 -0.2354 -0.2564
   7023SM  H17F 9200   3.892   3.117   5.204  0.2579  0.9143  2.0619
   7023SM  H17G 9201   3.753   3.079   5.306 -0.8151 -2.2369 -0.2576
   7023SM  C18F 9202   3.746   2.997   5.103 -0.6993 -0.3514  0.7041
   7023SM  H18F 9203   3.695   3.091   5.072 -1.0457  0.2304  2.9191
   7023SM  H18G 9204   3.664   2.927   5.130 -0.3653 -0.7319  0.7353
   7023SM  C19F 9205   3.834   2.933   4.988 -0.0406  0.4617 -0.2499
   7023SM  H19F 9206   3.887   2.836   5.004 -0.8760  0.0614  0.1403
   7023SM  H19G 9207   3.915   3.009   4.984 -0.9922  1.4532 -1.3147
   7023SM  C20F 9208   3.762   2.931   4.856 -0.1638 -0.2899 -0.0527
   7023SM  H20F 9209   3.732   3.033   4.823 -1.5531 -1.1760 -1.6375
   7023SM  H20G 9210   3.672   2.866   4.851  0.2940 -0.9980  0.6714
   7023SM  C21F 9211   3.859   2.875   4.746  0.2616  0.5958  0.1834
   7023SM  H21F 9212   3.876   2.766   4.763  0.2501  0.1604 -2.2891
   7023SM  H21G 9213   3.954   2.927   4.768  0.5296 -0.1082  0.7579
   7023SM  C22F 9214   3.805   2.909   4.604  0.5469  0.3919 -0.4132
   7023SM  H22F 9215   3.695   2.926   4.593  0.8840  4.0944  0.5555
   7023SM  H22G 9216   3.825   2.817   4.544 -1.8370 -0.6944  0.3385
   7023SM  C23F 9217   3.880   3.033   4.545 -0.3940 -0.6160 -0.1018
   7023SM  H23F 9218   3.990   3.024   4.560 -0.4359 -1.1719 -0.1149
   7023SM  H23G 9219   3.838   3.125   4.592  0.1819 -0.0422 -0.6973
   7023SM  H23H 9220   3.858   3.046   4.437 -0.8835  0.2357  0.0876
   7123SM     N 9221   5.945   6.878   8.007 -0.5976  0.0195  0.5157
   7123SM   C15 9222   5.987   6.746   8.066 -0.5184  0.1504 -0.3482
   7123SM  H15A 9223   5.945   6.664   8.010  0.0391  0.4588 -1.2474
   7123SM  H15B 9224   5.966   6.735   8.171 -3.1108 -1.5362 -0.9738
   7123SM  H15C 9225   6.095   6.743   8.058 -0.4112  1.5595  0.1506
   7123SM   C14 9226   6.028   6.986   8.070 -0.3876 -0.7908 -0.7033
   7123SM  H14A 9227   6.125   6.989   8.022 -1.1672  2.2557 -2.3729
   7123SM  H14B 9228   6.042   6.976   8.176 -0.0185 -0.0765 -0.6790
   7123SM  H14C 9229   5.986   7.083   8.049 -0.4807 -1.1194 -2.1588
   7123SM   C13 9230   5.980   6.870   7.862  0.1571 -0.1890 -0.1232
   7123SM  H13A 9231   5.983   6.972   7.825  0.9193  0.0229  0.5022
   7123SM  H13B 9232   5.910   6.810   7.805 -0.6401 -0.6559  1.2865
   7123SM  H13C 9233   6.083   6.842   7.848  0.6653  0.4457  1.9697
   7123SM   C12 9234   5.800   6.906   8.016  0.4511  0.1399 -0.2860
   7123SM  H12A 9235   5.770   6.910   8.120 -1.5281  0.3396 -0.8203
   7123SM  H12B 9236   5.765   6.811   7.978 -0.9779  1.0155 -1.2333
   7123SM   C11 9237   5.739   7.028   7.942 -0.1907  0.1799 -0.3078
   7123SM  H11A 9238   5.630   7.026   7.962 -0.2767  2.1549 -0.3194
   7123SM  H11B 9239   5.764   7.018   7.835  0.9982 -1.6128  0.0879
   7123SM     P 9240   5.754   7.288   7.947  0.3654  0.5405  0.6737
   7123SM   O13 9241   5.604   7.291   7.964 -0.5410 -0.4164  0.0023
   7123SM   O14 9242   5.841   7.390   8.022 -0.1686  0.4113  0.4370
   7123SM   O11 9243   5.787   7.294   7.789  0.1051  0.9929 -0.3692
   7123SM   O12 9244   5.789   7.150   8.003  0.0340  0.7314 -0.4687
   7123SM   C1S 9245   5.920   7.271   7.735 -0.7019  0.2162  0.0639
   7123SM   H1S 9246   5.945   7.163   7.730 -0.1017  0.3048  1.0101
   7123SM   H1T 9247   5.998   7.320   7.797 -0.5514 -1.5367  1.3464
   7123SM    NF 9248   6.077   7.313   7.550  0.2087 -0.3600 -0.3512
   7123SM   HNF 9249   6.121   7.400   7.529 -0.0809 -0.4114 -1.2085
   7123SM   C2S 9250   5.945   7.321   7.586  0.1195  0.4746  0.1494
   7123SM   H2S 9251   5.891   7.249   7.520  0.1683 -0.2313  0.8690
   7123SM   C3S 9252   5.877   7.455   7.554 -0.1843  0.3757  0.1768
   7123SM   H3S 9253   5.936   7.542   7.589  1.6373 -1.5429  2.1587
   7123SM    O3 9254   5.746   7.470   7.611  0.2117 -0.2295 -0.4017
   7123SM   HO3 9255   5.742   7.407   7.684  1.5362  0.3476  0.2114
   7123SM   C4S 9256   5.871   7.476   7.401 -0.3346  1.1298 -0.5323
   7123SM   H4S 9257   5.954   7.541   7.368 -1.8583  2.9353 -0.9848
   7123SM   C5S 9258   5.768   7.441   7.314  0.3932 -0.5053  0.3449
   7123SM   H5S 9259   5.671   7.403   7.348 -0.3631  0.6884 -0.4034
   7123SM   C6S 9260   5.758   7.488   7.169 -0.1336  0.1793 -0.4453
   7123SM   H6S 9261   5.660   7.530   7.136 -0.7326 -0.2689  0.7184
   7123SM   H6T 9262   5.755   7.390   7.118  1.5165 -0.1900  0.1230
   7123SM   C7S 9263   5.878   7.554   7.106 -0.3889  0.5545  0.6161
   7123SM   H7S 9264   5.978   7.511   7.128  1.3163  2.9033 -1.8506
   7123SM   H7T 9265   5.876   7.654   7.155 -2.3286  1.0756 -0.4684
   7123SM   C8S 9266   5.859   7.589   6.958  0.3430 -0.4238 -0.3118
   7123SM   H8S 9267   5.773   7.659   6.946 -0.1254 -0.6916  1.3279
   7123SM   H8T 9268   5.829   7.500   6.899 -3.8925  0.3107  0.3507
   7123SM   C9S 9269   5.978   7.657   6.894 -1.3242 -0.8115 -0.2143
   7123SM   H9S 9270   6.064   7.587   6.903 -2.0131 -1.4410  2.2334
   7123SM   H9T 9271   6.001   7.752   6.946 -2.8984 -0.9780  0.8728
   7123SM  C10S 9272   5.952   7.692   6.746 -0.4009  0.4723 -1.0962
   7123SM  H10S 9273   6.021   7.774   6.719  1.1366 -0.2137  0.5839
   7123SM  H10T 9274   5.849   7.733   6.736 -1.1272 -0.8528  0.3848
   7123SM  C11S 9275   5.961   7.574   6.650  0.1593  0.0570 -0.0556
   7123SM  H11S 9276   5.880   7.503   6.676 -0.0775 -0.2214 -1.4407
   7123SM  H11T 9277   6.057   7.521   6.665  0.6551  1.1184  0.5969
   7123SM  C12S 9278   5.933   7.608   6.505  0.0255 -0.0326  0.1480
   7123SM  H12S 9279   6.015   7.674   6.471  0.7145 -0.5860  0.7090
   7123SM  H12T 9280   5.831   7.653   6.501 -0.9664 -1.8430  2.5168
   7123SM  C13S 9281   5.943   7.488   6.410  0.1196  0.1469 -0.0817
   7123SM  H13S 9282   5.879   7.493   6.320  2.1175  0.7526 -1.5233
   7123SM  H13T 9283   5.897   7.408   6.473  1.0029  0.4078  0.9217
   7123SM  C14S 9284   6.083   7.448   6.368  0.7566 -0.1970 -0.7011
   7123SM  H14S 9285   6.143   7.404   6.451  1.5761 -1.2098 -1.7941
   7123SM  H14T 9286   6.129   7.544   6.335  1.4023  0.2605  1.3857
   7123SM  C15S 9287   6.083   7.334   6.266  0.4683 -0.6099 -0.2542
   7123SM  H15S 9288   6.066   7.380   6.166 -0.2260 -1.6289 -0.6257
   7123SM  H15T 9289   6.014   7.251   6.292  0.2270  0.2599  2.1520
   7123SM  C16S 9290   6.228   7.275   6.276  0.2875  0.0696 -0.5001
   7123SM  H16S 9291   6.243   7.227   6.375  1.9544 -1.0550 -1.2497
   7123SM  H16T 9292   6.297   7.359   6.256  0.1415 -0.1645 -2.1890
   7123SM  C17S 9293   6.249   7.171   6.168 -0.3214 -0.7007 -0.4367
   7123SM  H17S 9294   6.177   7.087   6.162  3.1139 -3.8483 -1.1836
   7123SM  H17T 9295   6.352   7.132   6.183  1.5642  3.8403  0.0569
   7123SM  C18S 9296   6.250   7.222   6.027 -0.2330 -0.1140  0.5229
   7123SM  H18S 9297   6.146   7.234   5.991  0.1554 -1.1563 -1.0829
   7123SM  H18T 9298   6.313   7.161   5.958 -1.6125  1.4206 -2.2991
   7123SM  H18U 9299   6.292   7.325   6.031  1.6307 -0.8091  0.0916
   7123SM   C1F 9300   6.161   7.209   7.542  0.5376  0.8244  0.0807
   7123SM    OF 9301   6.127   7.096   7.560  0.1708  0.2333 -0.1416
   7123SM   C2F 9302   6.304   7.244   7.508  0.1744  0.1441 -0.4757
   7123SM   H2F 9303   6.371   7.208   7.589  0.3789  0.2518 -0.5980
   7123SM   H2G 9304   6.311   7.354   7.510 -1.7402  0.3222 -1.4003
   7123SM   C3F 9305   6.351   7.189   7.370 -0.0544  0.6730 -0.4436
   7123SM   H3F 9306   6.353   7.077   7.368  2.2086  0.6842 -1.7710
   7123SM   H3G 9307   6.454   7.226   7.349 -0.0547  1.2482  0.5078
   7123SM   C4F 9308   6.253   7.231   7.263  0.1214 -0.9124  0.0067
   7123SM   H4F 9309   6.226   7.337   7.282  3.5384  0.1185 -0.1714
   7123SM   H4G 9310   6.161   7.170   7.273 -1.4047  0.9533 -1.6629
   7123SM   C5F 9311   6.320   7.222   7.127  0.4522 -0.1882  0.3367
   7123SM   H5F 9312   6.362   7.119   7.121 -0.0068 -0.3983  0.6455
   7123SM   H5G 9313   6.401   7.298   7.123 -1.8740  2.4032 -2.6527
   7123SM   C6F 9314   6.229   7.241   6.999  0.1334  0.5186  0.3128
   7123SM   H6F 9315   6.289   7.237   6.905 -3.2200  2.3861 -2.1687
   7123SM   H6G 9316   6.176   7.339   7.002 -0.4602  0.2064  0.1419
   7123SM   C7F 9317   6.122   7.137   6.983 -0.4710 -1.4087 -0.4703
   7123SM   H7F 9318   6.042   7.144   7.059  0.1708  1.4655  0.0277
   7123SM   H7G 9319   6.177   7.040   6.984  0.6128 -0.8400  1.8353
   7123SM   C8F 9320   6.047   7.148   6.854 -0.2215 -0.6967  0.0463
   7123SM   H8F 9321   6.127   7.160   6.778  0.1168 -0.4569  0.4348
   7123SM   H8G 9322   5.989   7.241   6.835  0.1315 -0.4548  0.1371
   7123SM   C9F 9323   5.956   7.027   6.820  0.6766 -0.3096 -0.5903
   7123SM   H9F 9324   5.872   7.012   6.890  0.0299 -2.9391 -1.8073
   7123SM   H9G 9325   6.013   6.933   6.837 -0.0806 -0.6908 -0.1522
   7123SM  C10F 9326   5.892   7.038   6.677 -0.4206 -0.1276  0.0696
   7123SM  H10F 9327   5.873   6.933   6.647 -0.5950  1.0373 -4.6809
   7123SM  H10G 9328   5.962   7.064   6.595 -1.9569 -1.5118 -1.7709
   7123SM  C11F 9329   5.752   7.108   6.678 -0.3161  0.2000  0.5385
   7123SM  H11F 9330   5.770   7.217   6.688 -0.1998  0.1491  0.8859
   7123SM  H11G 9331   5.688   7.069   6.761 -1.8871  1.9152  0.2056
   7123SM  C12F 9332   5.669   7.092   6.552  0.2328 -0.5821 -0.2170
   7123SM  H12F 9333   5.580   7.155   6.568  0.5449 -0.4666  1.1646
   7123SM  H12G 9334   5.629   6.989   6.537  0.1530 -0.4462 -0.9927
   7123SM  C13F 9335   5.741   7.133   6.419  0.5028  0.4948 -0.6222
   7123SM  H13F 9336   5.835   7.074   6.406  1.6462  1.9603  0.5881
   7123SM  H13G 9337   5.774   7.239   6.432  0.0632  0.5531  0.0718
   7123SM  C14F 9338   5.650   7.105   6.298 -0.2062  0.4558 -0.4061
   7123SM  H14F 9339   5.571   7.183   6.297 -1.6346 -0.9238  0.6491
   7123SM  H14G 9340   5.612   7.002   6.316  3.0782 -0.5061  1.9970
   7123SM  C15F 9341   5.721   7.088   6.166  0.0662  0.6104  0.7242
   7123SM  H15F 9342   5.798   7.008   6.169  0.5450  1.0957  2.2274
   7123SM  H15G 9343   5.767   7.182   6.128 -0.2282 -0.2660 -1.9777
   7123SM  C16F 9344   5.630   7.051   6.041 -0.0834 -0.1960 -0.4631
   7123SM  H16F 9345   5.687   7.069   5.948 -0.9281  3.9325 -0.3736
   7123SM  H16G 9346   5.550   7.128   6.035 -0.7936 -0.5125  2.7555
   7123SM  C17F 9347   5.563   6.912   6.047  1.0627  0.0424  0.9268
   7123SM  H17F 9348   5.479   6.924   6.119  2.0735  0.3322  2.0865
   7123SM  H17G 9349   5.641   6.840   6.080  2.2760  1.8536  2.2183
   7123SM  C18F 9350   5.510   6.877   5.903 -0.5209 -0.3971 -0.3810
   7123SM  H18F 9351   5.593   6.870   5.829 -1.3604  1.3781 -1.5510
   7123SM  H18G 9352   5.444   6.957   5.864  0.3425  0.3038 -0.4304
   7123SM  C19F 9353   5.428   6.743   5.914 -0.1445 -0.1271  0.0939
   7123SM  H19F 9354   5.351   6.746   5.994 -0.5548  1.2283 -0.3111
   7123SM  H19G 9355   5.499   6.663   5.942  0.8554  0.8523  0.4463
   7123SM  C20F 9356   5.386   6.699   5.768 -0.0202  0.2992 -0.4652
   7123SM  H20F 9357   5.467   6.693   5.693  0.3189  1.7211 -0.2428
   7123SM  H20G 9358   5.324   6.788   5.743  0.8298  1.5914  1.8063
   7123SM  C21F 9359   5.315   6.565   5.770  0.3431  0.2762 -0.0325
   7123SM  H21F 9360   5.225   6.575   5.835  0.6216 -1.0088  0.5872
   7123SM  H21G 9361   5.380   6.487   5.815 -1.5527 -0.2034  2.0847
   7123SM  C22F 9362   5.260   6.530   5.631  0.6961 -0.1611 -0.1650
   7123SM  H22F 9363   5.281   6.423   5.607 -2.5829 -1.2422  1.2745
   7123SM  H22G 9364   5.331   6.578   5.561  2.2114  1.2757  2.2078
   7123SM  C23F 9365   5.108   6.539   5.608  0.5610  0.3494 -0.0363
   7123SM  H23F 9366   5.093   6.516   5.501  2.1971  0.6012 -0.3501
   7123SM  H23G 9367   5.071   6.641   5.633 -0.4554 -0.4381  1.8490
   7123SM  H23H 9368   5.060   6.479   5.688  0.3797  1.4132  0.6799
   7223SM     N 9369   7.675   2.849   8.173  0.1026  0.2977 -0.0738
   7223SM   C15 9370   7.672   2.717   8.107  0.3491 -0.0588 -0.2754
   7223SM  H15A 9371   7.773   2.692   8.078  0.7889  1.1161  0.1920
   7223SM  H15B 9372   7.597   2.730   8.030 -0.6850  0.7068  0.8280
   7223SM  H15C 9373   7.627   2.647   8.176  0.1392  0.5215  0.1858
   7223SM   C14 9374   7.538   2.882   8.210 -0.4860 -0.5499 -0.2771
   7223SM  H14A 9375   7.482   2.803   8.257 -2.8541  0.9292 -0.4410
   7223SM  H14B 9376   7.479   2.911   8.124  0.6657 -1.4335 -1.3944
   7223SM  H14C 9377   7.533   2.968   8.275  0.0513 -0.8274  0.1383
   7223SM   C13 9378   7.766   2.832   8.297 -0.3111 -0.0509 -0.6255
   7223SM  H13A 9379   7.729   2.756   8.365 -0.3388  0.6471  0.1441
   7223SM  H13B 9380   7.790   2.926   8.343  3.3964 -0.3519 -1.6449
   7223SM  H13C 9381   7.862   2.812   8.252 -0.2332  1.6039 -1.2360
   7223SM   C12 9382   7.724   2.952   8.076  0.2713 -0.2134  0.1764
   7223SM  H12A 9383   7.828   2.932   8.054 -0.1916 -1.9734 -0.5706
   7223SM  H12B 9384   7.724   3.053   8.116  1.3107 -0.5134  1.0043
   7223SM   C11 9385   7.655   2.965   7.939  0.1193  0.3601 -0.0531
   7223SM  H11A 9386   7.652   2.868   7.885  1.9475 -0.7703  1.7427
   7223SM  H11B 9387   7.717   3.028   7.871  0.8669 -0.8541 -0.5147
   7223SM     P 9388   7.503   3.166   7.980  0.1174 -0.2733 -0.4659
   7223SM   O13 9389   7.360   3.204   8.007  0.6621  0.1688 -0.1023
   7223SM   O14 9390   7.600   3.210   8.080  0.0513 -0.0911  0.1668
   7223SM   O11 9391   7.538   3.244   7.838  0.6354 -0.5304  0.3921
   7223SM   O12 9392   7.520   3.012   7.953 -0.4496  0.0207  0.3536
   7223SM   C1S 9393   7.422   3.275   7.744 -0.5228 -0.0242 -0.5723
   7223SM   H1S 9394   7.397   3.383   7.753  0.3198  0.3975 -2.6624
   7223SM   H1T 9395   7.333   3.210   7.754 -0.0028 -0.6444  0.1933
   7223SM    NF 9396   7.372   3.304   7.496  0.1364  0.1578  0.0311
   7223SM   HNF 9397   7.312   3.239   7.451  0.0451  0.4335 -0.2440
   7223SM   C2S 9398   7.467   3.248   7.591 -0.1482 -0.6856 -0.0898
   7223SM   H2S 9399   7.568   3.293   7.581  0.1475 -1.1377  0.7606
   7223SM   C3S 9400   7.492   3.095   7.569  0.1288  0.9289  0.0419
   7223SM   H3S 9401   7.397   3.042   7.590 -0.3569  1.2999 -1.1283
   7223SM    O3 9402   7.583   3.022   7.652 -0.1006  0.0946 -0.7116
   7223SM   HO3 9403   7.590   3.076   7.731 -1.9171  2.5024 -2.0398
   7223SM   C4S 9404   7.524   3.072   7.423  0.2639 -0.0251  0.0083
   7223SM   H4S 9405   7.629   3.101   7.408 -0.7563  3.3716 -1.3538
   7223SM   C5S 9406   7.443   3.008   7.334 -0.1324 -0.1872  0.4739
   7223SM   H5S 9407   7.344   2.969   7.362 -1.2352  0.0852 -2.5806
   7223SM   C6S 9408   7.484   2.965   7.191 -0.4068 -0.2637 -0.5965
   7223SM   H6S 9409   7.445   2.865   7.163  1.0035 -1.9723  2.9157
   7223SM   H6T 9410   7.595   2.959   7.190 -0.1257  3.0502 -1.0138
   7223SM   C7S 9411   7.420   3.060   7.083 -0.7550  0.0854  0.4102
   7223SM   H7S 9412   7.469   3.159   7.087 -1.5706  0.5803 -1.0560
   7223SM   H7T 9413   7.313   3.071   7.110 -0.4527  0.3763  1.5201
   7223SM   C8S 9414   7.444   3.015   6.940 -0.5705  0.5816 -0.4311
   7223SM   H8S 9415   7.370   2.937   6.912  1.4252 -0.9574 -1.7698
   7223SM   H8T 9416   7.549   2.982   6.924 -0.0716  2.1679 -0.6550
   7223SM   C9S 9417   7.428   3.142   6.854 -0.1931  0.0597 -0.3008
   7223SM   H9S 9418   7.503   3.213   6.893  0.8402 -1.1926  0.0578
   7223SM   H9T 9419   7.331   3.188   6.883  0.5121  1.6897 -0.4651
   7223SM  C10S 9420   7.435   3.118   6.703  0.2149 -0.0046 -0.3640
   7223SM  H10S 9421   7.532   3.066   6.687  0.8531  0.4934  1.6004
   7223SM  H10T 9422   7.439   3.218   6.656  1.5589  0.3159  0.3762
   7223SM  C11S 9423   7.313   3.028   6.657  0.2084 -0.1930  0.1410
   7223SM  H11S 9424   7.224   3.081   6.697  0.9309  1.5121 -0.4181
   7223SM  H11T 9425   7.320   2.923   6.692 -1.5519  0.1181  1.5802
   7223SM  C12S 9426   7.315   3.019   6.505 -0.0679 -0.0195  0.1320
   7223SM  H12S 9427   7.319   3.125   6.471  2.2087 -0.4091 -0.9878
   7223SM  H12T 9428   7.217   2.982   6.467 -0.5014  1.8635 -0.7234
   7223SM  C13S 9429   7.433   2.971   6.430 -0.1430 -0.4358 -0.6852
   7223SM  H13S 9430   7.445   2.861   6.420  0.5336 -0.2551 -2.0581
   7223SM  H13T 9431   7.532   3.009   6.465  0.2589  0.0587 -2.2786
   7223SM  C14S 9432   7.427   3.009   6.283 -0.2286  0.0668 -0.1802
   7223SM  H14S 9433   7.405   3.118   6.273 -1.2125 -0.1144 -0.1171
   7223SM  H14T 9434   7.344   2.955   6.233 -0.3308  0.2435 -0.2025
   7223SM  C15S 9435   7.557   2.980   6.203 -0.0484  0.5096  0.5145
   7223SM  H15S 9436   7.564   2.870   6.189 -3.2799  0.5213 -2.5042
   7223SM  H15T 9437   7.636   3.020   6.270  1.0077  1.0124 -0.9869
   7223SM  C16S 9438   7.572   3.049   6.065  0.1909  0.3145 -0.2585
   7223SM  H16S 9439   7.577   3.158   6.086  0.2313  0.7101 -2.1650
   7223SM  H16T 9440   7.476   3.035   6.011  0.6513 -2.2447 -0.5603
   7223SM  C17S 9441   7.693   3.014   5.974  0.6147  0.0866 -0.1688
   7223SM  H17S 9442   7.782   3.029   6.038 -0.0106  0.7737  0.5536
   7223SM  H17T 9443   7.692   3.076   5.882 -1.9976 -1.0951 -1.0298
   7223SM  C18S 9444   7.683   2.869   5.926  0.0369  0.7104 -0.0695
   7223SM  H18S 9445   7.743   2.851   5.834  1.6572  0.1066  1.0713
   7223SM  H18T 9446   7.576   2.845   5.906  0.3576 -1.0180  0.1281
   7223SM  H18U 9447   7.728   2.789   5.989  1.7086  0.4510 -1.5037
   7223SM   C1F 9448   7.350   3.434   7.491  0.0352  0.4650  0.7828
   7223SM    OF 9449   7.418   3.514   7.554  0.0735 -0.0956  0.2190
   7223SM   C2F 9450   7.224   3.478   7.424  0.5094  0.9003 -0.8401
   7223SM   H2F 9451   7.197   3.582   7.453 -0.9727  0.2210  0.3602
   7223SM   H2G 9452   7.143   3.407   7.450  0.6493  0.6980 -0.9515
   7223SM   C3F 9453   7.229   3.467   7.272 -0.4681 -0.2989 -0.0432
   7223SM   H3F 9454   7.132   3.504   7.233 -0.1060  1.5136  0.6682
   7223SM   H3G 9455   7.224   3.365   7.229  2.5436 -0.6280  0.1442
   7223SM   C4F 9456   7.345   3.549   7.212  0.0455  0.4712  0.4286
   7223SM   H4F 9457   7.433   3.482   7.219  0.9695  1.5073 -0.7189
   7223SM   H4G 9458   7.368   3.635   7.278 -2.2074 -0.0042  1.9479
   7223SM   C5F 9459   7.300   3.587   7.066  0.3303 -0.3111  0.4881
   7223SM   H5F 9460   7.356   3.672   7.021  1.4024 -0.7918  0.8718
   7223SM   H5G 9461   7.192   3.613   7.069 -0.3356 -2.9116  1.9676
   7223SM   C6F 9462   7.310   3.490   6.946  0.2354 -0.3776 -0.2851
   7223SM   H6F 9463   7.251   3.396   6.954 -2.1608  1.0058 -0.7643
   7223SM   H6G 9464   7.411   3.444   6.946 -0.4080 -1.8565  0.3144
   7223SM   C7F 9465   7.288   3.567   6.816 -0.0344  0.2858  0.5846
   7223SM   H7F 9466   7.388   3.611   6.797  1.8307 -2.9580  1.9595
   7223SM   H7G 9467   7.218   3.652   6.828 -1.4010 -0.6885 -0.2389
   7223SM   C8F 9468   7.251   3.487   6.691 -0.6182 -0.4354  0.2464
   7223SM   H8F 9469   7.287   3.382   6.692  0.5814 -0.0502 -0.1273
   7223SM   H8G 9470   7.283   3.537   6.597  2.5646  1.2547  2.0467
   7223SM   C9F 9471   7.098   3.460   6.679 -0.7111 -0.3445 -0.1063
   7223SM   H9F 9472   7.050   3.556   6.647  0.3703  0.7263  1.3560
   7223SM   H9G 9473   7.062   3.431   6.780  1.9182 -0.1300  0.9564
   7223SM  C10F 9474   7.072   3.344   6.584  0.0210  0.0389  0.5127
   7223SM  H10F 9475   6.962   3.331   6.571  0.2733 -2.9210  0.6034
   7223SM  H10G 9476   7.108   3.251   6.634  0.3346 -0.8577 -1.3164
   7223SM  C11F 9477   7.148   3.356   6.451  0.2108  0.1797  0.0940
   7223SM  H11F 9478   7.256   3.346   6.475 -0.2157 -1.4985  1.5169
   7223SM  H11G 9479   7.130   3.456   6.405 -1.3468  0.1979  0.6854
   7223SM  C12F 9480   7.094   3.262   6.341  0.6371 -0.3463 -0.3865
   7223SM  H12F 9481   7.070   3.164   6.387  1.3697 -0.1434  0.4647
   7223SM  H12G 9482   7.162   3.251   6.254 -0.7291 -0.1084 -1.5256
   7223SM  C13F 9483   6.960   3.315   6.280  0.1596  1.1568  0.6692
   7223SM  H13F 9484   6.972   3.421   6.247 -0.4273  1.0111 -0.0024
   7223SM  H13G 9485   6.879   3.312   6.356 -0.1861 -0.7450  0.2776
   7223SM  C14F 9486   6.919   3.223   6.158 -0.2903  0.2334 -0.3739
   7223SM  H14F 9487   6.874   3.132   6.204  1.6722 -0.5720  0.0938
   7223SM  H14G 9488   7.010   3.176   6.114 -0.4011 -1.2613  0.9011
   7223SM  C15F 9489   6.828   3.281   6.054 -0.4203  0.0322 -0.0255
   7223SM  H15F 9490   6.770   3.364   6.099  0.8390  0.3952  1.0017
   7223SM  H15G 9491   6.756   3.203   6.021  2.4880 -2.4101 -1.1488
   7223SM  C16F 9492   6.902   3.331   5.929  0.1199 -0.2908  0.7272
   7223SM  H16F 9493   6.989   3.395   5.957  0.1348 -0.4443  1.0390
   7223SM  H16G 9494   6.836   3.393   5.865  2.6319  0.8092 -0.9626
   7223SM  C17F 9495   6.949   3.226   5.833 -0.2177 -0.3411 -0.2290
   7223SM  H17F 9496   6.870   3.155   5.800  1.1395 -1.8513 -0.3223
   7223SM  H17G 9497   7.011   3.154   5.890  2.0350  0.4853 -1.4913
   7223SM  C18F 9498   7.029   3.281   5.716  0.4902 -0.8377 -0.7970
   7223SM  H18F 9499   6.961   3.361   5.681  0.9749  0.8726  1.8799
   7223SM  H18G 9500   7.049   3.218   5.626  1.2451 -0.8338 -0.6433
   7223SM  C19F 9501   7.165   3.335   5.759  0.5965  0.8580  0.1537
   7223SM  H19F 9502   7.221   3.247   5.799 -1.8619 -1.6709 -1.5792
   7223SM  H19G 9503   7.146   3.409   5.839  0.2714 -0.7130  1.5915
   7223SM  C20F 9504   7.228   3.402   5.638  0.5590 -0.1230  0.1959
   7223SM  H20F 9505   7.187   3.505   5.632  3.0528  0.8192 -1.9359
   7223SM  H20G 9506   7.198   3.352   5.543  0.0801  3.8806 -1.9942
   7223SM  C21F 9507   7.381   3.414   5.644  0.2171  0.1694 -0.3037
   7223SM  H21F 9508   7.423   3.313   5.626  0.4399  0.4505 -1.4451
   7223SM  H21G 9509   7.420   3.449   5.742 -1.4519  0.5115  0.2791
   7223SM  C22F 9510   7.419   3.501   5.526 -0.2096 -1.3980 -0.0475
   7223SM  H22F 9511   7.363   3.460   5.439  0.9150  0.1256 -1.5613
   7223SM  H22G 9512   7.527   3.496   5.499  0.0709  0.7857  0.5404
   7223SM  C23F 9513   7.397   3.647   5.560 -0.4532 -0.0277  0.6185
   7223SM  H23F 9514   7.416   3.711   5.471  1.3979 -0.7741  0.4320
   7223SM  H23G 9515   7.462   3.680   5.644  0.6606  1.2488 -0.6735
   7223SM  H23H 9516   7.292   3.671   5.587  0.4062 -0.4160  5.0512
   7323SM     N 9517   4.987   3.117   7.989  0.0902  0.2184  0.1937
   7323SM   C15 9518   4.944   3.231   8.079  0.2918  0.5967  0.2493
   7323SM  H15A 9519   4.970   3.201   8.180  0.4068 -1.1166 -0.2588
   7323SM  H15B 9520   4.842   3.267   8.072 -0.0799 -0.6401 -0.9629
   7323SM  H15C 9521   5.012   3.312   8.056 -0.2436  1.0109  0.1054
   7323SM   C14 9522   5.126   3.088   8.017  0.1244  0.2313  0.0244
   7323SM  H14A 9523   5.160   3.011   7.949  0.7637 -0.3979  1.0231
   7323SM  H14B 9524   5.138   3.039   8.113 -1.6847  0.5562  0.4464
   7323SM  H14C 9525   5.192   3.172   8.003 -0.7289  0.6152 -1.9709
   7323SM   C13 9526   4.901   3.002   8.016  0.1088  1.2410  0.9814
   7323SM  H13A 9527   4.922   2.927   7.941  0.2637  2.0841  0.1762
   7323SM  H13B 9528   4.795   3.019   8.006 -0.4255 -2.4332 -2.1009
   7323SM  H13C 9529   4.927   2.960   8.112 -0.3784 -1.5215  0.0252
   7323SM   C12 9530   4.971   3.156   7.842 -0.2383 -0.1753  0.1533
   7323SM  H12A 9531   5.031   3.243   7.820  2.4488 -2.4462 -2.4303
   7323SM  H12B 9532   4.870   3.181   7.815 -0.4713 -1.2444  0.0001
   7323SM   C11 9533   5.012   3.063   7.723 -0.7066 -0.0005 -0.1057
   7323SM  H11A 9534   5.121   3.053   7.703 -0.5784  0.3254  0.4123
   7323SM  H11B 9535   4.973   3.102   7.626  2.1172  2.3959 -0.4046
   7323SM     P 9536   4.845   2.872   7.685  0.3168  0.0393 -0.2874
   7323SM   O13 9537   4.819   2.733   7.731 -0.0151 -0.1702 -0.2163
   7323SM   O14 9538   4.734   2.966   7.697 -0.5094  0.3346  0.2600
   7323SM   O11 9539   4.883   2.859   7.526  0.0605 -0.1937  0.3348
   7323SM   O12 9540   4.977   2.924   7.748  0.1245 -0.3019 -0.3928
   7323SM   C1S 9541   5.019   2.817   7.495  0.6789  0.8293  0.3913
   7323SM   H1S 9542   5.010   2.706   7.499 -0.5520  0.9311  0.6221
   7323SM   H1T 9543   5.095   2.844   7.572 -0.1775  1.2992  1.0955
   7323SM    NF 9544   5.193   2.821   7.316 -0.3413  0.3272 -0.1866
   7323SM   HNF 9545   5.271   2.882   7.303  1.4250 -1.6925  0.4586
   7323SM   C2S 9546   5.059   2.870   7.350  0.5094  0.2914 -0.0851
   7323SM   H2S 9547   4.986   2.829   7.278 -1.7310 -0.4223  2.4243
   7323SM   C3S 9548   5.035   3.020   7.339  0.4338 -0.1449 -0.4656
   7323SM   H3S 9549   5.100   3.074   7.412  0.8309 -0.3625 -0.6518
   7323SM    O3 9550   4.909   3.064   7.375  0.1767 -0.1408  0.1279
   7323SM   HO3 9551   4.874   2.998   7.434 -0.8404 -0.5162 -0.8594
   7323SM   C4S 9552   5.076   3.065   7.204 -0.0906  0.1715  0.2361
   7323SM   H4S 9553   5.181   3.100   7.201 -0.2002  0.5200  0.4234
   7323SM   C5S 9554   4.991   3.077   7.101 -0.4701 -0.0744 -0.1917
   7323SM   H5S 9555   4.885   3.051   7.116 -0.2068 -0.3160  1.4596
   7323SM   C6S 9556   5.028   3.138   6.970 -0.3689  0.3349  0.5758
   7323SM   H6S 9557   4.991   3.243   6.968 -1.1908  0.0673  1.2291
   7323SM   H6T 9558   4.971   3.082   6.892 -1.1194  1.1616  0.5154
   7323SM   C7S 9559   5.167   3.135   6.899  0.0244  0.2666 -0.9299
   7323SM   H7S 9560   5.198   3.028   6.899 -1.7200 -0.3387  1.8867
   7323SM   H7T 9561   5.238   3.199   6.955  0.1969  1.0215 -1.9969
   7323SM   C8S 9562   5.156   3.207   6.762 -0.0802  0.4366 -0.1541
   7323SM   H8S 9563   5.140   3.313   6.792 -2.4215  0.4378 -1.1746
   7323SM   H8T 9564   5.064   3.167   6.714 -0.0412 -0.5572  0.5588
   7323SM   C9S 9565   5.275   3.174   6.672  0.0097 -0.2573 -0.2008
   7323SM   H9S 9566   5.271   3.064   6.657  0.4954 -0.2508 -0.3979
   7323SM   H9T 9567   5.365   3.206   6.730  0.7577 -0.2342 -1.3444
   7323SM  C10S 9568   5.269   3.252   6.540  0.3460 -0.0468  0.1283
   7323SM  H10S 9569   5.367   3.296   6.509 -0.4173  1.0661 -0.7882
   7323SM  H10T 9570   5.208   3.342   6.563 -1.8017 -1.5863  0.6722
   7323SM  C11S 9571   5.210   3.168   6.429  0.0661  0.0567 -0.6812
   7323SM  H11S 9572   5.114   3.128   6.469 -0.2336  2.2171  1.0023
   7323SM  H11T 9573   5.281   3.087   6.405  1.6669  1.1430  0.1776
   7323SM  C12S 9574   5.182   3.258   6.307  0.8779  0.9036  0.3700
   7323SM  H12S 9575   5.108   3.336   6.334 -1.7522 -0.9832 -0.9920
   7323SM  H12T 9576   5.134   3.204   6.223  1.0907 -0.4843  1.1083
   7323SM  C13S 9577   5.300   3.345   6.259 -0.1109 -0.0997  0.6099
   7323SM  H13S 9578   5.329   3.416   6.339  0.2356  0.8010 -0.2915
   7323SM  H13T 9579   5.251   3.407   6.181  0.9277 -2.0595 -1.7385
   7323SM  C14S 9580   5.419   3.269   6.197  0.1645  0.0926 -0.3660
   7323SM  H14S 9581   5.390   3.214   6.105 -0.1436 -0.2367 -0.0732
   7323SM  H14T 9582   5.449   3.184   6.261 -0.6932 -2.1366 -2.7728
   7323SM  C15S 9583   5.537   3.359   6.173 -0.4149 -0.0816 -0.2763
   7323SM  H15S 9584   5.499   3.455   6.134  0.6236  0.4577  0.0164
   7323SM  H15T 9585   5.609   3.312   6.102  0.5261 -1.0494  1.2333
   7323SM  C16S 9586   5.626   3.372   6.302 -0.7018  0.6389  0.5371
   7323SM  H16S 9587   5.662   3.273   6.338 -0.2226  0.8248  0.5834
   7323SM  H16T 9588   5.563   3.419   6.380  0.4243  0.8781  1.3194
   7323SM  C17S 9589   5.750   3.465   6.268  0.3570 -0.0606 -0.0095
   7323SM  H17S 9590   5.717   3.559   6.219 -1.5112 -1.5058 -1.7367
   7323SM  H17T 9591   5.809   3.411   6.191 -0.9461  0.5333 -1.4705
   7323SM  C18S 9592   5.842   3.501   6.382  0.5721  0.5347 -0.9470
   7323SM  H18S 9593   5.924   3.562   6.339  1.3793 -0.1349 -0.3824
   7323SM  H18T 9594   5.886   3.407   6.422 -1.2478 -0.0651 -0.2260
   7323SM  H18U 9595   5.790   3.553   6.466 -1.0078 -1.7866 -0.3839
   7323SM   C1F 9596   5.213   2.692   7.295  0.1063  0.2057  0.4626
   7323SM    OF 9597   5.111   2.623   7.296  0.2912  0.3483 -0.5164
   7323SM   C2F 9598   5.356   2.655   7.277 -0.7079 -0.1464 -0.2183
   7323SM   H2F 9599   5.421   2.699   7.355 -1.2969 -0.0894  0.2532
   7323SM   H2G 9600   5.390   2.697   7.180 -0.8893 -1.9050 -1.0794
   7323SM   C3F 9601   5.379   2.506   7.283  0.8228 -0.3370  0.1443
   7323SM   H3F 9602   5.308   2.451   7.217  0.3311 -0.2925  0.6347
   7323SM   H3G 9603   5.365   2.461   7.383 -0.0194 -1.5141 -0.4695
   7323SM   C4F 9604   5.519   2.462   7.221  0.3440 -0.1528 -0.5217
   7323SM   H4F 9605   5.514   2.351   7.232 -0.1393 -0.0757  0.1400
   7323SM   H4G 9606   5.595   2.510   7.286 -0.8896  0.7838  0.2848
   7323SM   C5F 9607   5.534   2.487   7.063 -0.0460 -1.2489 -0.9719
   7323SM   H5F 9608   5.630   2.436   7.042  0.1554 -2.3907  2.2316
   7323SM   H5G 9609   5.552   2.597   7.063  2.0313 -1.5191  1.7530
   7323SM   C6F 9610   5.423   2.441   6.975  0.5980  0.4968 -0.1131
   7323SM   H6F 9611   5.337   2.510   6.983  0.2509  0.0257  0.2328
   7323SM   H6G 9612   5.382   2.342   7.002  0.5912 -0.2870 -2.6653
   7323SM   C7F 9613   5.453   2.431   6.817  0.2385  0.0946 -0.1775
   7323SM   H7F 9614   5.544   2.371   6.796  1.0408  1.5355 -0.9927
   7323SM   H7G 9615   5.478   2.533   6.781  1.9289 -0.1376  0.2862
   7323SM   C8F 9616   5.342   2.367   6.738 -0.1325 -0.4606  0.0786
   7323SM   H8F 9617   5.247   2.408   6.778 -0.0980  1.2791 -1.4969
   7323SM   H8G 9618   5.344   2.258   6.762 -1.1353 -0.4603  0.2075
   7323SM   C9F 9619   5.343   2.395   6.583 -0.1896 -0.9017 -0.1457
   7323SM   H9F 9620   5.323   2.503   6.565  0.9101 -0.2165  2.3481
   7323SM   H9G 9621   5.251   2.342   6.551 -0.5332  0.0138 -0.7043
   7323SM  C10F 9622   5.463   2.342   6.511  0.7346 -0.5046  0.0603
   7323SM  H10F 9623   5.479   2.234   6.536  0.6201 -0.4975  0.1641
   7323SM  H10G 9624   5.554   2.401   6.536  0.6195  0.4342 -1.6315
   7323SM  C11F 9625   5.439   2.361   6.360  0.4255  0.2460  0.0902
   7323SM  H11F 9626   5.451   2.469   6.336 -2.1149  0.6013  0.0464
   7323SM  H11G 9627   5.335   2.324   6.343  0.9017 -1.2487  0.3162
   7323SM  C12F 9628   5.540   2.303   6.260  0.2007 -0.0858  0.0178
   7323SM  H12F 9629   5.590   2.217   6.310  0.7281  1.2003  1.8088
   7323SM  H12G 9630   5.615   2.384   6.244 -2.2809  2.2780 -0.3745
   7323SM  C13F 9631   5.472   2.264   6.128  0.4115 -0.0411  0.0967
   7323SM  H13F 9632   5.393   2.191   6.157  0.6738  0.3834  1.9887
   7323SM  H13G 9633   5.540   2.212   6.057  0.8652  0.9620 -0.2219
   7323SM  C14F 9634   5.405   2.385   6.060 -0.2925 -0.0604  0.2386
   7323SM  H14F 9635   5.473   2.464   6.019  1.0934 -1.3379 -0.0113
   7323SM  H14G 9636   5.344   2.432   6.139  2.3374  4.9567 -0.2908
   7323SM  C15F 9637   5.318   2.334   5.955  0.4518 -0.1995  0.1182
   7323SM  H15F 9638   5.265   2.244   5.993  1.5806 -1.2948 -0.7984
   7323SM  H15G 9639   5.378   2.298   5.869  0.8927 -1.0761  0.7714
   7323SM  C16F 9640   5.218   2.442   5.917  0.0735 -0.3775 -0.6639
   7323SM  H16F 9641   5.271   2.535   5.888  1.6125 -1.6852 -2.2672
   7323SM  H16G 9642   5.166   2.479   6.007 -0.2742  0.6314 -1.2675
   7323SM  C17F 9643   5.112   2.399   5.818  0.6414  0.3413  0.1608
   7323SM  H17F 9644   5.163   2.368   5.725 -0.4481  2.2882 -1.1578
   7323SM  H17G 9645   5.056   2.491   5.791 -0.5265 -0.5701 -0.6296
   7323SM  C18F 9646   5.021   2.273   5.848  0.0557  0.0486 -0.0990
   7323SM  H18F 9647   4.975   2.283   5.949  2.7175  0.7932  1.1304
   7323SM  H18G 9648   5.085   2.182   5.849 -1.6575 -1.2052  0.2254
   7323SM  C19F 9649   4.912   2.247   5.738 -0.4068 -0.3027 -0.4669
   7323SM  H19F 9650   4.847   2.337   5.738  2.4901  1.9346  0.0368
   7323SM  H19G 9651   4.852   2.156   5.761 -0.7755  0.1457  0.3996
   7323SM  C20F 9652   4.957   2.231   5.591  0.5055 -0.2752 -0.0768
   7323SM  H20F 9653   4.997   2.330   5.561  3.0304 -0.3791  2.5001
   7323SM  H20G 9654   4.860   2.220   5.538  0.9390 -0.1186 -0.9092
   7323SM  C21F 9655   5.047   2.113   5.559 -0.4104 -0.3289  0.3660
   7323SM  H21F 9656   5.149   2.134   5.598  0.1585 -1.8035 -0.2462
   7323SM  H21G 9657   5.052   2.113   5.448 -2.5739  0.3670  0.2295
   7323SM  C22F 9658   4.991   1.982   5.611 -0.3929  0.4194 -0.7150
   7323SM  H22F 9659   4.986   1.989   5.722  1.6960  2.0125 -0.6583
   7323SM  H22G 9660   5.061   1.896   5.603  0.5942  1.2995 -2.0510
   7323SM  C23F 9661   4.853   1.928   5.560 -0.1247 -0.2554  0.3198
   7323SM  H23F 9662   4.831   1.833   5.614 -1.0190 -0.7776 -0.9153
   7323SM  H23G 9663   4.859   1.897   5.453 -0.0249 -0.0830  0.2756
   7323SM  H23H 9664   4.766   1.996   5.556  0.0748 -0.0610 -2.2408
   7423SM     N 9665   1.406   4.505   6.716 -0.1116  0.1283 -0.1359
   7423SM   C15 9666   1.356   4.502   6.574  0.0880 -0.3867  0.2464
   7423SM  H15A 9667   1.292   4.420   6.546 -0.2456  0.3928 -1.3940
   7423SM  H15B 9668   1.449   4.497   6.519 -2.4080 -0.6231 -4.4136
   7423SM  H15C 9669   1.318   4.599   6.544 -1.9554 -1.7858 -2.0346
   7423SM   C14 9670   1.498   4.390   6.746  0.0646  0.3217  0.1671
   7423SM  H14A 9671   1.591   4.406   6.693  0.2103 -1.5794 -0.2019
   7423SM  H14B 9672   1.450   4.299   6.712 -2.8051  0.8549  2.4359
   7423SM  H14C 9673   1.533   4.378   6.847 -0.7885  2.1030  0.7248
   7423SM   C13 9674   1.483   4.630   6.734  0.3272 -0.0947 -0.8779
   7423SM  H13A 9675   1.566   4.639   6.665  1.1072 -0.7829 -0.0593
   7423SM  H13B 9676   1.518   4.655   6.833 -1.7440  0.7054 -0.3064
   7423SM  H13C 9677   1.420   4.708   6.695  0.6301  0.4671 -0.2619
   7423SM   C12 9678   1.289   4.504   6.808  0.4119  0.5551 -0.0726
   7423SM  H12A 9679   1.335   4.501   6.905  1.3057 -3.8040 -0.4299
   7423SM  H12B 9680   1.240   4.408   6.799 -0.7337  0.8222  2.4666
   7423SM   C11 9681   1.187   4.611   6.794 -0.4868  0.8352 -0.2307
   7423SM  H11A 9682   1.107   4.590   6.868  0.4289 -2.6502 -0.0286
   7423SM  H11B 9683   1.141   4.618   6.694  1.2698  1.0776 -1.0535
   7423SM     P 9684   1.170   4.871   6.804  0.4067  0.3307  0.0715
   7423SM   O13 9685   1.121   4.900   6.941  0.2384  0.1693  0.0234
   7423SM   O14 9686   1.255   4.979   6.743 -0.3125 -0.3189 -0.3498
   7423SM   O11 9687   1.043   4.850   6.710  0.0283 -0.3710 -0.4448
   7423SM   O12 9688   1.251   4.733   6.814  0.6417 -0.5381  0.1999
   7423SM   C1S 9689   1.070   4.852   6.571 -0.9075  0.4563 -0.2307
   7423SM   H1S 9690   1.166   4.802   6.546 -0.3972  1.2518  0.0997
   7423SM   H1T 9691   1.092   4.954   6.533  3.7261 -0.3928 -0.5122
   7423SM    NF 9692   0.982   4.819   6.338  0.4035 -0.0708 -0.2832
   7423SM   HNF 9693   0.955   4.902   6.290 -0.5690 -0.5724 -0.6401
   7423SM   C2S 9694   0.947   4.801   6.484  0.1330 -0.5220  0.7471
   7423SM   H2S 9695   0.961   4.693   6.507  2.4789  0.0708  2.4265
   7423SM   C3S 9696   0.813   4.874   6.533  0.3900 -0.1130 -0.3966
   7423SM   H3S 9697   0.845   4.978   6.558  1.4362  0.1799 -2.7065
   7423SM    O3 9698   0.765   4.807   6.654 -0.5372 -0.6030 -0.3563
   7423SM   HO3 9699   0.845   4.785   6.702 -0.5942 -0.7055 -0.3074
   7423SM   C4S 9700   0.710   4.882   6.425 -0.2011  0.5869 -0.1621
   7423SM   H4S 9701   0.704   4.981   6.378 -2.2038  0.6714  0.1501
   7423SM   C5S 9702   0.621   4.790   6.378 -0.0917  0.1642  0.6186
   7423SM   H5S 9703   0.620   4.685   6.414  1.1288 -0.0591  0.0476
   7423SM   C6S 9704   0.517   4.819   6.269 -0.9731  0.9601 -0.0011
   7423SM   H6S 9705   0.549   4.755   6.184  2.0452 -1.2179  2.5205
   7423SM   H6T 9706   0.526   4.925   6.238  1.4293  0.7662 -0.1482
   7423SM   C7S 9707   0.364   4.790   6.322  0.1497 -0.3664 -0.0248
   7423SM   H7S 9708   0.360   4.834   6.424  1.4415  1.0137 -0.5343
   7423SM   H7T 9709   0.352   4.682   6.345  2.5784 -0.3359  1.8107
   7423SM   C8S 9710   0.252   4.844   6.229  0.5873  1.1033 -1.0864
   7423SM   H8S 9711   0.262   4.954   6.212  0.6481  1.1855 -0.5330
   7423SM   H8T 9712   0.155   4.843   6.282  1.6465  0.0039  0.9296
   7423SM   C9S 9713   0.230   4.761   6.105 -0.0950 -0.2007  0.4663
   7423SM   H9S 9714   0.235   4.654   6.133  0.5770 -0.6213 -1.1048
   7423SM   H9T 9715   0.312   4.773   6.031 -0.1558 -1.2733  0.2052
   7423SM  C10S 9716   0.093   4.790   6.040  0.5351 -0.4411  0.0262
   7423SM  H10S 9717   0.090   4.901   6.034  0.9377 -0.4707 -1.0478
   7423SM  H10T 9718   0.009   4.761   6.107 -0.1438  0.2468 -0.5117
   7423SM  C11S 9719   0.075   4.726   5.899 -0.5377 -0.7168 -0.8271
   7423SM  H11S 9720   0.063   4.616   5.914 -0.8711 -0.4578  1.0210
   7423SM  H11T 9721   0.163   4.756   5.838  0.3356  2.2094  1.6189
   7423SM  C12S 9722  -0.050   4.780   5.835 -0.7605 -0.3730  0.5963
   7423SM  H12S 9723  -0.038   4.885   5.802 -0.7808  0.1192  2.0845
   7423SM  H12T 9724  -0.134   4.776   5.908 -2.9666  1.2900 -1.7041
   7423SM  C13S 9725  -0.092   4.698   5.706 -0.2796  0.1447 -0.2535
   7423SM  H13S 9726  -0.119   4.594   5.735  0.6611  0.8723  3.9489
   7423SM  H13T 9727  -0.001   4.689   5.643  0.4051 -1.2238  0.8782
   7423SM  C14S 9728  -0.211   4.765   5.633 -0.5544 -0.0995 -0.4310
   7423SM  H14S 9729  -0.172   4.858   5.587  0.0157  0.7268  1.5960
   7423SM  H14T 9730  -0.292   4.795   5.703 -0.7804 -0.7200 -0.4134
   7423SM  C15S 9731  -0.270   4.672   5.525 -0.1044  0.5595 -0.4749
   7423SM  H15S 9732  -0.336   4.604   5.583 -1.3663  2.1350  0.0406
   7423SM  H15T 9733  -0.192   4.608   5.479 -0.9587 -1.1980  0.4485
   7423SM  C16S 9734  -0.354   4.747   5.425  0.0942 -0.8541 -0.0242
   7423SM  H16S 9735  -0.286   4.809   5.363 -2.0195  2.0744  0.3134
   7423SM  H16T 9736  -0.417   4.821   5.480  2.2763  0.2116  1.1938
   7423SM  C17S 9737  -0.427   4.647   5.331  0.3130 -0.5155  0.4790
   7423SM  H17S 9738  -0.465   4.558   5.384  0.2180 -0.4759  0.4771
   7423SM  H17T 9739  -0.357   4.607   5.254 -0.3562 -0.0680 -0.3776
   7423SM  C18S 9740  -0.541   4.713   5.251  0.0437 -0.7011 -0.7284
   7423SM  H18S 9741  -0.508   4.798   5.187 -1.1041  1.2020  1.0644
   7423SM  H18T 9742  -0.616   4.739   5.329 -0.5548 -0.7546 -1.2826
   7423SM  H18U 9743  -0.588   4.632   5.191 -1.4084 -1.0682  0.8159
   7423SM   C1F 9744   1.085   4.743   6.291  0.2451 -1.0388 -0.2491
   7423SM    OF 9745   1.123   4.642   6.351 -0.4186 -0.1877 -0.3659
   7423SM   C2F 9746   1.154   4.793   6.170  0.5454  0.0030  0.1943
   7423SM   H2F 9747   1.258   4.759   6.185  0.4716 -0.8645 -1.1373
   7423SM   H2G 9748   1.152   4.904   6.174  1.9361  0.0997 -0.9291
   7423SM   C3F 9749   1.092   4.731   6.043 -0.0964 -0.3835 -0.1851
   7423SM   H3F 9750   1.120   4.625   6.054 -1.1778 -0.5924  0.7181
   7423SM   H3G 9751   1.144   4.769   5.952 -0.5738 -0.2846 -0.4237
   7423SM   C4F 9752   0.934   4.741   6.011 -0.8215 -0.0658  0.6754
   7423SM   H4F 9753   0.892   4.835   6.054 -3.2105  0.1488 -1.8880
   7423SM   H4G 9754   0.886   4.656   6.064  1.1924 -1.9383 -0.3268
   7423SM   C5F 9755   0.900   4.734   5.859  0.3848  0.2914  0.4081
   7423SM   H5F 9756   0.979   4.664   5.821  0.7348  0.5208  0.7104
   7423SM   H5G 9757   0.923   4.828   5.805  0.3725  0.1548  0.1628
   7423SM   C6F 9758   0.754   4.688   5.818 -0.6297 -0.0043 -0.3107
   7423SM   H6F 9759   0.751   4.578   5.828  2.2068 -0.3044 -1.7110
   7423SM   H6G 9760   0.740   4.718   5.712 -1.4137  0.0720 -0.1886
   7423SM   C7F 9761   0.645   4.748   5.908  0.2119 -0.4886  0.0487
   7423SM   H7F 9762   0.681   4.730   6.012  1.6926  0.6646 -0.2347
   7423SM   H7G 9763   0.554   4.691   5.880  1.4531 -2.0121 -1.0388
   7423SM   C8F 9764   0.632   4.893   5.887 -0.4717  0.0297  0.1631
   7423SM   H8F 9765   0.727   4.946   5.910 -0.5708 -0.0535  0.7833
   7423SM   H8G 9766   0.551   4.925   5.956 -1.3702  1.0345 -1.3086
   7423SM   C9F 9767   0.574   4.940   5.752 -0.4915 -0.6975  0.7058
   7423SM   H9F 9768   0.626   4.910   5.658 -1.9035  0.7507 -0.6111
   7423SM   H9G 9769   0.580   5.051   5.757 -0.3302 -0.6944  0.4750
   7423SM  C10F 9770   0.424   4.902   5.733  0.6358 -0.0215 -0.3503
   7423SM  H10F 9771   0.375   4.931   5.828  1.0521 -0.1624 -0.0872
   7423SM  H10G 9772   0.404   4.793   5.726  0.2846  0.0924 -1.2331
   7423SM  C11F 9773   0.355   4.981   5.617  0.2571 -0.4090 -0.1856
   7423SM  H11F 9774   0.250   4.950   5.635 -0.3305  2.4582  2.1370
   7423SM  H11G 9775   0.399   4.939   5.524  1.7961 -1.5850  1.0014
   7423SM  C12F 9776   0.369   5.133   5.634  0.4871  0.4005 -0.5007
   7423SM  H12F 9777   0.477   5.159   5.634  0.9289 -1.3064  0.1431
   7423SM  H12G 9778   0.322   5.162   5.731 -1.1403 -0.5445 -0.9657
   7423SM  C13F 9779   0.316   5.208   5.512  0.4591  0.1847 -0.6875
   7423SM  H13F 9780   0.300   5.315   5.536  2.8241  0.0668  2.0526
   7423SM  H13G 9781   0.220   5.160   5.484  0.3757 -0.9841  1.3474
   7423SM  C14F 9782   0.414   5.198   5.394 -0.3100 -0.1627 -0.0042
   7423SM  H14F 9783   0.451   5.096   5.374  0.0301 -0.2468  1.0032
   7423SM  H14G 9784   0.496   5.266   5.425 -1.6240  1.4351  0.1642
   7423SM  C15F 9785   0.350   5.253   5.264 -0.0209  0.0480  0.3908
   7423SM  H15F 9786   0.286   5.339   5.293 -0.5786  0.0178 -0.6734
   7423SM  H15G 9787   0.294   5.174   5.209  1.1448 -0.4016 -0.1884
   7423SM  C16F 9788   0.461   5.305   5.174 -0.1277  0.0180  0.0134
   7423SM  H16F 9789   0.529   5.226   5.136  1.5144  0.6049  1.6068
   7423SM  H16G 9790   0.525   5.375   5.232 -0.4060  0.7263 -0.5215
   7423SM  C17F 9791   0.394   5.383   5.058  0.0089 -0.6052  0.1827
   7423SM  H17F 9792   0.310   5.446   5.094  0.7951  1.0601 -0.7851
   7423SM  H17G 9793   0.346   5.313   4.986 -1.9038  1.0311 -0.2298
   7423SM  C18F 9794   0.496   5.480   4.986 -0.0573  0.1455  0.5205
   7423SM  H18F 9795   0.524   5.555   5.063 -0.2214  1.4471 -0.6495
   7423SM  H18G 9796   0.441   5.537   4.908  0.2219  0.8071  0.8011
   7423SM  C19F 9797   0.619   5.403   4.925 -0.2376  0.4777 -0.4415
   7423SM  H19F 9798   0.581   5.355   4.832  0.2053 -1.1035  0.1637
   7423SM  H19G 9799   0.655   5.320   4.988  0.7756 -1.6640 -3.5866
   7423SM  C20F 9800   0.736   5.497   4.889  1.2007 -0.1343 -0.6233
   7423SM  H20F 9801   0.751   5.556   4.982 -0.6018 -1.8902  0.8782
   7423SM  H20G 9802   0.716   5.566   4.804  1.7799  0.6091 -0.1725
   7423SM  C21F 9803   0.868   5.430   4.848  0.8902 -0.5404  0.9209
   7423SM  H21F 9804   0.899   5.379   4.942 -0.9469 -0.0785  1.8178
   7423SM  H21G 9805   0.929   5.513   4.808 -1.0742 -0.9812 -3.5873
   7423SM  C22F 9806   0.851   5.324   4.727 -0.2040  0.1282  0.0510
   7423SM  H22F 9807   0.796   5.374   4.645  0.3123 -0.4428 -0.6515
   7423SM  H22G 9808   0.783   5.245   4.767 -0.3978 -0.2543 -1.0010
   7423SM  C23F 9809   0.984   5.264   4.693 -0.9176  0.2414  0.3706
   7423SM  H23F 9810   1.064   5.325   4.740 -0.0294 -1.3654  1.0235
   7423SM  H23G 9811   1.011   5.266   4.586 -1.3340  1.4769  0.2641
   7423SM  H23H 9812   1.010   5.162   4.728 -2.8790 -0.5573 -0.3219
   7523SM     N 9813   6.982   4.837   7.847 -0.2699  0.6098 -0.6959
   7523SM   C15 9814   7.022   4.943   7.944  0.2616  0.4747 -0.0371
   7523SM  H15A 9815   6.951   5.023   7.933 -0.9488 -0.5378  0.0717
   7523SM  H15B 9816   7.120   4.981   7.923 -0.2367  1.4149 -0.7294
   7523SM  H15C 9817   7.021   4.915   8.048 -0.9481 -1.2862 -0.4808
   7523SM   C14 9818   7.085   4.723   7.865  0.6634  0.1799 -0.3148
   7523SM  H14A 9819   7.093   4.697   7.969  2.2666  0.6219 -0.2909
   7523SM  H14B 9820   7.182   4.754   7.827 -0.0779  2.5875 -0.4222
   7523SM  H14C 9821   7.050   4.629   7.825  1.4927 -0.0954 -0.4137
   7523SM   C13 9822   6.852   4.784   7.900  0.3455 -0.3928 -0.0077
   7523SM  H13A 9823   6.856   4.777   8.008  2.1346 -1.4377 -0.0979
   7523SM  H13B 9824   6.827   4.687   7.858  0.3837 -0.2578 -0.3429
   7523SM  H13C 9825   6.766   4.847   7.882  0.0752 -0.0691  2.1632
   7523SM   C12 9826   6.974   4.883   7.702  0.0924 -0.4430 -0.2314
   7523SM  H12A 9827   6.966   4.796   7.639  0.1463  0.1681 -1.0927
   7523SM  H12B 9828   7.071   4.921   7.675 -0.2571 -0.0143 -0.9149
   7523SM   C11 9829   6.875   4.998   7.678 -0.8520 -0.2467 -0.0713
   7523SM  H11A 9830   6.783   4.978   7.736 -1.1543 -0.4459 -0.6062
   7523SM  H11B 9831   6.839   5.011   7.573  0.0436  2.1099 -0.1444
   7523SM     P 9832   7.046   5.186   7.628 -0.1161 -0.3323  0.1433
   7523SM   O13 9833   7.059   5.325   7.677  0.1448  0.0333  0.5341
   7523SM   O14 9834   7.168   5.101   7.637 -0.1307  0.5691  0.5589
   7523SM   O11 9835   6.992   5.179   7.483 -0.2003 -0.3161 -0.7140
   7523SM   O12 9836   6.933   5.121   7.714 -0.3828 -0.0356  0.1802
   7523SM   C1S 9837   7.043   5.271   7.382 -0.1725 -0.1628  0.0432
   7523SM   H1S 9838   7.154   5.271   7.377 -0.2131  0.8558 -2.4356
   7523SM   H1T 9839   7.004   5.374   7.395 -0.5443  0.0290 -2.1913
   7523SM    NF 9840   7.051   5.337   7.144 -0.3664 -0.5061 -0.5933
   7523SM   HNF 9841   6.979   5.400   7.117 -1.6105 -1.7064 -0.1737
   7523SM   C2S 9842   7.008   5.225   7.239  0.3965 -0.4956  0.6563
   7523SM   H2S 9843   7.062   5.135   7.204  0.3130  0.2741 -1.5839
   7523SM   C3S 9844   6.859   5.187   7.221  0.2519 -0.5319 -0.1041
   7523SM   H3S 9845   6.795   5.274   7.248 -0.4974 -0.9228 -0.6228
   7523SM    O3 9846   6.822   5.086   7.315  0.7518 -0.4616  0.1326
   7523SM   HO3 9847   6.885   5.094   7.386  1.2988  0.9449 -0.4582
   7523SM   C4S 9848   6.814   5.148   7.081  0.6816 -0.1437  0.1537
   7523SM   H4S 9849   6.876   5.077   7.026  0.3116  0.2290 -0.7571
   7523SM   C5S 9850   6.703   5.193   7.021 -0.1364 -0.2646  0.4669
   7523SM   H5S 9851   6.630   5.255   7.074  1.7845  1.9263  0.6912
   7523SM   C6S 9852   6.668   5.142   6.882 -0.3586  0.2754  0.7843
   7523SM   H6S 9853   6.567   5.167   6.841  0.6220  1.0708 -1.2769
   7523SM   H6T 9854   6.693   5.034   6.875 -0.5319  0.1887  1.4390
   7523SM   C7S 9855   6.759   5.215   6.774  0.1569  1.0888 -0.2377
   7523SM   H7S 9856   6.767   5.146   6.687 -1.0903 -1.2455  1.4045
   7523SM   H7T 9857   6.862   5.217   6.815 -0.1139  0.5214  0.4975
   7523SM   C8S 9858   6.712   5.351   6.719 -0.2936 -0.0650  0.0589
   7523SM   H8S 9859   6.718   5.415   6.810  1.6157 -1.5399  1.0617
   7523SM   H8T 9860   6.608   5.353   6.680 -0.1512  0.9758 -0.3137
   7523SM   C9S 9861   6.803   5.402   6.612  0.2545  0.0634  0.3001
   7523SM   H9S 9862   6.788   5.336   6.525 -0.6937 -0.5194  0.8911
   7523SM   H9T 9863   6.908   5.407   6.648 -0.4911  1.2390  2.5781
   7523SM  C10S 9864   6.758   5.538   6.564  0.5442 -0.6393 -0.3659
   7523SM  H10S 9865   6.761   5.598   6.657  0.4518  3.7687 -2.9458
   7523SM  H10T 9866   6.661   5.534   6.511  0.0483  3.2058 -0.0402
   7523SM  C11S 9867   6.866   5.597   6.480 -0.2466  0.3855  0.4976
   7523SM  H11S 9868   6.886   5.527   6.396 -0.9962 -0.7532  1.2405
   7523SM  H11T 9869   6.964   5.599   6.532 -0.5566  0.7548  1.0664
   7523SM  C12S 9870   6.837   5.745   6.433  0.3306 -0.0357  0.5833
   7523SM  H12S 9871   6.817   5.797   6.529 -3.3218  1.0561 -0.6136
   7523SM  H12T 9872   6.747   5.756   6.369 -0.6954 -1.4089  1.7052
   7523SM  C13S 9873   6.956   5.795   6.352 -0.4074  0.2416  0.7142
   7523SM  H13S 9874   6.939   5.738   6.259 -0.4762  0.0847  0.8223
   7523SM  H13T 9875   7.049   5.755   6.398 -1.3092  0.0194  2.4204
   7523SM  C14S 9876   6.968   5.946   6.326 -0.2123  0.3731 -0.5473
   7523SM  H14S 9877   6.967   5.989   6.429  1.2394 -0.7906 -0.0109
   7523SM  H14T 9878   6.874   5.979   6.277 -1.1974 -2.0612 -0.4090
   7523SM  C15S 9879   7.093   5.977   6.248  0.1430 -0.4930 -0.6923
   7523SM  H15S 9880   7.181   5.938   6.303  0.6794  1.8609  0.2338
   7523SM  H15T 9881   7.104   6.087   6.250  0.7512 -0.5330  2.0235
   7523SM  C16S 9882   7.085   5.940   6.100 -0.2264  0.6949 -0.2414
   7523SM  H16S 9883   7.070   5.832   6.081  0.6465  0.5353 -0.0770
   7523SM  H16T 9884   7.178   5.967   6.046 -0.3707  1.4829 -0.1160
   7523SM  C17S 9885   6.969   5.996   6.022 -0.2198  0.1908 -0.2950
   7523SM  H17S 9886   6.949   6.100   6.055 -2.6152  0.0740 -1.1718
   7523SM  H17T 9887   6.879   5.941   6.055 -1.1219  0.2839 -2.4112
   7523SM  C18S 9888   6.976   5.979   5.867 -0.5349  0.7745 -0.3511
   7523SM  H18S 9889   6.890   6.023   5.812 -1.5228  0.2193  0.6891
   7523SM  H18T 9890   6.968   5.871   5.839 -0.4530  0.4919  0.6709
   7523SM  H18U 9891   7.072   6.025   5.838  1.0433 -2.1321 -0.0871
   7523SM   C1F 9892   7.179   5.369   7.127 -0.2615  0.3809  0.9435
   7523SM    OF 9893   7.264   5.301   7.187  0.3482  0.5657  0.1102
   7523SM   C2F 9894   7.209   5.477   7.025  0.1569  0.0641 -0.3778
   7523SM   H2F 9895   7.187   5.573   7.076 -2.6458 -0.2871 -0.7454
   7523SM   H2G 9896   7.145   5.466   6.934 -0.1020  1.7640 -0.4366
   7523SM   C3F 9897   7.361   5.473   6.984  0.3224 -0.0170 -0.2550
   7523SM   H3F 9898   7.375   5.390   6.911  1.2459  0.1424 -0.2670
   7523SM   H3G 9899   7.419   5.464   7.079 -0.3889  0.5314  0.2373
   7523SM   C4F 9900   7.416   5.603   6.930 -0.4391 -0.3645  1.1672
   7523SM   H4F 9901   7.381   5.698   6.974  0.2190  1.6092 -2.2080
   7523SM   H4G 9902   7.376   5.607   6.827  0.1144 -0.1184  0.9587
   7523SM   C5F 9903   7.571   5.612   6.923 -0.4541  0.5883  0.4017
   7523SM   H5F 9904   7.604   5.627   7.028 -0.7276  2.8889  0.2195
   7523SM   H5G 9905   7.602   5.707   6.874 -0.2215 -1.1845 -3.1564
   7523SM   C6F 9906   7.633   5.496   6.855 -0.0661  0.1394  0.1923
   7523SM   H6F 9907   7.633   5.408   6.922  1.8383  0.6049  0.8733
   7523SM   H6G 9908   7.742   5.513   6.835  0.1829 -0.5010  0.9543
   7523SM   C7F 9909   7.581   5.450   6.715 -0.0660  0.0967 -0.2544
   7523SM   H7F 9910   7.555   5.539   6.655 -1.0162 -0.0210 -0.0317
   7523SM   H7G 9911   7.497   5.381   6.739 -0.7541  0.9622 -0.1157
   7523SM   C8F 9912   7.689   5.366   6.646 -0.5064 -0.2620  0.3499
   7523SM   H8F 9913   7.729   5.296   6.723 -0.1740 -0.7303 -0.2427
   7523SM   H8G 9914   7.773   5.432   6.614 -1.4473  0.3070 -1.0650
   7523SM   C9F 9915   7.633   5.291   6.524  0.0742 -0.0350 -0.5592
   7523SM   H9F 9916   7.582   5.367   6.460  1.0499 -0.9823 -2.5608
   7523SM   H9G 9917   7.564   5.214   6.565  1.4931 -0.1167  1.8067
   7523SM  C10F 9918   7.738   5.215   6.440  0.2586  0.7411 -0.6639
   7523SM  H10F 9919   7.773   5.141   6.516 -3.0884 -1.1707 -0.7899
   7523SM  H10G 9920   7.820   5.285   6.414  2.6035 -1.1771  1.1271
   7523SM  C11F 9921   7.679   5.139   6.313  0.4928 -0.1354  0.2115
   7523SM  H11F 9922   7.747   5.066   6.263 -2.4691 -1.1820 -2.6525
   7523SM  H11G 9923   7.658   5.217   6.237  1.2662  0.6859  0.8222
   7523SM  C12F 9924   7.541   5.068   6.345 -0.0548 -0.4870 -0.0659
   7523SM  H12F 9925   7.465   5.149   6.350 -0.4803 -0.9214  0.5571
   7523SM  H12G 9926   7.554   5.028   6.448 -0.9067  0.8812  0.6076
   7523SM  C13F 9927   7.486   4.963   6.247 -0.3631  0.2888  0.2335
   7523SM  H13F 9928   7.391   4.916   6.282  0.2758 -0.3017  1.2184
   7523SM  H13G 9929   7.564   4.884   6.251 -2.8619 -2.3303  2.6583
   7523SM  C14F 9930   7.460   5.015   6.103  0.1322  0.1322 -0.0044
   7523SM  H14F 9931   7.458   4.919   6.047 -2.7499  0.7676 -1.1720
   7523SM  H14G 9932   7.541   5.079   6.063  0.1726 -0.1323 -0.3478
   7523SM  C15F 9933   7.321   5.063   6.087  0.8097  0.4207 -1.1893
   7523SM  H15F 9934   7.297   5.141   6.163 -0.8443 -2.2071  1.2110
   7523SM  H15G 9935   7.245   4.984   6.101  0.0243  1.0540 -1.8299
   7523SM  C16F 9936   7.289   5.123   5.947  0.6256 -1.1541 -0.5848
   7523SM  H16F 9937   7.326   5.051   5.870  1.4028 -0.4223 -0.9104
   7523SM  H16G 9938   7.342   5.220   5.934 -0.2540 -0.5342  0.3022
   7523SM  C17F 9939   7.145   5.162   5.918 -0.0763 -0.4855 -0.1352
   7523SM  H17F 9940   7.140   5.266   5.877  0.6061  1.2291  3.6975
   7523SM  H17G 9941   7.076   5.169   6.005  2.1110 -0.7405  1.6994
   7523SM  C18F 9942   7.064   5.078   5.810  0.0076  0.0194  0.5976
   7523SM  H18F 9943   7.112   5.082   5.710 -2.0544 -0.6348 -0.4782
   7523SM  H18G 9944   6.973   5.143   5.802  0.3957  0.5566  0.4676
   7523SM  C19F 9945   7.025   4.928   5.846 -0.6126  0.5699 -0.2219
   7523SM  H19F 9946   7.115   4.862   5.844  0.9059  2.4481  1.4156
   7523SM  H19G 9947   6.957   4.899   5.763  1.0282  1.5663 -2.0101
   7523SM  C20F 9948   6.964   4.904   5.985  0.0477  0.0576 -0.2404
   7523SM  H20F 9949   7.036   4.923   6.067  0.8694 -2.3542 -0.3319
   7523SM  H20G 9950   6.942   4.795   5.989  0.9068 -0.1305 -0.3624
   7523SM  C21F 9951   6.829   4.985   6.007 -0.1206  0.9589  0.6135
   7523SM  H21F 9952   6.761   4.955   5.925 -0.5531 -0.0015  1.3151
   7523SM  H21G 9953   6.868   5.087   5.986  4.4252 -0.6627 -0.0031
   7523SM  C22F 9954   6.758   4.952   6.141 -0.0292 -0.6768 -0.1798
   7523SM  H22F 9955   6.715   4.850   6.130 -0.2017 -0.8259  1.5801
   7523SM  H22G 9956   6.666   5.012   6.155  1.4879  1.2049  2.7508
   7523SM  C23F 9957   6.839   4.960   6.273  0.2156  0.7544 -0.5159
   7523SM  H23F 9958   6.848   5.069   6.291  0.0154  0.5909  0.6690
   7523SM  H23G 9959   6.936   4.907   6.264 -1.0221 -1.7858  0.0478
   7523SM  H23H 9960   6.780   4.908   6.352  2.7582  0.7058  1.4590
   7623SM     N 9961   0.264   5.960   7.512  0.3947 -0.5161  0.2358
   7623SM   C15 9962   0.165   5.868   7.578 -0.2133 -0.0044 -0.7362
   7623SM  H15A 9963   0.216   5.777   7.603 -0.1722  0.2226  0.0337
   7623SM  H15B 9964   0.083   5.843   7.512  0.0889 -1.4520 -0.5765
   7623SM  H15C 9965   0.129   5.910   7.671 -2.1497  1.1106 -1.9189
   7623SM   C14 9966   0.184   6.086   7.500 -0.1989 -0.0734 -0.3255
   7623SM  H14A 9967   0.241   6.161   7.446 -1.7552  1.9602  0.7033
   7623SM  H14B 9968   0.173   6.127   7.599  2.9086 -0.7566  0.4027
   7623SM  H14C 9969   0.089   6.070   7.450 -0.8973 -1.3985  1.3326
   7623SM   C13 9970   0.388   5.979   7.591 -0.4258  0.4822 -0.0576
   7623SM  H13A 9971   0.455   6.051   7.548 -0.6624  1.5682  1.3217
   7623SM  H13B 9972   0.447   5.888   7.587 -1.7900 -0.5296  1.3809
   7623SM  H13C 9973   0.364   6.008   7.692 -1.9575 -1.1499  0.0994
   7623SM   C12 9974   0.292   5.916   7.369 -0.5000  0.4434  0.1193
   7623SM  H12A 9975   0.333   6.002   7.318  3.5823 -1.0565  0.5621
   7623SM  H12B 9976   0.200   5.890   7.319  0.4095 -1.1475 -0.7957
   7623SM   C11 9977   0.387   5.796   7.339 -0.2769 -0.0954 -0.0493
   7623SM  H11A 9978   0.487   5.817   7.385 -1.0593  1.1781  1.1746
   7623SM  H11B 9979   0.405   5.794   7.230 -1.0415 -2.4247 -0.1887
   7623SM     P 9980   0.332   5.541   7.295 -0.0279  0.0379  0.1079
   7623SM   O13 9981   0.457   5.461   7.317 -0.0396 -0.3026  0.1337
   7623SM   O14 9982   0.208   5.472   7.312  0.4035  0.0787 -0.2087
   7623SM   O11 9983   0.321   5.591   7.146 -0.6050 -0.6288 -0.5557
   7623SM   O12 9984   0.337   5.672   7.383 -0.1658 -0.6252 -0.0891
   7623SM   C1S 9985   0.400   5.517   7.044  0.2987 -0.6049  0.1448
   7623SM   H1S 9986   0.390   5.407   7.044  0.5165 -0.7806 -4.1137
   7623SM   H1T 9987   0.509   5.540   7.049  0.6713 -1.1124 -3.2836
   7623SM    NF 9988   0.425   5.483   6.801 -0.1622  0.3110  0.5806
   7623SM   HNF 9989   0.505   5.525   6.758 -0.6686 -0.8812 -1.6994
   7623SM   C2S 9990   0.356   5.564   6.907 -0.2497 -0.4676  0.0122
   7623SM   H2S 9991   0.247   5.540   6.914 -1.0473  2.2351 -1.4729
   7623SM   C3S 9992   0.369   5.723   6.896  0.5659  0.5392  0.4789
   7623SM   H3S 9993   0.469   5.743   6.942  0.2730 -1.8233  2.3550
   7623SM    O3 9994   0.275   5.800   6.973 -0.0015 -0.1047  0.0788
   7623SM   HO3 9995   0.244   5.740   7.042 -0.8836  1.0269  0.6967
   7623SM   C4S 9996   0.364   5.750   6.747  0.2393 -1.5004 -0.2381
   7623SM   H4S 9997   0.457   5.726   6.693  0.6749 -0.8086  0.1809
   7623SM   C5S 9998   0.254   5.783   6.670  0.1128  0.0855 -0.2170
   7623SM   H5S 9999   0.152   5.783   6.709  0.3486  0.8776  0.4200
   7623SM   C6S10000   0.269   5.804   6.522  0.2090 -0.4561 -0.5286
   7623SM   H6S10001   0.374   5.779   6.497  0.3094  0.3199 -0.9066
   7623SM   H6T10002   0.250   5.909   6.490  2.1842  1.1659  3.0031
   7623SM   C7S10003   0.187   5.702   6.440 -0.1853  0.0693  0.1010
   7623SM   H7S10004   0.078   5.722   6.444  0.1999  2.2120  1.2009
   7623SM   H7T10005   0.209   5.597   6.471 -0.7716 -0.4093 -1.0322
   7623SM   C8S10006   0.216   5.697   6.286 -0.0879  0.1306 -0.0285
   7623SM   H8S10007   0.325   5.682   6.267 -0.6036 -1.7162 -1.9034
   7623SM   H8T10008   0.177   5.797   6.258  1.8104  1.3201  1.3145
   7623SM   C9S10009   0.128   5.591   6.223 -0.4625 -0.0467  0.0683
   7623SM   H9S10010   0.021   5.604   6.247 -0.5054 -0.0574 -0.1154
   7623SM   H9T10011   0.154   5.499   6.281 -1.5219 -0.1323  0.4225
   7623SM  C10S10012   0.157   5.574   6.077 -1.1262 -0.4948  0.0306
   7623SM  H10S10013   0.264   5.561   6.049 -1.5878 -1.1572 -1.5167
   7623SM  H10T10014   0.121   5.664   6.023 -2.3644 -1.1820 -0.3267
   7623SM  C11S10015   0.093   5.452   6.025  0.1626  0.0704 -0.9020
   7623SM  H11S10016  -0.015   5.449   6.050 -0.0017  0.0447 -1.5802
   7623SM  H11T10017   0.140   5.361   6.067  0.7525  0.9148  0.2990
   7623SM  C12S10018   0.102   5.439   5.873  0.0191 -0.3681  0.0344
   7623SM  H12S10019   0.206   5.426   5.838  0.4018 -0.6668  1.2716
   7623SM  H12T10020   0.067   5.534   5.825  0.2725  0.7015  1.8729
   7623SM  C13S10021   0.015   5.331   5.821  0.0076 -0.0140  0.2941
   7623SM  H13S10022  -0.074   5.309   5.883  0.7443 -0.3518  1.2575
   7623SM  H13T10023   0.081   5.244   5.841  0.4833  0.1143 -0.6632
   7623SM  C14S10024  -0.034   5.334   5.678 -0.1833  0.6300 -0.2684
   7623SM  H14S10025   0.050   5.348   5.606  1.0789  0.3561  1.1045
   7623SM  H14T10026  -0.109   5.416   5.675 -0.5931  0.4640  2.7301
   7623SM  C15S10027  -0.096   5.200   5.631 -0.9626 -0.4304  0.5309
   7623SM  H15S10028  -0.172   5.166   5.705 -0.3871  1.6653  2.1835
   7623SM  H15T10029  -0.018   5.122   5.615  0.5125  1.5082 -2.8351
   7623SM  C16S10030  -0.161   5.220   5.494 -0.3155 -0.4652 -0.3265
   7623SM  H16S10031  -0.204   5.319   5.467 -0.5112 -1.0336 -2.2168
   7623SM  H16T10032  -0.250   5.154   5.487  0.0725 -1.0945  0.4639
   7623SM  C17S10033  -0.064   5.186   5.378 -0.1058  0.4447 -0.3174
   7623SM  H17S10034   0.027   5.250   5.377  0.9409 -0.9845  0.0721
   7623SM  H17T10035  -0.119   5.204   5.283 -0.0917  1.8579 -0.0724
   7623SM  C18S10036  -0.020   5.034   5.373 -0.5863 -0.7352  0.4760
   7623SM  H18S10037   0.039   5.027   5.280  0.1050  1.7117  0.6618
   7623SM  H18T10038  -0.106   4.966   5.353 -1.7447  0.4676  1.1848
   7623SM  H18U10039   0.029   5.000   5.467 -2.2430 -3.5565  0.4470
   7623SM   C1F10040   0.416   5.345   6.794 -0.0560 -0.4813  0.5683
   7623SM    OF10041   0.331   5.278   6.854 -0.4587  0.2525  0.1795
   7623SM   C2F10042   0.533   5.286   6.720  0.0928 -0.0494  0.5782
   7623SM   H2F10043   0.591   5.224   6.792  3.1792  1.3275 -0.5580
   7623SM   H2G10044   0.595   5.370   6.681 -0.1889 -0.0276  0.1754
   7623SM   C3F10045   0.477   5.198   6.603  0.0792  0.5230 -0.0132
   7623SM   H3F10046   0.398   5.129   6.639  1.7976 -0.2761  2.5483
   7623SM   H3G10047   0.565   5.136   6.573  0.8859  2.1095 -1.1046
   7623SM   C4F10048   0.439   5.283   6.482 -0.3028  0.0293  0.0279
   7623SM   H4F10049   0.523   5.355   6.466 -1.4202  1.8688  2.0304
   7623SM   H4G10050   0.344   5.340   6.491  0.3314  1.0640  0.3470
   7623SM   C5F10051   0.425   5.195   6.353  0.1917  1.4557 -0.4267
   7623SM   H5F10052   0.336   5.130   6.365  0.2395  1.2454 -1.1529
   7623SM   H5G10053   0.520   5.138   6.339 -1.3592 -1.1922 -0.7977
   7623SM   C6F10054   0.408   5.283   6.225 -0.5301  0.0971  0.4843
   7623SM   H6F10055   0.480   5.368   6.234 -1.3307  0.9922 -1.1010
   7623SM   H6G10056   0.305   5.325   6.221 -0.4257  0.3095 -3.0224
   7623SM   C7F10057   0.443   5.205   6.094 -0.2303 -0.7051  0.3963
   7623SM   H7F10058   0.368   5.124   6.081  0.6222 -1.4936  0.3021
   7623SM   H7G10059   0.543   5.156   6.098  0.4565  0.4012 -1.7089
   7623SM   C8F10060   0.454   5.293   5.969 -0.2644  0.5731 -0.1182
   7623SM   H8F10061   0.358   5.346   5.954  0.0916  1.5560  0.9262
   7623SM   H8G10062   0.476   5.233   5.878 -1.3022 -1.5205  0.9618
   7623SM   C9F10063   0.562   5.404   5.977 -0.2180 -0.5151  0.2625
   7623SM   H9F10064   0.657   5.374   6.027 -0.0320  1.6287  1.3437
   7623SM   H9G10065   0.531   5.488   6.043  1.1088  1.3755 -1.3877
   7623SM  C10F10066   0.600   5.464   5.836 -0.1690  0.9187 -0.1490
   7623SM  H10F10067   0.658   5.382   5.788  0.9625  1.0652  0.9188
   7623SM  H10G10068   0.677   5.544   5.842 -1.5123  2.2056  0.4441
   7623SM  C11F10069   0.491   5.508   5.747  0.1824 -0.6078 -0.1545
   7623SM  H11F10070   0.425   5.583   5.795 -1.9150 -1.9510 -0.8323
   7623SM  H11G10071   0.420   5.424   5.735 -0.9516 -0.1735  2.7731
   7623SM  C12F10072   0.534   5.556   5.608 -0.0673 -0.2883 -0.3151
   7623SM  H12F10073   0.602   5.478   5.569  1.2237 -0.6156  2.3684
   7623SM  H12G10074   0.593   5.649   5.623 -0.8047  0.3818 -1.3917
   7623SM  C13F10075   0.410   5.579   5.506  0.5018  0.6423 -0.0752
   7623SM  H13F10076   0.336   5.648   5.553 -0.4334 -0.4492  0.0921
   7623SM  H13G10077   0.360   5.488   5.465  1.2198 -0.3383  1.1629
   7623SM  C14F10078   0.455   5.655   5.385  0.3863 -0.5094  0.3473
   7623SM  H14F10079   0.536   5.596   5.337 -0.3425 -1.9459  0.8274
   7623SM  H14G10080   0.498   5.756   5.400 -0.8551  0.2125 -0.7544
   7623SM  C15F10081   0.334   5.678   5.283 -0.2807  0.4657 -0.1264
   7623SM  H15F10082   0.251   5.715   5.347  0.7325  2.3510  0.1903
   7623SM  H15G10083   0.296   5.590   5.229 -0.5280  0.4503  0.0686
   7623SM  C16F10084   0.360   5.787   5.182 -0.4497  0.5926 -0.0619
   7623SM  H16F10085   0.394   5.737   5.089  0.4162  0.8334  0.1168
   7623SM  H16G10086   0.450   5.838   5.223 -0.1687  2.2147 -2.5066
   7623SM  C17F10087   0.255   5.891   5.174 -0.0553  0.0649 -0.2370
   7623SM  H17F10088   0.198   5.906   5.268  2.3053 -0.1334  1.3104
   7623SM  H17G10089   0.193   5.861   5.087 -0.3110 -0.9781  0.2828
   7623SM  C18F10090   0.318   6.025   5.122  0.1022 -0.2705  0.1456
   7623SM  H18F10091   0.374   6.005   5.028  1.5717  0.1432  0.8961
   7623SM  H18G10092   0.388   6.062   5.200 -0.1871 -1.3978  0.9658
   7623SM  C19F10093   0.211   6.139   5.105 -0.3333 -0.1326 -0.3606
   7623SM  H19F10094   0.154   6.141   5.201  0.2616  0.3695 -0.0128
   7623SM  H19G10095   0.137   6.100   5.032  2.2771 -2.8574 -1.8245
   7623SM  C20F10096   0.275   6.270   5.049 -0.3342  0.5009  0.2382
   7623SM  H20F10097   0.181   6.330   5.046 -0.6578 -0.0198 -1.8191
   7623SM  H20G10098   0.306   6.263   4.942  2.4266 -1.2556  1.0679
   7623SM  C21F10099   0.385   6.334   5.129  0.7798  0.0708  0.0255
   7623SM  H21F10100   0.477   6.270   5.127 -0.3264 -1.5995  0.5637
   7623SM  H21G10101   0.352   6.355   5.233  0.0076 -0.9757  0.0102
   7623SM  C22F10102   0.431   6.458   5.059  0.0401 -0.1970 -0.3869
   7623SM  H22F10103   0.351   6.535   5.061 -1.4900 -1.6939 -1.4552
   7623SM  H22G10104   0.449   6.447   4.950 -2.4919  1.1157 -1.0125
   7623SM  C23F10105   0.564   6.512   5.121  0.8887 -0.3741  0.2908
   7623SM  H23F10106   0.585   6.610   5.074 -3.4620  0.9305  0.5904
   7623SM  H23G10107   0.648   6.439   5.121 -0.2904 -1.7762  0.8722
   7623SM  H23H10108   0.539   6.539   5.226 -0.0618  3.6155 -0.7733
   7723SM     N10109   1.020   2.132   7.700  0.0568  0.1108  0.3454
   7723SM   C1510110   1.075   2.151   7.832  0.3079  0.1942 -0.9093
   7723SM  H15A10111   1.130   2.063   7.860  1.2171  0.7963 -0.7730
   7723SM  H15B10112   0.998   2.159   7.909  0.3495 -1.8692 -0.5826
   7723SM  H15C10113   1.148   2.229   7.848 -0.2871  0.5026  0.5244
   7723SM   C1410114   0.949   2.003   7.696  0.1894 -0.0787  0.0297
   7723SM  H14A10115   0.860   2.006   7.757  0.9044 -0.6782  1.1472
   7723SM  H14B10116   1.004   1.914   7.723 -2.7775 -2.1685 -0.3278
   7723SM  H14C10117   0.915   1.987   7.595 -3.3201 -0.1383  1.0999
   7723SM   C1310118   0.927   2.243   7.666  0.4492 -0.3719  0.9344
   7723SM  H13A10119   0.837   2.232   7.725 -0.5288 -2.0030 -0.7548
   7723SM  H13B10120   0.885   2.231   7.567  0.6322 -1.5580  0.9889
   7723SM  H13C10121   0.969   2.342   7.676 -0.8711  0.2677  0.4431
   7723SM   C1210122   1.133   2.111   7.590  0.1547 -0.2108  0.2841
   7723SM  H12A10123   1.181   2.019   7.617  1.5735  0.5016  0.2918
   7723SM  H12B10124   1.195   2.199   7.593  0.2844 -0.1734 -1.9359
   7723SM   C1110125   1.087   2.104   7.440 -0.0448  0.2842  0.1409
   7723SM  H11A10126   1.025   2.013   7.435  1.0429 -0.5906  1.6898
   7723SM  H11B10127   1.176   2.081   7.377 -1.3018  1.2261 -2.0965
   7723SM     P10128   1.101   2.317   7.297  0.1780  0.0304 -0.0013
   7723SM   O1310129   1.023   2.438   7.270  0.1912 -0.5915 -0.6435
   7723SM   O1410130   1.229   2.350   7.362 -0.6056  0.5447  0.3177
   7723SM   O1110131   1.124   2.239   7.158  0.0407 -0.6818 -0.1522
   7723SM   O1210132   1.022   2.220   7.389  0.4835  0.6486 -0.2775
   7723SM   C1S10133   1.007   2.205   7.081  0.3369 -0.1777 -0.1752
   7723SM   H1S10134   0.941   2.293   7.067  2.1409  1.1504 -0.7010
   7723SM   H1T10135   0.943   2.132   7.134 -0.9540  0.9102 -0.1802
   7723SM    NF10136   0.926   2.124   6.855 -0.4758 -0.8880  0.0901
   7723SM   HNF10137   0.894   2.032   6.833 -1.6285 -0.3113 -0.7330
   7723SM   C2S10138   1.045   2.142   6.942 -0.2711  0.6291  0.6402
   7723SM   H2S10139   1.116   2.210   6.889 -0.0205  0.4519  0.7455
   7723SM   C3S10140   1.131   2.007   6.979  0.1624 -0.5078 -0.0734
   7723SM   H3S10141   1.069   1.947   7.049  0.3825 -0.4257  0.1938
   7723SM    O310142   1.255   2.037   7.044 -0.2399 -0.5332  0.3660
   7723SM   HO310143   1.229   2.098   7.113  0.5238  1.2336 -0.8463
   7723SM   C4S10144   1.152   1.919   6.856  0.3911 -0.2238  0.0302
   7723SM   H4S10145   1.066   1.853   6.836 -1.5849  2.2137 -0.0862
   7723SM   C5S10146   1.242   1.935   6.757 -1.0480  0.1229  0.0684
   7723SM   H5S10147   1.312   2.021   6.762 -0.7785  0.0159 -1.5473
   7723SM   C6S10148   1.237   1.856   6.632 -0.2350 -0.3654 -0.6801
   7723SM   H6S10149   1.281   1.758   6.659 -4.1731 -2.3551 -0.7422
   7723SM   H6T10150   1.292   1.914   6.555 -1.6291  3.1983  0.7898
   7723SM   C7S10151   1.096   1.821   6.572  0.1792  0.9727  0.0064
   7723SM   H7S10152   1.056   1.916   6.530  1.3745  2.3401  1.8097
   7723SM   H7T10153   1.029   1.776   6.649 -1.4840  1.0595 -1.3444
   7723SM   C8S10154   1.111   1.719   6.459  0.8107  0.2735  0.1027
   7723SM   H8S10155   1.177   1.638   6.495  2.0285  1.0377 -0.3706
   7723SM   H8T10156   1.170   1.770   6.380 -1.0280  1.3010 -0.6901
   7723SM   C9S10157   0.984   1.657   6.410  0.7012  0.0654 -0.5852
   7723SM   H9S10158   0.907   1.733   6.384  1.0995 -0.2649 -3.0331
   7723SM   H9T10159   0.934   1.599   6.490  0.7742  1.1356  0.2578
   7723SM  C10S10160   1.006   1.573   6.285  0.0545  0.0641 -0.2283
   7723SM  H10S10161   1.058   1.480   6.317  1.1440  0.5767 -0.4530
   7723SM  H10T10162   1.072   1.624   6.212  0.2456 -1.2967 -1.0365
   7723SM  C11S10163   0.874   1.536   6.217  0.4474  0.4834 -0.9494
   7723SM  H11S10164   0.834   1.615   6.151 -1.5071  1.8683  1.6871
   7723SM  H11T10165   0.798   1.520   6.297  1.0937  0.7917 -0.2536
   7723SM  C12S10166   0.901   1.403   6.140 -0.2880  0.2191  0.0628
   7723SM  H12S10167   0.960   1.338   6.208  3.1781  3.2317  0.2628
   7723SM  H12T10168   0.975   1.422   6.058  1.4190 -0.1547  1.4479
   7723SM  C13S10169   0.774   1.329   6.093  0.1201  0.3143 -0.3615
   7723SM  H13S10170   0.711   1.399   6.034  1.9452  1.3663 -1.1494
   7723SM  H13T10171   0.718   1.296   6.183 -0.0439  3.5722  0.8881
   7723SM  C14S10172   0.800   1.212   5.999  0.2074 -0.1029 -0.3361
   7723SM  H14S10173   0.866   1.139   6.050  1.3536  2.1382  1.5988
   7723SM  H14T10174   0.845   1.242   5.902  1.0482 -1.4812 -0.4069
   7723SM  C15S10175   0.678   1.134   5.951  0.4201  0.2002  0.7121
   7723SM  H15S10176   0.617   1.211   5.899  0.6164 -0.1168  0.0052
   7723SM  H15T10177   0.622   1.092   6.038 -4.0016  0.2187 -1.8397
   7723SM  C16S10178   0.726   1.018   5.857 -0.7450  0.9348  0.0077
   7723SM  H16S10179   0.752   0.934   5.925  1.8729  1.4076 -0.3178
   7723SM  H16T10180   0.827   1.038   5.816 -0.6218 -2.3664 -1.6354
   7723SM  C17S10181   0.623   0.967   5.759 -0.3067 -0.6000 -0.0470
   7723SM  H17S10182   0.590   1.036   5.679  1.1627 -0.4791 -0.5859
   7723SM  H17T10183   0.530   0.943   5.815  0.0451 -1.9164  0.0069
   7723SM  C18S10184   0.654   0.829   5.698  0.3315 -0.3572 -0.0353
   7723SM  H18S10185   0.721   0.842   5.610 -0.5285  0.6970 -0.5566
   7723SM  H18T10186   0.555   0.792   5.665  0.8380 -1.4269 -0.4050
   7723SM  H18U10187   0.683   0.758   5.778 -2.0279 -0.7364  0.5397
   7723SM   C1F10188   0.854   2.227   6.805  0.2442  0.0184 -0.2104
   7723SM    OF10189   0.884   2.334   6.844  0.0735  0.3187 -0.3248
   7723SM   C2F10190   0.738   2.188   6.719  0.2711  0.1315 -0.1122
   7723SM   H2F10191   0.662   2.140   6.784 -0.4259 -0.8303 -1.5848
   7723SM   H2G10192   0.781   2.114   6.649  1.9295 -1.3865  2.3491
   7723SM   C3F10193   0.684   2.304   6.638  0.2042  0.3889 -0.2700
   7723SM   H3F10194   0.764   2.362   6.586 -0.7091  2.2250  0.3146
   7723SM   H3G10195   0.635   2.368   6.714 -1.7850  0.2833 -1.4046
   7723SM   C4F10196   0.589   2.256   6.528  0.3295 -0.0616  0.4716
   7723SM   H4F10197   0.510   2.194   6.576  0.5661 -2.4338 -1.9893
   7723SM   H4G10198   0.651   2.196   6.458 -1.9400  0.9131 -2.5576
   7723SM   C5F10199   0.535   2.366   6.438 -0.4447  0.5879 -0.1960
   7723SM   H5F10200   0.619   2.428   6.400 -0.2649 -1.1281 -2.8619
   7723SM   H5G10201   0.468   2.433   6.496  0.1741  0.4588  0.6824
   7723SM   C6F10202   0.460   2.311   6.312 -0.4320 -0.8142 -0.1158
   7723SM   H6F10203   0.354   2.287   6.335 -0.1788 -0.6290  1.3684
   7723SM   H6G10204   0.506   2.211   6.296  1.8482  0.0740  0.4600
   7723SM   C7F10205   0.462   2.400   6.188  0.8452  0.0906  0.3711
   7723SM   H7F10206   0.395   2.347   6.116 -0.6619 -0.6151  2.2187
   7723SM   H7G10207   0.563   2.404   6.141  1.2000 -1.9714  0.8309
   7723SM   C8F10208   0.413   2.549   6.209  0.3851 -0.0281  0.1999
   7723SM   H8F10209   0.471   2.607   6.284 -1.9424  2.8320 -0.0225
   7723SM   H8G10210   0.306   2.545   6.241  0.2387  0.1947 -0.2537
   7723SM   C9F10211   0.432   2.631   6.077 -1.1360  0.0354  0.1123
   7723SM   H9F10212   0.368   2.589   5.997 -1.4502  2.9598 -1.3373
   7723SM   H9G10213   0.538   2.622   6.045 -1.5815  0.4401 -1.5728
   7723SM  C10F10214   0.385   2.779   6.083 -0.0958  0.4503  0.3380
   7723SM  H10F10215   0.396   2.821   6.185  0.4080  0.1930  0.3923
   7723SM  H10G10216   0.276   2.782   6.060  0.0433  0.6697 -0.3031
   7723SM  C11F10217   0.466   2.859   5.984  0.4310 -0.0870  0.5487
   7723SM  H11F10218   0.439   2.807   5.889 -2.0756 -2.7169  2.5251
   7723SM  H11G10219   0.576   2.843   5.995  1.5543  2.0014 -4.5162
   7723SM  C12F10220   0.428   3.006   5.975  0.4060 -0.2033 -0.2235
   7723SM  H12F10221   0.441   3.046   6.078  0.5616 -1.5154  0.2797
   7723SM  H12G10222   0.321   3.000   5.947  0.6666 -2.5991 -0.9028
   7723SM  C13F10223   0.514   3.082   5.870 -0.2237  0.3936  0.0920
   7723SM  H13F10224   0.478   3.058   5.768  0.0507  1.0984 -0.1756
   7723SM  H13G10225   0.620   3.053   5.887 -0.3404  1.4118  3.3011
   7723SM  C14F10226   0.514   3.234   5.877 -0.0717  0.6562  0.1508
   7723SM  H14F10227   0.555   3.263   5.976  1.8348 -0.4905 -0.2331
   7723SM  H14G10228   0.407   3.261   5.870  0.0114  0.7924 -0.6505
   7723SM  C15F10229   0.590   3.300   5.764  0.1669 -0.5603 -1.2899
   7723SM  H15F10230   0.532   3.296   5.670 -1.1632 -1.9993 -0.4448
   7723SM  H15G10231   0.686   3.245   5.754 -1.2369 -3.0382 -1.7613
   7723SM  C16F10232   0.620   3.454   5.785  0.1920 -0.5237  0.0841
   7723SM  H16F10233   0.654   3.476   5.889 -1.0312  1.1827  0.1759
   7723SM  H16G10234   0.525   3.512   5.788 -0.3164 -1.1929 -1.8303
   7723SM  C17F10235   0.709   3.513   5.674  0.6029 -0.1100 -0.6809
   7723SM  H17F10236   0.795   3.443   5.671  1.3354  0.6864  0.6656
   7723SM  H17G10237   0.761   3.607   5.704 -1.6406  1.6425 -1.8702
   7723SM  C18F10238   0.647   3.522   5.540 -0.6966 -0.1028  0.6803
   7723SM  H18F10239   0.585   3.614   5.541  1.4213  1.3911  0.5207
   7723SM  H18G10240   0.582   3.441   5.503 -0.5140  0.3131 -0.5925
   7723SM  C19F10241   0.744   3.551   5.424 -0.2455  0.0517  0.2417
   7723SM  H19F10242   0.805   3.459   5.415  1.3192  0.9759  0.9588
   7723SM  H19G10243   0.811   3.635   5.453  2.2784 -2.1248  1.0323
   7723SM  C20F10244   0.678   3.574   5.285  0.1068  0.7451 -0.5319
   7723SM  H20F10245   0.609   3.661   5.298 -2.1352 -0.8586 -1.0896
   7723SM  H20G10246   0.612   3.489   5.258 -1.2239  1.9081 -1.0912
   7723SM  C21F10247   0.773   3.607   5.167  0.3933  0.1003  0.0686
   7723SM  H21F10248   0.859   3.670   5.196  0.4953  0.6632 -1.3791
   7723SM  H21G10249   0.718   3.668   5.092 -1.9522 -0.7852  0.9708
   7723SM  C22F10250   0.829   3.486   5.104  0.6113  0.2972  0.0560
   7723SM  H22F10251   0.750   3.408   5.110  0.8478  0.1690  1.8452
   7723SM  H22G10252   0.905   3.431   5.163  1.6744 -0.2811 -1.7518
   7723SM  C23F10253   0.885   3.494   4.960 -0.1062  0.1490 -0.0720
   7723SM  H23F10254   0.967   3.569   4.961 -0.0761  0.1095  1.5141
   7723SM  H23G10255   0.801   3.514   4.890  0.4355 -1.6309 -1.3118
   7723SM  H23H10256   0.931   3.395   4.937 -1.5369 -1.0033  1.7372
   7823SM     N10257   2.078   7.056   7.020 -0.3545  0.4607 -0.1632
   7823SM   C1510258   2.016   7.160   7.112  0.4285 -0.2796  0.1026
   7823SM  H15A10259   1.923   7.128   7.157 -0.7335  2.3317 -0.2868
   7823SM  H15B10260   2.000   7.252   7.059  0.9024 -0.5377 -0.5003
   7823SM  H15C10261   2.082   7.188   7.193  0.9997 -1.0677 -0.0762
   7823SM   C1410262   2.190   7.126   6.941  0.4972  0.0170 -0.1845
   7823SM  H14A10263   2.278   7.145   7.002  0.2520 -1.4608  0.6722
   7823SM  H14B10264   2.149   7.213   6.892  0.3739  0.5868  0.8976
   7823SM  H14C10265   2.222   7.054   6.867 -2.7157 -1.6215 -0.1488
   7823SM   C1310266   2.133   6.952   7.101 -0.3695  0.1351  0.0083
   7823SM  H13A10267   2.069   6.942   7.188 -1.3188 -1.3458 -0.8224
   7823SM  H13B10268   2.230   6.978   7.141 -1.4244  1.9567  1.5704
   7823SM  H13C10269   2.132   6.857   7.049 -0.4781 -1.1628  2.2739
   7823SM   C1210270   1.968   6.998   6.926  0.2595  0.2372  0.4194
   7823SM  H12A10271   1.933   7.068   6.852  0.3186  0.7681  0.8823
   7823SM  H12B10272   1.885   6.967   6.987 -0.6090 -1.3682 -1.4467
   7823SM   C1110273   1.996   6.874   6.835 -0.6659  0.3702 -0.3181
   7823SM  H11A10274   2.075   6.904   6.763 -0.1389 -3.0792 -1.3920
   7823SM  H11B10275   1.907   6.857   6.772 -1.6930 -1.5552  1.5012
   7823SM     P10276   1.930   6.659   6.960 -0.3096 -0.4103 -0.2775
   7823SM   O1310277   2.014   6.543   7.004 -0.0151 -0.3416  0.2014
   7823SM   O1410278   1.845   6.716   7.064  0.0764 -0.0639 -0.3056
   7823SM   O1110279   1.835   6.609   6.831  0.1282 -0.3071  0.0570
   7823SM   O1210280   2.032   6.765   6.907 -0.5899 -0.3752  0.5511
   7823SM   C1S10281   1.708   6.670   6.811 -0.1658  0.0065  0.2865
   7823SM   H1S10282   1.693   6.761   6.871 -1.8187 -1.6557  2.5412
   7823SM   H1T10283   1.626   6.604   6.845  0.3412 -0.4443  0.6554
   7823SM    NF10284   1.574   6.787   6.623  0.8017 -0.2071  0.2634
   7823SM   HNF10285   1.491   6.734   6.609 -0.1275  0.8318  1.5341
   7823SM   C2S10286   1.690   6.703   6.653 -0.0807 -0.9075  0.1189
   7823SM   H2S10287   1.779   6.764   6.624 -0.9355  0.6873  0.7267
   7823SM   C3S10288   1.695   6.572   6.579  0.9212  0.6204  0.3969
   7823SM   H3S10289   1.610   6.510   6.618  0.9028  0.0098 -0.5803
   7823SM    O310290   1.807   6.482   6.607  0.7026 -0.4135  0.0499
   7823SM   HO310291   1.828   6.517   6.694 -1.1393  0.5751  0.1449
   7823SM   C4S10292   1.666   6.581   6.425 -0.2221  0.4060 -1.1751
   7823SM   H4S10293   1.566   6.620   6.401 -0.8890 -0.7355 -0.3654
   7823SM   C5S10294   1.753   6.567   6.327  0.0298 -0.5173  0.1567
   7823SM   H5S10295   1.854   6.534   6.355 -0.1224 -0.0962  1.2632
   7823SM   C6S10296   1.714   6.581   6.178 -0.3725  0.3675  0.1235
   7823SM   H6S10297   1.705   6.484   6.126  1.8442 -0.2341  0.7555
   7823SM   H6T10298   1.790   6.641   6.124 -2.5491  2.2691 -1.0012
   7823SM   C7S10299   1.586   6.664   6.143 -0.0622 -0.2728  0.0289
   7823SM   H7S10300   1.589   6.766   6.186 -0.8854  0.5135 -1.6740
   7823SM   H7T10301   1.500   6.609   6.188  0.9415 -1.5277  0.4790
   7823SM   C8S10302   1.564   6.680   5.990  0.1019  0.1692 -0.3592
   7823SM   H8S10303   1.565   6.580   5.942  0.1611  0.4928 -1.0499
   7823SM   H8T10304   1.647   6.741   5.946  0.2461 -0.6564 -1.2594
   7823SM   C9S10305   1.430   6.737   5.943  0.2203 -0.2587  0.3206
   7823SM   H9S10306   1.414   6.835   5.993  0.3039  0.3677 -0.8496
   7823SM   H9T10307   1.347   6.669   5.971  0.8521 -2.2188 -2.2029
   7823SM  C10S10308   1.416   6.758   5.790 -0.1896  0.5215  0.2386
   7823SM  H10S10309   1.492   6.832   5.757 -0.3672  1.3808  1.7040
   7823SM  H10T10310   1.318   6.809   5.778 -0.7160  0.3908  3.2957
   7823SM  C11S10311   1.426   6.641   5.699  0.1400 -0.6989  0.1686
   7823SM  H11S10312   1.358   6.560   5.735 -1.6654  0.1245 -1.2899
   7823SM  H11T10313   1.529   6.602   5.683  0.2431  0.4951 -2.4760
   7823SM  C12S10314   1.381   6.674   5.552  0.2329 -0.1454 -0.3475
   7823SM  H12S10315   1.284   6.724   5.534  0.7066  0.1560 -2.3344
   7823SM  H12T10316   1.384   6.576   5.499  1.7391 -1.1423  1.4455
   7823SM  C13S10317   1.486   6.763   5.476 -0.2664 -0.0212  0.2690
   7823SM  H13S10318   1.474   6.861   5.526 -2.2752 -1.2457  2.3736
   7823SM  H13T10319   1.454   6.774   5.370 -1.0268 -0.0443  0.4902
   7823SM  C14S10320   1.634   6.721   5.489 -0.2069  0.4171  0.1028
   7823SM  H14S10321   1.633   6.610   5.479  2.1084  0.2215  1.3089
   7823SM  H14T10322   1.670   6.736   5.593  2.4766 -0.4713 -0.6240
   7823SM  C15S10323   1.732   6.785   5.389  0.5591 -0.0761  0.2091
   7823SM  H15S10324   1.708   6.727   5.297  1.4785  0.5449 -0.4530
   7823SM  H15T10325   1.834   6.751   5.416 -0.3217 -1.8633  1.5058
   7823SM  C16S10326   1.713   6.938   5.377  0.1917 -0.5100 -0.0399
   7823SM  H16S10327   1.774   6.975   5.463 -0.9090  0.3555  0.3881
   7823SM  H16T10328   1.608   6.970   5.387  0.1925 -0.5634  0.1374
   7823SM  C17S10329   1.769   7.009   5.248 -0.3442 -0.2197 -0.6030
   7823SM  H17S10330   1.715   6.972   5.159 -1.3576  2.8124 -1.3789
   7823SM  H17T10331   1.876   6.979   5.243  0.1893  0.9777  1.9037
   7823SM  C18S10332   1.760   7.160   5.257 -1.0316  0.3873 -0.4336
   7823SM  H18S10333   1.651   7.178   5.251 -0.9058  0.7630 -2.3195
   7823SM  H18T10334   1.798   7.220   5.172  0.2149  1.2166  0.6723
   7823SM  H18U10335   1.800   7.198   5.353 -2.6622 -0.2135  0.5112
   7823SM   C1F10336   1.579   6.922   6.657  0.3148  0.5127  0.8571
   7823SM    OF10337   1.688   6.971   6.689 -0.0246 -0.0815 -0.5231
   7823SM   C2F10338   1.453   7.003   6.638 -0.7853  0.8856 -0.3221
   7823SM   H2F10339   1.401   6.996   6.736 -0.0169 -2.5043 -0.0415
   7823SM   H2G10340   1.381   6.953   6.569 -2.1930  0.2275  1.5258
   7823SM   C3F10341   1.480   7.146   6.588  0.2710  0.4023 -0.2036
   7823SM   H3F10342   1.544   7.203   6.658  0.2872  1.1764 -0.8414
   7823SM   H3G10343   1.380   7.195   6.590  0.4181  0.6995  1.0062
   7823SM   C4F10344   1.538   7.160   6.445  0.3068 -0.1022 -0.0386
   7823SM   H4F10345   1.648   7.148   6.445  0.1818 -1.3363  0.4563
   7823SM   H4G10346   1.521   7.268   6.423 -0.9530  0.0217  1.4039
   7823SM   C5F10347   1.477   7.064   6.344 -0.4336  0.1128  0.0614
   7823SM   H5F10348   1.367   7.080   6.345 -0.3446  0.7442  0.9027
   7823SM   H5G10349   1.498   6.959   6.372 -0.3895  0.8933  3.3540
   7823SM   C6F10350   1.526   7.084   6.194 -0.1243  0.3681  0.8376
   7823SM   H6F10351   1.457   7.020   6.136  2.6608 -1.6971 -0.4466
   7823SM   H6G10352   1.626   7.034   6.193 -0.2719 -0.0749 -2.1513
   7823SM   C7F10353   1.552   7.226   6.147  0.3763  0.4017 -0.2005
   7823SM   H7F10354   1.642   7.263   6.202  0.7731  0.1384 -0.6615
   7823SM   H7G10355   1.460   7.274   6.185  1.6723  1.2167  2.1394
   7823SM   C8F10356   1.567   7.235   5.996 -0.5720 -0.8974  0.5497
   7823SM   H8F10357   1.659   7.179   5.972 -0.8226 -0.7289 -0.9408
   7823SM   H8G10358   1.600   7.340   5.977  2.6828 -1.6852  1.3784
   7823SM   C9F10359   1.457   7.176   5.908  0.1671  0.0010 -0.0633
   7823SM   H9F10360   1.360   7.211   5.948 -0.0587  0.1231 -0.7143
   7823SM   H9G10361   1.467   7.066   5.922  2.1745  0.0528 -0.7440
   7823SM  C10F10362   1.472   7.217   5.764  0.1941  0.7821 -0.5847
   7823SM  H10F10363   1.570   7.176   5.730 -1.3071 -1.7790 -2.1455
   7823SM  H10G10364   1.468   7.328   5.758 -2.3088  0.8199  0.3930
   7823SM  C11F10365   1.380   7.137   5.662 -0.0420  0.2952  0.0589
   7823SM  H11F10366   1.271   7.149   5.681 -0.4771 -0.5510 -1.6798
   7823SM  H11G10367   1.388   7.026   5.668  0.3888  0.4082  2.8788
   7823SM  C12F10368   1.408   7.177   5.516  0.0306 -0.7598  0.0852
   7823SM  H12F10369   1.512   7.151   5.487  0.1986 -1.6439  1.4125
   7823SM  H12G10370   1.394   7.287   5.516 -0.4087 -0.8079  0.9995
   7823SM  C13F10371   1.323   7.113   5.407  0.3812 -0.2049  1.3041
   7823SM  H13F10372   1.215   7.120   5.432 -0.0448 -2.4082  0.3431
   7823SM  H13G10373   1.352   7.006   5.394 -0.7402 -0.6024  1.8916
   7823SM  C14F10374   1.341   7.180   5.277  0.1769 -0.0094  0.0526
   7823SM  H14F10375   1.449   7.172   5.252  0.1521 -1.2359  0.2887
   7823SM  H14G10376   1.310   7.287   5.277  2.6002  0.7706  0.6565
   7823SM  C15F10377   1.270   7.107   5.170 -0.0300 -0.1262  0.3360
   7823SM  H15F10378   1.160   7.115   5.179  0.0166 -0.8827  1.8352
   7823SM  H15G10379   1.299   7.000   5.178  2.0613  0.3168 -0.5320
   7823SM  C16F10380   1.314   7.148   5.026 -0.0928 -1.2973 -0.6001
   7823SM  H16F10381   1.425   7.161   5.027 -0.2336  0.1012 -0.5389
   7823SM  H16G10382   1.267   7.244   4.996 -0.0089 -1.6753 -1.9887
   7823SM  C17F10383   1.284   7.042   4.920 -0.2637  0.7824  0.5420
   7823SM  H17F10384   1.339   6.952   4.954 -1.2849 -0.0531  0.0408
   7823SM  H17G10385   1.341   7.066   4.827 -1.5516  1.5827 -0.0698
   7823SM  C18F10386   1.137   7.008   4.882  0.0490  0.6853 -0.1098
   7823SM  H18F10387   1.088   7.102   4.848  0.0202  0.9816  0.7212
   7823SM  H18G10388   1.093   6.981   4.981  1.0659  0.0641  0.1831
   7823SM  C19F10389   1.115   6.891   4.779  0.1406 -0.2551  0.2326
   7823SM  H19F10390   1.172   6.802   4.812  0.1858 -0.4567 -0.3808
   7823SM  H19G10391   1.136   6.928   4.677 -2.8198  1.5897  0.1519
   7823SM  C20F10392   0.972   6.838   4.767  0.1297 -0.6496 -0.4048
   7823SM  H20F10393   0.902   6.918   4.734  1.9688  1.3012  0.2109
   7823SM  H20G10394   0.953   6.814   4.874  3.2596 -1.9892 -0.0474
   7823SM  C21F10395   0.958   6.721   4.668  0.0647  0.1462  0.1290
   7823SM  H21F10396   1.023   6.639   4.707  0.5127 -0.0438 -0.9860
   7823SM  H21G10397   0.996   6.759   4.571 -0.0972 -0.5498 -0.2081
   7823SM  C22F10398   0.812   6.676   4.650  1.2790 -0.2003  0.4873
   7823SM  H22F10399   0.769   6.776   4.630  1.1285 -0.6103 -1.3718
   7823SM  H22G10400   0.759   6.648   4.744 -0.3980 -1.2523 -0.7274
   7823SM  C23F10401   0.788   6.585   4.536 -0.3569  0.2180 -0.3752
   7823SM  H23F10402   0.678   6.573   4.522 -0.4541  0.9758 -0.2853
   7823SM  H23G10403   0.820   6.480   4.555 -1.3871 -1.0203 -4.3550
   7823SM  H23H10404   0.838   6.627   4.446 -1.0972  1.6696 -0.1353
   7923SM     N10405   0.001   7.385   7.449  0.1167 -0.2866 -0.7167
   7923SM   C1510406  -0.030   7.346   7.590 -0.0561 -0.3234 -0.1763
   7923SM  H15A10407  -0.032   7.241   7.613  0.5354 -0.1886  0.5192
   7923SM  H15B10408  -0.112   7.401   7.635  0.5302  3.5642 -3.2845
   7923SM  H15C10409   0.057   7.377   7.645  0.9845 -2.1619 -0.6962
   7923SM   C1410410   0.138   7.332   7.422 -0.1956  0.7040 -0.2012
   7923SM  H14A10411   0.211   7.354   7.499  0.8650 -0.8575 -0.7183
   7923SM  H14B10412   0.178   7.365   7.327  1.3582  2.2425  0.9252
   7923SM  H14C10413   0.139   7.224   7.426  0.0842  0.6892 -0.5979
   7923SM   C1310414  -0.103   7.328   7.359 -0.0476  0.2882  0.5912
   7923SM  H13A10415  -0.075   7.354   7.258  0.9249 -0.0695  0.7530
   7923SM  H13B10416  -0.201   7.370   7.377 -0.1062  0.5268 -0.2265
   7923SM  H13C10417  -0.121   7.223   7.377 -0.4237  0.5558  1.8480
   7923SM   C1210418   0.005   7.537   7.440 -0.0760 -0.1306 -0.0064
   7923SM  H12A10419  -0.096   7.575   7.439  0.2370  0.7416 -2.0064
   7923SM  H12B10420   0.045   7.572   7.346 -0.4543  0.1573 -0.0636
   7923SM   C1110421   0.079   7.611   7.553 -0.5900  0.1095 -0.6978
   7923SM  H11A10422   0.022   7.600   7.648 -0.4863 -0.7093 -0.7181
   7923SM  H11B10423   0.070   7.721   7.542 -0.4823  0.5898  2.7395
   7923SM     P10424   0.341   7.653   7.571  0.2740 -0.1756  0.1593
   7923SM   O1310425   0.333   7.726   7.700  0.0807  0.3769 -0.0113
   7923SM   O1410426   0.454   7.565   7.552 -0.1092 -0.0859  0.6999
   7923SM   O1110427   0.332   7.749   7.440  0.4377  0.0566 -0.0020
   7923SM   O1210428   0.212   7.556   7.566 -0.2238 -0.9591 -0.3834
   7923SM   C1S10429   0.315   7.682   7.317 -0.1793  0.0057 -0.1513
   7923SM   H1S10430   0.235   7.606   7.317  0.5418 -0.7984  1.2138
   7923SM   H1T10431   0.405   7.629   7.279 -0.9578 -0.5459 -1.2946
   7923SM    NF10432   0.232   7.692   7.089 -0.9996  1.2771 -0.1625
   7923SM   HNF10433   0.280   7.699   7.003 -0.1589  0.5168  0.2316
   7923SM   C2S10434   0.271   7.778   7.198 -0.7705 -0.6514 -0.3994
   7923SM   H2S10435   0.181   7.827   7.241 -0.1624 -0.2845  0.4915
   7923SM   C3S10436   0.379   7.884   7.174 -0.2890  0.1597 -0.3509
   7923SM   H3S10437   0.468   7.830   7.134 -0.8870 -2.0740  1.1235
   7923SM    O310438   0.425   7.941   7.295 -0.7649 -0.7630  0.0769
   7923SM   HO310439   0.387   7.901   7.374  1.7754  0.7888  2.2779
   7923SM   C4S10440   0.335   7.997   7.090  0.0624 -0.2612  0.8183
   7923SM   H4S10441   0.401   8.024   7.006  0.0790 -0.0657  0.8921
   7923SM   C5S10442   0.234   8.081   7.106 -0.1968 -0.6746 -0.4153
   7923SM   H5S10443   0.194   8.100   7.207  2.5995 -1.6620  0.9921
   7923SM   C6S10444   0.189   8.193   7.017  0.2391 -0.5446 -0.3858
   7923SM   H6S10445   0.147   8.273   7.082 -1.2503 -1.3482 -0.3180
   7923SM   H6T10446   0.111   8.154   6.949 -0.3794 -0.0264  0.0132
   7923SM   C7S10447   0.303   8.255   6.943 -0.7690 -0.5707  0.4429
   7923SM   H7S10448   0.363   8.187   6.880 -2.9922  0.9271 -3.6566
   7923SM   H7T10449   0.376   8.301   7.013 -1.5741  0.3339  0.7196
   7923SM   C8S10450   0.258   8.365   6.837 -0.4497 -0.4046  0.4066
   7923SM   H8S10451   0.243   8.461   6.891  1.3064 -0.2003  0.5713
   7923SM   H8T10452   0.161   8.330   6.796 -0.2381  0.4370 -0.8551
   7923SM   C9S10453   0.361   8.395   6.723  0.0967 -0.4389  0.1512
   7923SM   H9S10454   0.459   8.417   6.770 -0.1767 -0.5734  0.7966
   7923SM   H9T10455   0.321   8.472   6.654 -0.5032 -1.7744 -1.0534
   7923SM  C10S10456   0.374   8.280   6.620 -0.1728  0.1710 -0.4721
   7923SM  H10S10457   0.269   8.248   6.606 -0.8024  0.8699  2.1681
   7923SM  H10T10458   0.437   8.194   6.652  0.2281 -0.6701 -3.1936
   7923SM  C11S10459   0.440   8.323   6.487 -0.3804  0.3842  0.5746
   7923SM  H11S10460   0.548   8.346   6.504 -0.1319  0.2290 -0.7328
   7923SM  H11T10461   0.384   8.414   6.456 -2.3657 -0.7733  0.6233
   7923SM  C12S10462   0.409   8.218   6.386  0.2504 -0.2269 -0.4979
   7923SM  H12S10463   0.300   8.195   6.388  0.4428 -1.1180  1.7490
   7923SM  H12T10464   0.462   8.124   6.410  0.6927  0.2102  0.2782
   7923SM  C13S10465   0.468   8.254   6.249 -0.0550 -0.1654  0.0080
   7923SM  H13S10466   0.576   8.237   6.269 -0.9075 -2.6747  3.4930
   7923SM  H13T10467   0.447   8.358   6.217 -1.0403  0.5729  2.7101
   7923SM  C14S10468   0.438   8.154   6.139  0.0531 -0.1726  0.0998
   7923SM  H14S10469   0.330   8.154   6.113 -0.1182 -0.9172  0.7841
   7923SM  H14T10470   0.472   8.051   6.164  1.4362 -0.2202 -1.7612
   7923SM  C15S10471   0.507   8.194   6.010 -0.4039  0.6934 -0.1495
   7923SM  H15S10472   0.615   8.168   6.013 -0.6394 -0.2154  1.4358
   7923SM  H15T10473   0.495   8.303   5.992 -1.8750  0.7227  0.8898
   7923SM  C16S10474   0.452   8.116   5.889  0.2661 -0.2923  0.7153
   7923SM  H16S10475   0.342   8.102   5.886  0.1318  0.7974 -1.0292
   7923SM  H16T10476   0.497   8.015   5.895  1.3600  0.2067  1.1668
   7923SM  C17S10477   0.478   8.190   5.757 -0.3122 -0.1807  0.0883
   7923SM  H17S10478   0.588   8.185   5.739 -0.3347 -1.1698  0.1951
   7923SM  H17T10479   0.459   8.299   5.767 -1.2960 -0.1682 -1.5263
   7923SM  C18S10480   0.422   8.130   5.631  0.3904 -0.0293  0.1134
   7923SM  H18S10481   0.480   8.179   5.551 -0.6415 -0.1938 -0.7584
   7923SM  H18T10482   0.313   8.138   5.612  0.7300 -0.1767 -2.1362
   7923SM  H18U10483   0.456   8.025   5.621 -1.1329 -0.6916  1.3695
   7923SM   C1F10484   0.120   7.622   7.092 -0.4231  0.2399  0.0789
   7923SM    OF10485   0.037   7.643   7.179  0.1276  0.2429 -0.2000
   7923SM   C2F10486   0.086   7.540   6.969  0.4364 -0.9738 -0.7796
   7923SM   H2F10487   0.177   7.491   6.928  0.4860 -0.2404 -1.5494
   7923SM   H2G10488   0.032   7.596   6.890 -1.2055 -2.7945 -1.0331
   7923SM   C3F10489  -0.015   7.430   7.008 -0.2829 -0.3884  0.4841
   7923SM   H3F10490  -0.113   7.476   7.036  1.3663  2.6066  1.8335
   7923SM   H3G10491   0.035   7.363   7.080  0.9986 -1.5796 -1.4375
   7923SM   C4F10492  -0.053   7.328   6.895  0.3424 -0.3131  0.6323
   7923SM   H4F10493  -0.121   7.254   6.944 -2.4134  1.0208 -0.9493
   7923SM   H4G10494   0.035   7.277   6.850  0.0408  0.3324 -0.7125
   7923SM   C5F10495  -0.147   7.391   6.795 -0.1071  0.3012 -0.2778
   7923SM   H5F10496  -0.133   7.325   6.706  1.3622 -0.7546  0.6916
   7923SM   H5G10497  -0.105   7.486   6.755  0.6286 -0.4124 -1.2424
   7923SM   C6F10498  -0.293   7.410   6.846  0.1589  0.3899 -0.0954
   7923SM   H6F10499  -0.294   7.464   6.943  1.4034 -0.4188  0.3953
   7923SM   H6G10500  -0.356   7.319   6.859 -0.1578  0.4503 -1.1065
   7923SM   C7F10501  -0.361   7.499   6.747  0.4987  0.3398  0.6179
   7923SM   H7F10502  -0.412   7.431   6.676 -1.3674  0.2373  1.9754
   7923SM   H7G10503  -0.293   7.567   6.691  0.1322 -0.3591 -0.7129
   7923SM   C8F10504  -0.480   7.590   6.785  0.3261 -0.0539  0.4724
   7923SM   H8F10505  -0.568   7.529   6.816 -0.1339  0.4560  0.2072
   7923SM   H8G10506  -0.529   7.650   6.705 -0.0806 -2.3673 -1.1200
   7923SM   C9F10507  -0.444   7.691   6.901 -0.2363 -0.0914 -0.6085
   7923SM   H9F10508  -0.416   7.631   6.990 -0.3094  2.3059  1.1187
   7923SM   H9G10509  -0.545   7.729   6.924 -0.6111 -2.4253  2.1649
   7923SM  C10F10510  -0.334   7.797   6.861 -0.5172  0.0319 -0.4000
   7923SM  H10F10511  -0.240   7.743   6.836 -1.4982 -1.6358 -0.6265
   7923SM  H10G10512  -0.327   7.863   6.950 -0.4599 -0.6220  0.0891
   7923SM  C11F10513  -0.368   7.888   6.745  0.0626  0.8687  0.2754
   7923SM  H11F10514  -0.470   7.927   6.761 -0.2820 -0.4070  1.4106
   7923SM  H11G10515  -0.374   7.825   6.654 -1.5749  2.8718 -1.0948
   7923SM  C12F10516  -0.268   8.003   6.728 -0.2908  0.2771 -0.0071
   7923SM  H12F10517  -0.167   7.958   6.724 -0.5124 -0.3976  1.3020
   7923SM  H12G10518  -0.258   8.058   6.824  1.5350 -2.6220  1.6203
   7923SM  C13F10519  -0.304   8.093   6.601  0.4170 -0.0454 -0.0112
   7923SM  H13F10520  -0.409   8.128   6.608  0.6055  0.4918  0.1722
   7923SM  H13G10521  -0.309   8.022   6.515  0.0234  0.7945 -0.6935
   7923SM  C14F10522  -0.204   8.197   6.578 -0.5156 -0.1069 -0.2775
   7923SM  H14F10523  -0.105   8.147   6.568 -1.1263 -1.4966  0.4156
   7923SM  H14G10524  -0.208   8.256   6.672  0.8189 -1.9929  1.0259
   7923SM  C15F10525  -0.238   8.283   6.459  0.0159  0.6219  0.0332
   7923SM  H15F10526  -0.173   8.372   6.463  3.5236 -1.5688 -2.3026
   7923SM  H15G10527  -0.343   8.316   6.469  0.2333  0.4491  4.5349
   7923SM  C16F10528  -0.210   8.216   6.322  0.7263  0.1328 -0.6715
   7923SM  H16F10529  -0.298   8.167   6.274  0.5161 -1.0900  0.8934
   7923SM  H16G10530  -0.130   8.140   6.331 -0.1482 -0.6433  1.1633
   7923SM  C17F10531  -0.143   8.312   6.218  0.5803 -0.1617  0.0023
   7923SM  H17F10532  -0.068   8.375   6.269  0.6977  0.9055 -1.4117
   7923SM  H17G10533  -0.214   8.385   6.173  1.4964 -0.0015 -1.2363
   7923SM  C18F10534  -0.073   8.248   6.102 -0.5631 -0.2180 -0.0927
   7923SM  H18F10535  -0.144   8.175   6.058 -2.1580  1.3069 -0.1424
   7923SM  H18G10536   0.019   8.198   6.138 -0.3709  0.0322 -0.2336
   7923SM  C19F10537  -0.032   8.348   5.990  0.2887 -0.0152  0.5750
   7923SM  H19F10538  -0.120   8.414   5.975  0.4280  0.4487  1.6623
   7923SM  H19G10539  -0.018   8.294   5.894 -0.7027  0.5970  0.0667
   7923SM  C20F10540   0.090   8.431   6.023 -0.7103  0.3443 -0.5680
   7923SM  H20F10541   0.176   8.360   6.027 -0.3229  0.8277 -0.2964
   7923SM  H20G10542   0.092   8.470   6.126  3.0190 -0.5073 -0.1747
   7923SM  C21F10543   0.120   8.537   5.922  0.0011 -0.1054  0.2188
   7923SM  H21F10544   0.060   8.628   5.944  1.2399  0.7593  0.1093
   7923SM  H21G10545   0.104   8.512   5.814 -0.6306  2.0964 -0.2386
   7923SM  C22F10546   0.263   8.582   5.925  0.3807  0.2880 -0.1908
   7923SM  H22F10547   0.277   8.680   5.874  1.3218  1.3938  2.0587
   7923SM  H22G10548   0.334   8.514   5.875  1.6203  0.3277  1.4240
   7923SM  C23F10549   0.311   8.616   6.073  0.3131  0.1013  0.5028
   7923SM  H23F10550   0.320   8.514   6.116  2.7308  0.0912  0.1128
   7923SM  H23G10551   0.240   8.677   6.133 -0.9995  0.0370 -0.9039
   7923SM  H23H10552   0.413   8.658   6.070  0.2726  0.1546 -1.2048
   8023SM     N10553   1.932   0.486   6.921  0.6496 -0.2778 -0.0827
   8023SM   C1510554   1.946   0.585   7.024  0.6664  0.1142  0.5032
   8023SM  H15A10555   2.047   0.620   7.035  0.4693  0.7308  0.3419
   8023SM  H15B10556   1.921   0.545   7.121  0.6256 -1.6788 -0.1898
   8023SM  H15C10557   1.886   0.672   7.002  2.0646  1.7157  2.6292
   8023SM   C1410558   1.793   0.443   6.911 -0.2275 -0.1602  0.1566
   8023SM  H14A10559   1.778   0.373   6.830  0.7085  2.9444 -2.9319
   8023SM  H14B10560   1.725   0.524   6.890  0.0915 -0.3583 -1.8691
   8023SM  H14C10561   1.754   0.403   7.003  1.0409  2.5233  1.9979
   8023SM   C1310562   1.969   0.543   6.787 -0.8679  1.1666 -0.3068
   8023SM  H13A10563   2.075   0.564   6.798 -0.8007 -0.1175  2.3636
   8023SM  H13B10564   1.917   0.631   6.752 -0.1936  0.8004 -2.3507
   8023SM  H13C10565   1.963   0.468   6.710  2.3049  1.0994 -0.6299
   8023SM   C1210566   2.027   0.372   6.947 -0.0232  0.4635 -0.0192
   8023SM  H12A10567   2.022   0.341   7.050 -0.1382  1.7347  0.3780
   8023SM  H12B10568   2.127   0.412   6.937  0.2238  0.1054  0.8954
   8023SM   C1110569   2.023   0.239   6.852  0.5561 -0.5030  0.1012
   8023SM  H11A10570   2.114   0.189   6.892  1.0047  0.7841  0.7362
   8023SM  H11B10571   2.045   0.279   6.751  1.1787 -0.5360  0.2172
   8023SM     P10572   1.868   0.066   6.979 -0.1106  0.2818  0.0870
   8023SM   O1310573   1.979   0.062   7.073 -0.0097 -0.1526 -0.0737
   8023SM   O1410574   1.737   0.087   7.041  0.3130  0.5545  0.3395
   8023SM   O1110575   1.863  -0.070   6.894  0.3563  0.0964  0.6699
   8023SM   O1210576   1.893   0.168   6.857 -0.0676  0.4424  0.5697
   8023SM   C1S10577   1.766  -0.082   6.788 -0.3927 -0.5123  0.8911
   8023SM   H1S10578   1.752   0.016   6.738  0.8959 -1.4981 -1.5609
   8023SM   H1T10579   1.679  -0.126   6.842 -0.4066  0.6765  1.8865
   8023SM    NF10580   1.714  -0.181   6.570  0.3435  0.3137  0.3382
   8023SM   HNF10581   1.651  -0.258   6.566 -0.6367  1.1398 -0.5964
   8023SM   C2S10582   1.806  -0.186   6.680 -0.1461  0.1679 -0.4713
   8023SM   H2S10583   1.905  -0.151   6.645  0.4364 -0.7072  0.2678
   8023SM   C3S10584   1.820  -0.327   6.746  0.2316 -0.0195 -0.9687
   8023SM   H3S10585   1.717  -0.362   6.769 -0.0930  1.6657  0.3370
   8023SM    O310586   1.897  -0.331   6.864  0.0604 -0.3479 -0.0058
   8023SM   HO310587   1.896  -0.243   6.903  0.4166  0.1480 -1.0788
   8023SM   C4S10588   1.882  -0.432   6.657 -0.2441  0.5684  0.6612
   8023SM   H4S10589   1.825  -0.527   6.662  0.3935  0.0071 -1.6298
   8023SM   C5S10590   2.002  -0.431   6.606  0.1060  0.4550 -0.3316
   8023SM   H5S10591   2.072  -0.348   6.620  0.6061  0.0991 -0.6453
   8023SM   C6S10592   2.074  -0.554   6.545 -0.0109 -1.0235  0.4161
   8023SM   H6S10593   2.147  -0.597   6.616 -1.0881  1.1085  2.9720
   8023SM   H6T10594   2.132  -0.521   6.456 -0.6306 -0.7490  0.1048
   8023SM   C7S10595   1.986  -0.673   6.494  1.2892  0.1672  0.0224
   8023SM   H7S10596   1.912  -0.700   6.573  1.6655 -1.6776 -0.2237
   8023SM   H7T10597   2.055  -0.760   6.484  0.5086 -0.3627 -0.8921
   8023SM   C8S10598   1.906  -0.652   6.361 -0.2870 -0.0304  0.0342
   8023SM   H8S10599   1.864  -0.550   6.370  0.9827  0.4439  0.9357
   8023SM   H8T10600   1.825  -0.728   6.360  1.2028 -1.7294  1.4137
   8023SM   C9S10601   1.987  -0.688   6.240 -0.7120  0.4089  0.4470
   8023SM   H9S10602   2.022  -0.793   6.249 -6.3542 -1.7235  1.7696
   8023SM   H9T10603   2.073  -0.618   6.238  1.7973 -2.3692  1.8922
   8023SM  C10S10604   1.894  -0.675   6.117 -0.4430  0.3969 -0.5760
   8023SM  H10S10605   1.826  -0.587   6.114 -1.8525 -0.6588 -1.3125
   8023SM  H10T10606   1.822  -0.759   6.123 -1.6741  1.4456 -0.1775
   8023SM  C11S10607   1.974  -0.671   5.985  0.4863  0.0444 -0.1397
   8023SM  H11S10608   2.042  -0.759   5.989 -0.3189 -0.5970 -0.2771
   8023SM  H11T10609   2.034  -0.578   5.976 -1.0647  1.0797 -0.1042
   8023SM  C12S10610   1.883  -0.698   5.857 -0.1180  0.1818  0.6340
   8023SM  H12S10611   1.828  -0.604   5.835 -0.1386  0.0890  0.2863
   8023SM  H12T10612   1.808  -0.776   5.883  2.4470 -1.9354  2.1470
   8023SM  C13S10613   1.958  -0.760   5.734 -0.4258  0.3970 -0.1816
   8023SM  H13S10614   1.874  -0.805   5.676  0.4565  0.2390 -1.3573
   8023SM  H13T10615   2.025  -0.841   5.770  2.7695  2.6708 -0.6285
   8023SM  C14S10616   2.019  -0.659   5.631 -0.2155 -0.2587 -0.0640
   8023SM  H14S10617   2.102  -0.602   5.679 -1.4339  0.6024  1.0852
   8023SM  H14T10618   1.943  -0.588   5.593  0.2060  0.4364  0.3688
   8023SM  C15S10619   2.072  -0.729   5.502 -0.1017  0.4219  0.3939
   8023SM  H15S10620   1.988  -0.779   5.448  0.2509 -0.6471  0.8157
   8023SM  H15T10621   2.146  -0.809   5.522  0.0470  0.0125 -1.5380
   8023SM  C16S10622   2.134  -0.634   5.393 -0.4219 -0.6225 -0.3292
   8023SM  H16S10623   2.202  -0.570   5.454 -0.8108 -1.1592  0.6847
   8023SM  H16T10624   2.067  -0.570   5.331 -0.3358 -0.3162 -0.1088
   8023SM  C17S10625   2.225  -0.711   5.294 -0.8260 -0.3381  0.0660
   8023SM  H17S10626   2.297  -0.770   5.355  0.3615 -2.5668 -3.1818
   8023SM  H17T10627   2.289  -0.642   5.234 -2.8828 -0.3337 -2.2735
   8023SM  C18S10628   2.157  -0.799   5.188  0.4960 -0.2689  0.6723
   8023SM  H18S10629   2.151  -0.900   5.234 -0.4588 -0.7036 -0.3528
   8023SM  H18T10630   2.222  -0.807   5.098 -0.4327 -0.5792  0.0145
   8023SM  H18U10631   2.058  -0.754   5.167  0.1766 -0.7895  1.0616
   8023SM   C1F10632   1.707  -0.089   6.470  0.2697  0.9423 -0.2051
   8023SM    OF10633   1.802  -0.013   6.448 -0.1242  0.2012  0.4106
   8023SM   C2F10634   1.579  -0.085   6.397  0.0797  0.9632 -0.2290
   8023SM   H2F10635   1.522   0.006   6.425  0.0039  1.4353 -1.8063
   8023SM   H2G10636   1.524  -0.181   6.410  0.9660  0.3806 -0.7012
   8023SM   C3F10637   1.602  -0.085   6.242 -0.0743 -0.3564  1.0299
   8023SM   H3F10638   1.637  -0.185   6.208 -0.5410  0.4653 -2.0958
   8023SM   H3G10639   1.670  -0.002   6.213  0.3780 -1.6384 -1.9764
   8023SM   C4F10640   1.470  -0.065   6.172  0.0023 -0.1095  0.3229
   8023SM   H4F10641   1.423   0.024   6.220 -2.2971 -0.0331 -1.8840
   8023SM   H4G10642   1.402  -0.152   6.186  0.3177 -0.6646 -1.3962
   8023SM   C5F10643   1.489  -0.043   6.019  0.3586 -0.8497 -0.0073
   8023SM   H5F10644   1.487  -0.139   5.964 -3.1617 -0.8589 -0.0397
   8023SM   H5G10645   1.592  -0.002   6.008 -0.3117  0.8415 -0.2503
   8023SM   C6F10646   1.380   0.047   5.966  0.3475 -0.4093  0.0335
   8023SM   H6F10647   1.403   0.149   6.004  1.0284 -0.8730  0.9139
   8023SM   H6G10648   1.280   0.021   6.006 -0.3370  2.4760  0.4534
   8023SM   C7F10649   1.386   0.044   5.820 -0.0988 -0.5682 -0.6648
   8023SM   H7F10650   1.338  -0.051   5.788 -2.0458  0.2444 -0.3329
   8023SM   H7G10651   1.491   0.040   5.784  0.1395 -1.2233  0.0808
   8023SM   C8F10652   1.317   0.158   5.744 -0.5331 -0.4512 -0.5127
   8023SM   H8F10653   1.347   0.262   5.768  0.2946 -0.7815 -0.1107
   8023SM   H8G10654   1.210   0.148   5.773 -0.7410 -0.1015 -1.1550
   8023SM   C9F10655   1.330   0.158   5.590  0.4408 -0.4062  0.6608
   8023SM   H9F10656   1.288   0.063   5.549 -0.1655  0.0390  0.2203
   8023SM   H9G10657   1.440   0.157   5.603  0.3965 -0.4801  1.0544
   8023SM  C10F10658   1.286   0.290   5.515 -0.3152 -0.7950 -0.1334
   8023SM  H10F10659   1.325   0.381   5.566 -1.5950 -0.1380 -0.2743
   8023SM  H10G10660   1.175   0.300   5.527 -0.2408 -0.9777  0.7752
   8023SM  C11F10661   1.330   0.285   5.372 -0.0886 -0.2756 -0.0602
   8023SM  H11F10662   1.288   0.191   5.333 -1.2590 -0.1668  0.8787
   8023SM  H11G10663   1.440   0.281   5.357 -0.1337 -0.9299 -0.2501
   8023SM  C12F10664   1.282   0.395   5.279  0.1049  0.0732 -0.4529
   8023SM  H12F10665   1.307   0.490   5.331 -0.3940 -1.4314  2.8301
   8023SM  H12G10666   1.171   0.390   5.274  0.0586 -1.9815  1.2256
   8023SM  C13F10667   1.346   0.390   5.138  0.9527 -0.0921 -0.0844
   8023SM  H13F10668   1.456   0.384   5.144  0.9419 -0.9637 -0.5792
   8023SM  H13G10669   1.304   0.473   5.077 -1.2131 -1.1878 -0.2098
   8023SM  C14F10670   1.296   0.267   5.058  0.6442 -0.1717 -0.1422
   8023SM  H14F10671   1.185   0.267   5.044  0.7658 -0.5247 -1.2089
   8023SM  H14G10672   1.335   0.184   5.120  2.0270  0.5797  0.0188
   8023SM  C15F10673   1.348   0.261   4.915  0.4108  0.4261  0.4888
   8023SM  H15F10674   1.348   0.156   4.878  3.1918  0.2793  0.6518
   8023SM  H15G10675   1.454   0.295   4.924  1.2559 -2.1508  1.1556
   8023SM  C16F10676   1.294   0.357   4.808 -0.3480 -0.1916 -0.7351
   8023SM  H16F10677   1.306   0.466   4.822 -2.0628 -0.1454  0.6474
   8023SM  H16G10678   1.184   0.341   4.799 -0.3200 -0.6916 -0.2560
   8023SM  C17F10679   1.335   0.307   4.668 -0.2783 -0.2793  0.1003
   8023SM  H17F10680   1.286   0.367   4.588 -1.0293 -0.1707  0.6266
   8023SM  H17G10681   1.301   0.202   4.652  2.0927 -0.8059 -2.0476
   8023SM  C18F10682   1.486   0.323   4.637  0.4890 -0.0685  0.9255
   8023SM  H18F10683   1.511   0.260   4.550  3.1468  0.0748  1.5003
   8023SM  H18G10684   1.533   0.295   4.734 -0.2604  0.9492  1.6172
   8023SM  C19F10685   1.520   0.467   4.589 -0.7565  0.1087 -0.1888
   8023SM  H19F10686   1.462   0.539   4.650 -1.7554 -0.8939  0.0783
   8023SM  H19G10687   1.472   0.482   4.491 -1.8830 -0.4897  0.2610
   8023SM  C20F10688   1.671   0.493   4.594  0.2213 -0.1620 -0.0564
   8023SM  H20F10689   1.718   0.437   4.510  0.3581  0.2767 -0.2779
   8023SM  H20G10690   1.711   0.449   4.687  2.4507  0.6686 -0.5683
   8023SM  C21F10691   1.696   0.643   4.578  0.2734  0.4223  0.4009
   8023SM  H21F10692   1.658   0.699   4.666  1.8434  2.0414  0.0974
   8023SM  H21G10693   1.634   0.676   4.492  2.1652  1.9344 -0.4591
   8023SM  C22F10694   1.846   0.689   4.579  0.2484 -0.5235  0.8816
   8023SM  H22F10695   1.882   0.695   4.474 -0.7762  2.6489  0.5883
   8023SM  H22G10696   1.902   0.617   4.641  1.2418 -0.6968 -0.1883
   8023SM  C23F10697   1.861   0.829   4.630 -0.4487 -0.2268 -0.4835
   8023SM  H23F10698   1.779   0.900   4.605 -0.6258  0.2850  1.3952
   8023SM  H23G10699   1.949   0.889   4.601 -0.1999  0.5683  1.7225
   8023SM  H23H10700   1.869   0.828   4.741 -0.6790  2.0330 -0.4131
   8123SM     N10701   3.738   4.542   2.236 -0.6161 -0.3559 -0.2517
   8123SM   C1510702   3.786   4.473   2.360  0.0487 -0.4223 -0.3656
   8123SM  H15A10703   3.755   4.370   2.369 -1.8291  0.0587 -0.7456
   8123SM  H15B10704   3.757   4.519   2.453 -0.8373 -1.8820  0.1070
   8123SM  H15C10705   3.894   4.467   2.359  0.2283  1.3919  1.2814
   8123SM   C1410706   3.816   4.674   2.230  1.2260  0.4231 -0.1076
   8123SM  H14A10707   3.923   4.660   2.225  1.5334  2.7074 -1.7032
   8123SM  H14B10708   3.802   4.734   2.319 -1.7650  0.0303 -0.2279
   8123SM  H14C10709   3.790   4.729   2.141  0.3942 -1.3885 -1.0226
   8123SM   C1310710   3.777   4.459   2.121 -1.0091 -0.1086  0.2456
   8123SM  H13A10711   3.880   4.429   2.125 -0.0378  2.4603 -2.4170
   8123SM  H13B10712   3.760   4.506   2.026  1.0503 -0.6089 -0.4226
   8123SM  H13C10713   3.718   4.369   2.117 -2.4102  0.7771  0.0988
   8123SM   C1210714   3.588   4.555   2.247  0.4936  0.4077 -0.1729
   8123SM  H12A10715   3.554   4.639   2.188  0.2763  1.7611  1.7748
   8123SM  H12B10716   3.553   4.578   2.347 -0.1933 -1.0988 -0.0477
   8123SM   C1110717   3.514   4.425   2.210 -0.1295  0.6298  0.9784
   8123SM  H11A10718   3.558   4.332   2.251 -1.4883 -1.2801 -1.5753
   8123SM  H11B10719   3.525   4.430   2.099 -2.3853  0.4487  0.6925
   8123SM     P10720   3.314   4.361   2.362 -0.1228 -0.2349 -0.0980
   8123SM   O1310721   3.181   4.419   2.381 -0.0924 -0.0485 -0.2118
   8123SM   O1410722   3.319   4.212   2.327 -0.2705 -0.0376 -0.3487
   8123SM   O1110723   3.406   4.385   2.491 -0.4323 -0.2985  0.2476
   8123SM   O1210724   3.378   4.452   2.248  0.3563 -0.0917 -0.5718
   8123SM   C1S10725   3.338   4.416   2.612  0.9712 -0.3828  0.4906
   8123SM   H1S10726   3.269   4.333   2.638  0.9973 -0.2689  0.9475
   8123SM   H1T10727   3.273   4.506   2.609 -0.0182 -1.1095 -1.2811
   8123SM    NF10728   3.365   4.445   2.854 -0.0362  0.4324  0.0981
   8123SM   HNF10729   3.355   4.534   2.898  0.4863  0.2559  0.5651
   8123SM   C2S10730   3.439   4.446   2.724 -0.3212  0.4241 -0.2534
   8123SM   H2S10731   3.511   4.362   2.717  0.7037  1.2759 -0.2066
   8123SM   C3S10732   3.505   4.578   2.707 -0.9181  0.4993  0.1170
   8123SM   H3S10733   3.429   4.659   2.703 -1.3466  0.0710 -0.5853
   8123SM    O310734   3.575   4.598   2.586 -0.3097 -0.0564 -0.3040
   8123SM   HO310735   3.540   4.539   2.519  0.3678 -0.1734 -0.5617
   8123SM   C4S10736   3.598   4.614   2.827 -0.1007 -0.4858  0.2880
   8123SM   H4S10737   3.542   4.661   2.909 -2.1631  0.7118 -1.6974
   8123SM   C5S10738   3.733   4.592   2.845  0.0670  0.0662  0.4803
   8123SM   H5S10739   3.788   4.555   2.758 -0.0409  3.7035 -1.3299
   8123SM   C6S10740   3.816   4.623   2.966  0.7663 -0.2182  0.0369
   8123SM   H6S10741   3.883   4.709   2.943  0.4509  0.4797  1.5606
   8123SM   H6T10742   3.879   4.538   2.999 -0.4470 -0.5667  1.5585
   8123SM   C7S10743   3.733   4.659   3.087  0.2645  0.4205  0.1420
   8123SM   H7S10744   3.673   4.572   3.119  0.9046  0.1727  0.6889
   8123SM   H7T10745   3.663   4.744   3.070  1.8477  2.1112  1.6443
   8123SM   C8S10746   3.826   4.705   3.199 -0.0731 -0.3075  0.6916
   8123SM   H8S10747   3.877   4.790   3.148  0.3944 -2.0059 -1.8453
   8123SM   H8T10748   3.900   4.626   3.225  0.4927 -0.4283 -1.1295
   8123SM   C9S10749   3.741   4.757   3.320 -0.1914  0.4235 -0.1909
   8123SM   H9S10750   3.679   4.681   3.372 -0.7742  2.2978  2.0438
   8123SM   H9T10751   3.668   4.830   3.279  0.2904  1.5502  0.8951
   8123SM  C10S10752   3.829   4.809   3.435  0.8499 -0.1973 -0.5247
   8123SM  H10S10753   3.895   4.891   3.401  1.3849  0.5504  2.0767
   8123SM  H10T10754   3.906   4.731   3.453  0.2070 -0.7358 -0.0412
   8123SM  C11S10755   3.752   4.841   3.563  0.2786  0.0174 -0.4497
   8123SM  H11S10756   3.658   4.896   3.542  1.4534  1.7051 -1.4883
   8123SM  H11T10757   3.813   4.908   3.627  0.3064  0.0962 -0.5593
   8123SM  C12S10758   3.723   4.716   3.646  0.5605  0.1321 -0.1274
   8123SM  H12S10759   3.820   4.667   3.671 -0.4177 -1.7817  0.1614
   8123SM  H12T10760   3.669   4.646   3.579 -0.7407  1.2712 -0.3013
   8123SM  C13S10761   3.649   4.729   3.779  0.1756 -0.1882  0.4773
   8123SM  H13S10762   3.642   4.630   3.830  2.4209 -0.2905  0.7108
   8123SM  H13T10763   3.545   4.767   3.772  1.1988  2.6897 -0.7391
   8123SM  C14S10764   3.722   4.830   3.875  0.5535  0.1236 -0.0545
   8123SM  H14S10765   3.693   4.930   3.837 -1.2341 -0.0571  0.7147
   8123SM  H14T10766   3.833   4.829   3.871  0.5110  0.1424 -1.6775
   8123SM  C15S10767   3.666   4.810   4.018  0.0706 -0.2339 -0.5884
   8123SM  H15S10768   3.565   4.763   4.018  0.5902 -1.6743  2.7413
   8123SM  H15T10769   3.657   4.906   4.073  0.4442 -0.3038 -0.3989
   8123SM  C16S10770   3.764   4.716   4.090  0.2851  0.4543 -0.1243
   8123SM  H16S10771   3.862   4.767   4.107 -1.0573  3.6168 -1.1740
   8123SM  H16T10772   3.773   4.627   4.023  1.6755 -0.9179  1.7544
   8123SM  C17S10773   3.717   4.657   4.230  0.3471  0.3310 -0.3852
   8123SM  H17S10774   3.623   4.600   4.213 -0.6524  1.3486  1.4603
   8123SM  H17T10775   3.697   4.739   4.301 -0.7551  0.4320 -0.7902
   8123SM  C18S10776   3.812   4.556   4.290 -0.3571 -0.2317  0.6917
   8123SM  H18S10777   3.907   4.613   4.297 -0.7194  1.2133 -3.2233
   8123SM  H18T10778   3.827   4.470   4.221  0.9593  1.0039 -0.6582
   8123SM  H18U10779   3.790   4.522   4.393  1.5074 -5.7142 -0.3530
   8123SM   C1F10780   3.335   4.331   2.910 -0.7995 -0.6219  0.1886
   8123SM    OF10781   3.356   4.228   2.848  0.1579 -0.6101 -0.1411
   8123SM   C2F10782   3.281   4.333   3.051  0.2658  0.4500  0.0710
   8123SM   H2F10783   3.198   4.405   3.060  2.1356  2.6348  0.6363
   8123SM   H2G10784   3.354   4.370   3.126  1.5118  1.3358 -1.5057
   8123SM   C3F10785   3.240   4.186   3.088 -0.0528 -0.1852  0.0389
   8123SM   H3F10786   3.321   4.124   3.132 -1.4534 -1.4346  0.9405
   8123SM   H3G10787   3.195   4.126   3.007 -0.6260  0.3270 -0.0296
   8123SM   C4F10788   3.132   4.177   3.200  0.4504  0.7002 -0.0715
   8123SM   H4F10789   3.106   4.069   3.210  0.2869  0.5071 -2.1236
   8123SM   H4G10790   3.047   4.244   3.175 -0.4134 -0.3361 -0.0032
   8123SM   C5F10791   3.175   4.217   3.342 -0.9019 -0.2553  0.1323
   8123SM   H5F10792   3.078   4.203   3.395 -1.8954 -1.5706 -1.8920
   8123SM   H5G10793   3.210   4.322   3.348 -2.2446  0.1996  0.2595
   8123SM   C6F10794   3.293   4.130   3.399 -0.4716  0.5349 -0.0630
   8123SM   H6F10795   3.381   4.154   3.336  0.8713 -1.4365  0.9676
   8123SM   H6G10796   3.280   4.020   3.389 -1.3984  0.4704  1.5492
   8123SM   C7F10797   3.346   4.159   3.537  0.2739  0.3614  0.2068
   8123SM   H7F10798   3.372   4.267   3.544  0.6933  0.2076  1.2554
   8123SM   H7G10799   3.434   4.096   3.563  1.1355  0.7992 -1.5172
   8123SM   C8F10800   3.250   4.123   3.651 -0.0211 -0.6923 -0.6051
   8123SM   H8F10801   3.196   4.027   3.634 -0.7704 -0.3955  0.0300
   8123SM   H8G10802   3.176   4.205   3.658  1.5642  0.9709 -2.0882
   8123SM   C9F10803   3.305   4.119   3.798  0.0783 -0.4267 -0.5010
   8123SM   H9F10804   3.335   4.223   3.824  0.1692 -1.1851  2.8866
   8123SM   H9G10805   3.388   4.045   3.793  0.7786  0.2154  0.9997
   8123SM  C10F10806   3.210   4.069   3.912 -0.6684 -0.1811 -0.7689
   8123SM  H10F10807   3.172   3.968   3.886 -4.7939  1.2516 -1.1290
   8123SM  H10G10808   3.119   4.133   3.916 -0.9917 -0.5981  3.9379
   8123SM  C11F10809   3.269   4.082   4.056  0.2590 -0.2156 -0.6999
   8123SM  H11F10810   3.365   4.136   4.044 -0.7462  2.3105  1.5720
   8123SM  H11G10811   3.290   3.981   4.099  2.5268 -0.0422 -1.2928
   8123SM  C12F10812   3.172   4.158   4.147 -0.0417  0.0996  0.5137
   8123SM  H12F10813   3.071   4.112   4.139  0.4527 -0.6739 -2.9558
   8123SM  H12G10814   3.172   4.264   4.115  1.3379  0.8671  2.7414
   8123SM  C13F10815   3.229   4.162   4.292 -0.2239 -0.1575  0.6622
   8123SM  H13F10816   3.331   4.207   4.293 -0.0421 -0.5023 -0.8921
   8123SM  H13G10817   3.222   4.055   4.319 -0.9770 -0.4245 -0.5493
   8123SM  C14F10818   3.145   4.251   4.389 -0.1489 -0.0545 -0.2403
   8123SM  H14F10819   3.036   4.228   4.387 -0.5388  1.3269  1.6349
   8123SM  H14G10820   3.161   4.353   4.349  2.2945  0.4698  1.7825
   8123SM  C15F10821   3.209   4.251   4.525  0.9236  1.0141  0.4244
   8123SM  H15F10822   3.315   4.285   4.532  0.4466  2.3432  1.7284
   8123SM  H15G10823   3.214   4.147   4.564 -0.2519  0.4170 -0.9379
   8123SM  C16F10824   3.126   4.335   4.624  0.3359  0.1064  0.9311
   8123SM  H16F10825   3.018   4.312   4.607  0.3308  1.5950 -1.5520
   8123SM  H16G10826   3.127   4.442   4.595 -0.7501  0.2137  1.2276
   8123SM  C17F10827   3.162   4.312   4.771 -0.1346 -0.0981  0.8817
   8123SM  H17F10828   3.273   4.298   4.769 -0.3103 -1.6279 -0.5804
   8123SM  H17G10829   3.115   4.218   4.805  0.0083 -1.4816 -2.3684
   8123SM  C18F10830   3.135   4.434   4.856  0.3126  0.3362 -0.6053
   8123SM  H18F10831   3.026   4.454   4.860  0.6911  2.6540 -0.7545
   8123SM  H18G10832   3.179   4.524   4.809  0.0607  1.3644  1.0597
   8123SM  C19F10833   3.189   4.414   4.999  0.7061 -0.6715 -0.3813
   8123SM  H19F10834   3.278   4.348   4.998  3.6036  2.9374 -1.9350
   8123SM  H19G10835   3.107   4.362   5.052  0.3562 -1.5082 -1.6792
   8123SM  C20F10836   3.214   4.545   5.081 -0.5637 -0.9178  0.4018
   8123SM  H20F10837   3.121   4.605   5.072 -0.0239  0.3462  2.6329
   8123SM  H20G10838   3.296   4.602   5.033 -1.0704  0.5333  1.2093
   8123SM  C21F10839   3.249   4.518   5.225 -0.2421 -0.1832 -0.0589
   8123SM  H21F10840   3.339   4.455   5.240  1.1684  1.7089 -0.2689
   8123SM  H21G10841   3.169   4.453   5.266  0.2649  0.4658  2.0908
   8123SM  C22F10842   3.249   4.640   5.317  0.0699  0.6223 -0.0331
   8123SM  H22F10843   3.146   4.675   5.341  0.7624  2.8891 -0.0853
   8123SM  H22G10844   3.303   4.726   5.272  0.6206 -0.0242 -0.6336
   8123SM  C23F10845   3.325   4.610   5.448 -0.1964  0.7630 -0.2812
   8123SM  H23F10846   3.314   4.704   5.505 -0.9639  0.5497 -0.0643
   8123SM  H23G10847   3.430   4.581   5.426 -0.6685 -0.9152 -0.5108
   8123SM  H23H10848   3.275   4.536   5.515  1.8224  2.6014  3.5397
   8223SM     N10849   2.971   4.768   2.375 -0.3624 -0.0550 -0.0609
   8223SM   C1510850   2.950   4.918   2.382 -0.6691 -0.4066 -0.1596
   8223SM  H15A10851   2.849   4.942   2.352 -0.6802 -0.4750 -0.1772
   8223SM  H15B10852   3.016   4.971   2.316  0.4154 -1.2965  0.1743
   8223SM  H15C10853   2.969   4.955   2.481 -1.7397  0.2451 -0.1878
   8223SM   C1410854   2.874   4.689   2.455  0.4340  0.5589 -0.7113
   8223SM  H14A10855   2.778   4.713   2.413  0.5470 -0.6767 -1.7209
   8223SM  H14B10856   2.868   4.712   2.560  1.1554  0.1486 -0.5759
   8223SM  H14C10857   2.877   4.582   2.443 -2.8077  0.1250  1.2952
   8223SM   C1310858   2.962   4.725   2.237  0.3561  0.5004 -0.4268
   8223SM  H13A10859   2.985   4.620   2.225  2.7213  1.0055 -0.8454
   8223SM  H13B10860   3.030   4.782   2.176 -0.5693  1.0590 -0.9574
   8223SM  H13C10861   2.866   4.746   2.193 -0.4794  0.7300  1.4163
   8223SM   C1210862   3.109   4.740   2.420  0.0688 -0.0324 -0.0284
   8223SM  H12A10863   3.178   4.801   2.363  0.3204 -0.9915 -0.7854
   8223SM  H12B10864   3.138   4.638   2.398  0.4443 -0.2511  1.4025
   8223SM   C1110865   3.144   4.762   2.570 -0.4542  0.4690  0.4420
   8223SM  H11A10866   3.246   4.725   2.592 -0.9530 -1.1660  0.1082
   8223SM  H11B10867   3.074   4.716   2.643 -0.3954  1.2398  0.9993
   8223SM     P10868   3.249   4.998   2.614  0.0779  0.4350  0.0217
   8223SM   O1310869   3.311   4.992   2.480 -0.1861 -0.4835 -0.0759
   8223SM   O1410870   3.199   5.133   2.659  0.3042 -0.4244  0.2233
   8223SM   O1110871   3.347   4.936   2.722 -0.7562 -0.1444  0.1527
   8223SM   O1210872   3.130   4.901   2.610  0.1098 -0.2633  0.3854
   8223SM   C1S10873   3.302   4.932   2.862 -0.3597  0.5077 -0.0302
   8223SM   H1S10874   3.248   4.838   2.885 -1.3762  0.8790 -0.7921
   8223SM   H1T10875   3.231   5.013   2.888  0.8956  2.1090 -1.3911
   8223SM    NF10876   3.375   4.897   3.094 -0.5731  0.2946 -0.2532
   8223SM   HNF10877   3.357   4.973   3.156  2.0823 -0.2984  1.4080
   8223SM   C2S10878   3.424   4.949   2.961  1.0123 -0.2143  0.2053
   8223SM   H2S10879   3.500   4.880   2.919 -1.4500 -2.1414 -1.3328
   8223SM   C3S10880   3.481   5.094   2.965  0.7425  1.3269 -0.6653
   8223SM   H3S10881   3.392   5.155   2.992  1.0364  2.2903 -1.7967
   8223SM    O310882   3.519   5.147   2.838 -0.5312  0.4089  0.2297
   8223SM   HO310883   3.514   5.080   2.770 -1.1287  0.1066  0.5637
   8223SM   C4S10884   3.586   5.112   3.074  0.1539  0.4145 -0.1270
   8223SM   H4S10885   3.542   5.131   3.173 -0.8716 -0.0777 -0.4760
   8223SM   C5S10886   3.718   5.103   3.056  0.6697  0.0581 -0.2067
   8223SM   H5S10887   3.755   5.083   2.954 -0.5618  0.1468 -0.6813
   8223SM   C6S10888   3.816   5.127   3.168  0.9301 -0.6592 -0.6422
   8223SM   H6S10889   3.880   5.214   3.138  1.0190 -0.0864  1.1056
   8223SM   H6T10890   3.879   5.036   3.174 -0.3320 -1.5459 -0.6594
   8223SM   C7S10891   3.790   5.149   3.317  0.5544 -0.6821  0.4893
   8223SM   H7S10892   3.739   5.063   3.366  1.0787 -2.3117 -1.6797
   8223SM   H7T10893   3.706   5.221   3.327 -1.1942 -2.2711 -1.6320
   8223SM   C8S10894   3.913   5.191   3.396 -0.1600  0.8680  0.1141
   8223SM   H8S10895   3.957   5.283   3.352 -0.5608  0.1111 -1.9781
   8223SM   H8T10896   3.992   5.115   3.381 -2.0343 -0.9683 -0.9426
   8223SM   C9S10897   3.890   5.213   3.549  0.1765 -0.7346  0.1292
   8223SM   H9S10898   3.988   5.239   3.595  0.3943 -0.5807 -0.4161
   8223SM   H9T10899   3.859   5.119   3.599  0.6744 -1.4046 -0.7937
   8223SM  C10S10900   3.802   5.325   3.586  0.0321 -0.2841  0.6415
   8223SM  H10S10901   3.695   5.299   3.570 -0.5840  2.0709  0.5226
   8223SM  H10T10902   3.815   5.416   3.523 -2.1191 -0.5473 -0.2692
   8223SM  C11S10903   3.813   5.381   3.727  0.0578 -0.6627 -0.3370
   8223SM  H11S10904   3.729   5.454   3.731 -0.0427 -0.5689 -2.7010
   8223SM  H11T10905   3.909   5.437   3.734 -0.9595  1.0846  0.3394
   8223SM  C12S10906   3.800   5.277   3.835 -0.6408 -0.7436  0.3773
   8223SM  H12S10907   3.889   5.213   3.818 -0.6684 -0.5089 -0.7217
   8223SM  H12T10908   3.705   5.220   3.824 -1.1105  0.5422 -4.4018
   8223SM  C13S10909   3.808   5.330   3.977  0.9936  0.8531 -0.0875
   8223SM  H13S10910   3.727   5.398   4.009 -1.3811 -1.8342 -0.0055
   8223SM  H13T10911   3.901   5.388   3.994  0.0908  2.0900  0.7935
   8223SM  C14S10912   3.817   5.218   4.075 -0.7654 -0.1231 -0.0957
   8223SM  H14S10913   3.923   5.184   4.067  0.6855  4.1868 -1.7743
   8223SM  H14T10914   3.752   5.132   4.047  0.2352 -1.1330  0.5715
   8223SM  C15S10915   3.781   5.254   4.220  0.1402  0.2314 -0.2330
   8223SM  H15S10916   3.678   5.292   4.200 -0.9999 -3.1592 -1.5123
   8223SM  H15T10917   3.848   5.330   4.265 -1.2772  0.2977  1.9011
   8223SM  C16S10918   3.781   5.134   4.307  0.7909 -0.1826  0.9670
   8223SM  H16S10919   3.881   5.088   4.324  0.7117 -0.0569  1.8255
   8223SM  H16T10920   3.734   5.055   4.244  2.1618 -0.5199  0.3244
   8223SM  C17S10921   3.698   5.143   4.436  0.1572 -0.3698 -0.4836
   8223SM  H17S10922   3.588   5.152   4.424  0.2013  3.4734  0.3647
   8223SM  H17T10923   3.726   5.238   4.487 -1.3817 -1.1530  1.9984
   8223SM  C18S10924   3.716   5.031   4.539  0.6244  0.3971  1.0405
   8223SM  H18S10925   3.816   5.025   4.587  1.3492  2.4880 -0.1038
   8223SM  H18T10926   3.694   4.932   4.493 -1.5691  0.9293  0.8452
   8223SM  H18U10927   3.649   5.045   4.627  0.3767 -0.8684  1.0743
   8223SM   C1F10928   3.346   4.774   3.130  0.0048  0.7574 -0.3007
   8223SM    OF10929   3.331   4.688   3.047 -0.6653  0.0339 -0.1399
   8223SM   C2F10930   3.334   4.756   3.279 -0.1546  0.4214 -0.4500
   8223SM   H2F10931   3.236   4.797   3.313  1.7662  3.5243  1.8828
   8223SM   H2G10932   3.420   4.808   3.326 -0.5535  2.9343 -2.2611
   8223SM   C3F10933   3.357   4.603   3.313  0.7545 -0.0137  0.9826
   8223SM   H3F10934   3.448   4.567   3.260  0.2781  1.4387 -0.9509
   8223SM   H3G10935   3.277   4.537   3.273 -1.5937  2.5451  1.1529
   8223SM   C4F10936   3.374   4.585   3.464 -0.3366 -0.0005  0.1527
   8223SM   H4F10937   3.449   4.647   3.517 -1.5523  0.5108  1.3509
   8223SM   H4G10938   3.407   4.480   3.472  1.1096  0.4513  0.2663
   8223SM   C5F10939   3.245   4.589   3.564 -1.0018 -0.0491 -0.2225
   8223SM   H5F10940   3.168   4.516   3.533 -0.6556 -0.1387 -0.9154
   8223SM   H5G10941   3.202   4.691   3.570  1.2707  0.9070  0.9063
   8223SM   C6F10942   3.289   4.550   3.699  0.1934  1.2061  0.0723
   8223SM   H6F10943   3.392   4.580   3.729 -0.0728  1.9214  0.2863
   8223SM   H6G10944   3.294   4.439   3.705  0.7042  1.1174 -1.4038
   8223SM   C7F10945   3.196   4.599   3.807 -0.0043 -0.2117 -0.4024
   8223SM   H7F10946   3.098   4.546   3.803 -0.2937  0.3829 -1.8217
   8223SM   H7G10947   3.178   4.706   3.785 -1.5287 -0.5575 -0.9757
   8223SM   C8F10948   3.251   4.592   3.956 -0.1714 -0.0064  1.2295
   8223SM   H8F10949   3.316   4.679   3.978 -1.1688  0.5293  2.1331
   8223SM   H8G10950   3.316   4.503   3.964 -0.0694 -0.2962 -1.7000
   8223SM   C9F10951   3.140   4.612   4.053 -0.5417  0.3117 -0.1957
   8223SM   H9F10952   3.056   4.543   4.028 -0.6857 -0.2219  1.6170
   8223SM   H9G10953   3.100   4.716   4.052 -3.0330 -0.5567 -2.0326
   8223SM  C10F10954   3.193   4.573   4.192 -0.1461 -0.4080 -0.3038
   8223SM  H10F10955   3.257   4.483   4.207 -0.3079 -0.5612 -0.5293
   8223SM  H10G10956   3.097   4.544   4.239  0.6477  0.1004  1.7447
   8223SM  C11F10957   3.253   4.687   4.274 -0.3242  0.6992  0.6490
   8223SM  H11F10958   3.184   4.774   4.268 -4.0894 -2.0428  0.1995
   8223SM  H11G10959   3.358   4.701   4.242 -0.6381  0.5094 -0.5176
   8223SM  C12F10960   3.264   4.641   4.420 -0.3558 -0.2960  0.4973
   8223SM  H12F10961   3.329   4.552   4.432 -0.9249 -0.6250  1.3097
   8223SM  H12G10962   3.161   4.607   4.447 -0.9583  1.8117  1.1049
   8223SM  C13F10963   3.300   4.761   4.511 -0.0098  0.8370 -0.4097
   8223SM  H13F10964   3.254   4.740   4.609 -1.5140  1.9790 -0.8267
   8223SM  H13G10965   3.264   4.855   4.464 -0.7408  0.7296 -0.0655
   8223SM  C14F10966   3.447   4.769   4.543  0.1563 -0.5948  0.0632
   8223SM  H14F10967   3.464   4.854   4.612  0.0468 -0.7066  0.2282
   8223SM  H14G10968   3.492   4.793   4.444 -1.1768 -0.4386 -0.5314
   8223SM  C15F10969   3.518   4.642   4.599 -0.2327 -0.3018 -0.4858
   8223SM  H15F10970   3.622   4.657   4.634 -1.3834  0.1219  3.1826
   8223SM  H15G10971   3.518   4.565   4.519 -1.7574 -2.0559  1.1029
   8223SM  C16F10972   3.463   4.578   4.726  0.2106 -0.1320  0.6636
   8223SM  H16F10973   3.370   4.522   4.700 -0.7821  0.7546  2.1715
   8223SM  H16G10974   3.438   4.657   4.800 -0.8108 -0.4394  0.6554
   8223SM  C17F10975   3.550   4.469   4.784 -0.7987 -0.2893  0.6722
   8223SM  H17F10976   3.552   4.386   4.709 -1.9567 -1.6232  2.0488
   8223SM  H17G10977   3.496   4.433   4.874  0.0167  0.3697  1.4323
   8223SM  C18F10978   3.697   4.502   4.826 -0.4521 -0.1509 -0.4832
   8223SM  H18F10979   3.691   4.591   4.893  0.6400 -1.1622  1.0196
   8223SM  H18G10980   3.763   4.528   4.740  3.8287 -0.3176  2.4120
   8223SM  C19F10981   3.770   4.389   4.905  0.2256  0.8947  0.5838
   8223SM  H19F10982   3.879   4.409   4.902  0.7097 -1.4344  0.5385
   8223SM  H19G10983   3.750   4.297   4.846 -1.0524  0.4002  1.7410
   8223SM  C20F10984   3.711   4.349   5.043 -0.2087  0.1123 -0.0304
   8223SM  H20F10985   3.760   4.258   5.085  1.3154  0.0278 -1.8841
   8223SM  H20G10986   3.606   4.317   5.026 -0.0987  0.5998 -1.8562
   8223SM  C21F10987   3.702   4.461   5.147 -0.2273 -0.1055 -0.6675
   8223SM  H21F10988   3.667   4.419   5.244  0.5110  0.7681 -0.0108
   8223SM  H21G10989   3.638   4.546   5.117  1.1353  0.8592 -0.8932
   8223SM  C22F10990   3.835   4.535   5.177  0.3803  0.0590 -0.0601
   8223SM  H22F10991   3.856   4.606   5.095 -1.5189  0.4117 -0.2702
   8223SM  H22G10992   3.927   4.473   5.189  1.0930  1.0458 -0.2893
   8223SM  C23F10993   3.820   4.614   5.305 -0.6518 -0.2915  0.2900
   8223SM  H23F10994   3.737   4.687   5.297 -0.5071 -0.1108  0.4218
   8223SM  H23G10995   3.914   4.671   5.317 -1.1614  0.9823 -1.3299
   8223SM  H23H10996   3.792   4.550   5.391 -2.3898  1.7293  1.3304
   8323SM     N10997   3.193   3.822   2.036 -0.1015  0.1757 -0.3908
   8323SM   C1510998   3.214   3.889   2.168 -0.3436 -0.3374  0.5280
   8323SM  H15A10999   3.319   3.916   2.176 -1.2479  3.9207  0.3861
   8323SM  H15B11000   3.185   3.831   2.254  1.6375 -0.7682  0.9660
   8323SM  H15C11001   3.165   3.985   2.166 -1.9495 -1.1450 -0.5268
   8323SM   C1411002   3.199   3.919   1.925 -0.0270  0.3650  0.0103
   8323SM  H14A11003   3.124   3.997   1.925 -2.3026 -1.7194  0.1402
   8323SM  H14B11004   3.197   3.872   1.828  0.2563 -0.0667  0.2102
   8323SM  H14C11005   3.297   3.965   1.922  0.3503 -0.4581 -2.0867
   8323SM   C1311006   3.298   3.717   2.007  0.4082 -0.4808 -0.2438
   8323SM  H13A11007   3.399   3.756   2.004  0.8443 -1.6096 -2.5567
   8323SM  H13B11008   3.282   3.673   1.910 -0.5687 -0.2820 -0.1800
   8323SM  H13C11009   3.312   3.637   2.078  0.8895 -0.3833 -0.2266
   8323SM   C1211010   3.060   3.760   2.047 -0.8005 -0.0372 -0.2812
   8323SM  H12A11011   3.035   3.719   1.950  2.8493 -1.5175 -0.7545
   8323SM  H12B11012   2.988   3.838   2.065 -2.0711 -1.1393 -0.4847
   8323SM   C1111013   3.042   3.645   2.148 -0.4527  0.2063 -0.8981
   8323SM  H11A11014   3.119   3.565   2.156 -1.5006 -1.0646 -2.7205
   8323SM  H11B11015   2.949   3.601   2.107 -0.5931 -0.3238 -0.0443
   8323SM     P11016   2.940   3.632   2.391 -0.0422 -0.2661  0.4531
   8323SM   O1311017   2.806   3.698   2.410 -0.2537 -0.2773  0.6342
   8323SM   O1411018   2.927   3.487   2.360  0.3456  0.1599 -0.1220
   8323SM   O1111019   3.030   3.659   2.515  0.3532 -0.6143 -0.2744
   8323SM   O1211020   3.019   3.706   2.276 -0.4095 -0.3399 -0.2710
   8323SM   C1S11021   3.041   3.789   2.576 -0.0500  0.5584  0.0669
   8323SM   H1S11022   2.980   3.866   2.524 -0.1372  1.3823  1.3671
   8323SM   H1T11023   3.142   3.833   2.574 -0.8217  2.4079 -1.4642
   8323SM    NF11024   2.984   3.900   2.781  0.1014 -0.0871 -0.1878
   8323SM   HNF11025   3.066   3.940   2.822  0.6466  1.2879 -2.4746
   8323SM   C2S11026   3.000   3.768   2.726 -0.1708 -0.4357  1.1840
   8323SM   H2S11027   2.897   3.727   2.714 -1.2369  2.8163 -3.2682
   8323SM   C3S11028   3.092   3.667   2.794  0.3682  0.3623 -0.0427
   8323SM   H3S11029   3.199   3.687   2.775  0.2741  0.3404 -0.6059
   8323SM    O311030   3.057   3.534   2.759  0.6627 -0.0767  0.4355
   8323SM   HO311031   3.032   3.543   2.667  1.5587  1.4578  0.3050
   8323SM   C4S11032   3.084   3.666   2.947  0.2269  0.6613  0.7144
   8323SM   H4S11033   2.982   3.655   2.987 -0.0151  1.1967  0.2538
   8323SM   C5S11034   3.188   3.686   3.024  0.2378 -0.3299  0.5901
   8323SM   H5S11035   3.288   3.693   2.978  0.5066  0.5751  1.2832
   8323SM   C6S11036   3.194   3.707   3.168 -0.8101  0.7046  0.1004
   8323SM   H6S11037   3.246   3.803   3.184  0.5723  0.2620 -1.4666
   8323SM   H6T11038   3.244   3.620   3.217 -1.8164  0.6437  1.0667
   8323SM   C7S11039   3.057   3.718   3.234 -0.3674  0.4820 -0.8882
   8323SM   H7S11040   3.031   3.610   3.243  2.1980 -0.1663 -0.3710
   8323SM   H7T11041   2.981   3.772   3.174 -2.4103 -1.2178  0.0579
   8323SM   C8S11042   3.069   3.782   3.374 -0.6942 -0.2983  0.1238
   8323SM   H8S11043   3.101   3.885   3.346 -0.5026 -1.1936 -3.3687
   8323SM   H8T11044   3.133   3.722   3.441  0.2031  2.0335  1.4865
   8323SM   C9S11045   2.936   3.795   3.442  0.7557  0.0703 -0.5738
   8323SM   H9S11046   2.892   3.694   3.453 -0.4748  0.5981 -0.5310
   8323SM   H9T11047   2.865   3.858   3.384  0.6443  0.5626  0.0906
   8323SM  C10S11048   2.945   3.879   3.578 -0.2033  0.1548  0.3896
   8323SM  H10S11049   2.965   3.984   3.550  1.5041 -0.0197  0.8122
   8323SM  H10T11050   3.027   3.847   3.647  0.3411 -0.0732 -0.3484
   8323SM  C11S11051   2.820   3.869   3.665  0.1136  0.9219  0.5562
   8323SM  H11S11052   2.786   3.763   3.674  0.2094  0.7528 -0.8526
   8323SM  H11T11053   2.737   3.910   3.602  0.5046 -0.1378 -0.6947
   8323SM  C12S11054   2.834   3.935   3.795 -0.4274  0.0828  0.2953
   8323SM  H12S11055   2.736   3.981   3.818 -0.6235 -1.1126  2.0125
   8323SM  H12T11056   2.918   4.008   3.789 -0.6712  0.3686  0.3325
   8323SM  C13S11057   2.865   3.831   3.902 -0.2549 -0.0379  0.0119
   8323SM  H13S11058   2.954   3.771   3.874 -2.2735 -3.9423  1.2048
   8323SM  H13T11059   2.780   3.759   3.900 -0.5229 -0.0183  3.7301
   8323SM  C14S11060   2.872   3.881   4.047  0.4151  0.5007 -0.0268
   8323SM  H14S11061   2.964   3.941   4.064  1.0892 -0.4399 -0.2942
   8323SM  H14T11062   2.874   3.786   4.104  1.2175 -0.0310 -0.9098
   8323SM  C15S11063   2.742   3.944   4.088  0.1148  0.8044  0.1687
   8323SM  H15S11064   2.656   3.878   4.063 -0.5182  0.7737  2.2753
   8323SM  H15T11065   2.721   4.036   4.028 -1.2930  2.3390  2.8385
   8323SM  C16S11066   2.734   3.999   4.234 -0.8010 -0.3077 -0.0439
   8323SM  H16S11067   2.795   4.091   4.235  2.6664 -2.4251 -0.8891
   8323SM  H16T11068   2.782   3.926   4.303  1.1559  0.7148 -0.2616
   8323SM  C17S11069   2.582   4.033   4.265  0.0685  0.6511 -0.3528
   8323SM  H17S11070   2.519   3.945   4.238 -2.2743  1.9993  0.3921
   8323SM  H17T11071   2.553   4.104   4.185 -1.5446 -0.1171 -0.4970
   8323SM  C18S11072   2.554   4.087   4.407  0.3035  0.6875  0.5656
   8323SM  H18S11073   2.628   4.169   4.422 -0.6876  1.3919  1.8339
   8323SM  H18T11074   2.565   4.010   4.487 -1.8100 -0.3454 -0.0624
   8323SM  H18U11075   2.453   4.129   4.424  0.5537  1.7314 -0.4106
   8323SM   C1F11076   2.882   3.982   2.759  0.1534 -0.3039 -0.2851
   8323SM    OF11077   2.794   3.952   2.677  0.5937  0.1891  0.0738
   8323SM   C2F11078   2.878   4.111   2.838 -0.5572  0.1042  0.0280
   8323SM   H2F11079   2.808   4.189   2.799 -0.7163 -0.2394 -0.3774
   8323SM   H2G11080   2.980   4.147   2.863 -1.1188  0.2590  2.2997
   8323SM   C3F11081   2.821   4.069   2.975 -0.1883 -0.1446 -0.5167
   8323SM   H3F11082   2.881   3.998   3.036 -1.7179  0.2000  1.4732
   8323SM   H3G11083   2.728   4.011   2.956 -0.9147  0.7265  0.3232
   8323SM   C4F11084   2.781   4.192   3.066 -0.1124  0.3946 -0.4238
   8323SM   H4F11085   2.698   4.249   3.019 -0.7516 -0.9162 -0.9217
   8323SM   H4G11086   2.870   4.260   3.069 -0.3428  0.7928 -1.8375
   8323SM   C5F11087   2.748   4.159   3.215 -0.4194  0.4115  0.9359
   8323SM   H5F11088   2.831   4.091   3.245  0.8188  0.2785 -2.3576
   8323SM   H5G11089   2.652   4.104   3.218 -1.1230  1.5573  0.3613
   8323SM   C6F11090   2.739   4.279   3.305  0.0727  0.5094 -0.1429
   8323SM   H6F11091   2.678   4.359   3.259 -3.2489 -2.7042 -1.8148
   8323SM   H6G11092   2.842   4.318   3.318  1.0973 -1.5599 -1.5582
   8323SM   C7F11093   2.678   4.257   3.445  0.1101 -0.3694 -0.3502
   8323SM   H7F11094   2.692   4.148   3.465  2.0664  0.1314  1.3756
   8323SM   H7G11095   2.567   4.266   3.444  0.1284 -0.1352 -1.6383
   8323SM   C8F11096   2.739   4.350   3.556  0.1274  0.9389  0.0704
   8323SM   H8F11097   2.725   4.454   3.520 -1.7889  0.7897  0.2646
   8323SM   H8G11098   2.849   4.336   3.559  0.3795  2.1336 -1.8110
   8323SM   C9F11099   2.671   4.336   3.690  0.4824 -0.0811 -0.6610
   8323SM   H9F11100   2.684   4.232   3.725  0.8070  0.2574  0.2515
   8323SM   H9G11101   2.562   4.359   3.685  0.4236 -0.4206 -0.9410
   8323SM  C10F11102   2.729   4.435   3.796 -0.3164 -0.3193  0.3017
   8323SM  H10F11103   2.676   4.530   3.772  1.3364  0.4340 -0.6189
   8323SM  H10G11104   2.840   4.443   3.801 -0.0154 -3.4845  0.5309
   8323SM  C11F11105   2.698   4.396   3.939  0.3563 -0.3228 -0.2905
   8323SM  H11F11106   2.766   4.318   3.978 -0.7278 -0.8179  0.6830
   8323SM  H11G11107   2.594   4.361   3.955  0.7958 -0.9288  1.4751
   8323SM  C12F11108   2.725   4.520   4.032  0.0742  0.2849  0.0783
   8323SM  H12F11109   2.654   4.601   4.005 -1.0908 -0.2265  1.4352
   8323SM  H12G11110   2.829   4.548   4.006 -0.2998  0.4618 -1.3158
   8323SM  C13F11111   2.711   4.495   4.183  0.1104 -0.3371  0.1003
   8323SM  H13F11112   2.755   4.395   4.201 -1.4294 -1.2769 -1.0180
   8323SM  H13G11113   2.603   4.483   4.207  0.0357  0.4223  0.1747
   8323SM  C14F11114   2.782   4.604   4.266 -0.0855  0.3033 -0.4671
   8323SM  H14F11115   2.749   4.704   4.229  0.1250  1.0745  1.3217
   8323SM  H14G11116   2.891   4.609   4.246  0.2885  2.5083  1.6162
   8323SM  C15F11117   2.763   4.578   4.422 -0.1897 -0.2013 -0.1408
   8323SM  H15F11118   2.812   4.481   4.446  0.0387 -0.1582 -0.4207
   8323SM  H15G11119   2.654   4.575   4.440 -0.2003  1.7085  0.3655
   8323SM  C16F11120   2.824   4.684   4.511 -0.1671  0.3340 -0.3503
   8323SM  H16F11121   2.807   4.786   4.471  2.1687  1.5066  1.4159
   8323SM  H16G11122   2.934   4.674   4.503 -0.2220  0.4378 -1.3041
   8323SM  C17F11123   2.765   4.661   4.656 -0.2362 -0.8848 -0.0830
   8323SM  H17F11124   2.769   4.553   4.680  0.3989 -0.4876  1.8387
   8323SM  H17G11125   2.656   4.682   4.664 -0.1383 -0.0477 -0.7869
   8323SM  C18F11126   2.838   4.741   4.762 -0.3951  0.5260  0.4154
   8323SM  H18F11127   2.947   4.728   4.750 -0.7438 -0.5021 -2.5179
   8323SM  H18G11128   2.811   4.698   4.860 -1.5878 -1.1153 -0.5695
   8323SM  C19F11129   2.816   4.892   4.750 -0.0164  0.1189  0.5775
   8323SM  H19F11130   2.711   4.923   4.764  0.0597  0.3095  0.7480
   8323SM  H19G11131   2.848   4.932   4.652 -1.2303 -0.9949 -0.3022
   8323SM  C20F11132   2.897   4.968   4.857  0.7943 -0.2682 -0.2283
   8323SM  H20F11133   2.944   4.900   4.932 -1.1844  0.6579  1.9530
   8323SM  H20G11134   2.835   5.044   4.909  1.8978  1.6613 -1.6095
   8323SM  C21F11135   3.022   5.043   4.799 -0.1135 -0.8679  0.2004
   8323SM  H21F11136   2.987   5.135   4.747  0.9626  0.0173  1.0024
   8323SM  H21G11137   3.085   4.984   4.730 -0.0257  0.8334 -1.2483
   8323SM  C22F11138   3.111   5.087   4.910  0.0693 -0.6501 -0.0783
   8323SM  H22F11139   3.117   5.018   4.997  0.6449 -0.9718 -0.3683
   8323SM  H22G11140   3.070   5.178   4.959  1.3140 -1.0314  1.7858
   8323SM  C23F11141   3.256   5.123   4.869  0.0507 -0.4471 -0.0410
   8323SM  H23F11142   3.253   5.217   4.811  1.8459 -0.6498 -0.5283
   8323SM  H23G11143   3.304   5.035   4.820 -0.3913 -1.4296  1.2238
   8323SM  H23H11144   3.314   5.161   4.956  0.2237  1.3688 -0.9165
   8423SM     N11145   2.500   2.306   2.555  0.0756 -1.0623  0.1481
   8423SM   C1511146   2.631   2.376   2.569  0.2977 -0.0072  0.5341
   8423SM  H15A11147   2.701   2.354   2.490  0.7714  0.5466  0.7857
   8423SM  H15B11148   2.677   2.342   2.661  1.4427  0.8806  0.3265
   8423SM  H15C11149   2.625   2.484   2.573 -1.8884 -0.1245  1.5526
   8423SM   C1411150   2.420   2.315   2.683 -0.7749 -0.4937  0.3322
   8423SM  H14A11151   2.330   2.256   2.690 -1.3302  0.2382 -0.3803
   8423SM  H14B11152   2.388   2.413   2.713 -1.0498 -0.7883  1.0146
   8423SM  H14C11153   2.489   2.286   2.761 -0.0409 -0.3994 -0.2641
   8423SM   C1311154   2.442   2.389   2.437  0.2300  0.9029 -0.6647
   8423SM  H13A11155   2.505   2.386   2.349  0.6851 -1.1564 -0.3208
   8423SM  H13B11156   2.443   2.490   2.474  1.4286  0.2573  1.2679
   8423SM  H13C11157   2.346   2.354   2.403  0.9937  0.0760 -2.0717
   8423SM   C1211158   2.517   2.161   2.525 -0.6245 -0.1149  0.4600
   8423SM  H12A11159   2.422   2.109   2.522 -1.2714  0.7156  3.4283
   8423SM  H12B11160   2.561   2.114   2.613 -0.8901  1.0038  1.2075
   8423SM   C1111161   2.606   2.119   2.406  0.0741 -0.3316 -0.0913
   8423SM  H11A11162   2.598   2.204   2.335  4.1403  1.2132  1.0269
   8423SM  H11B11163   2.571   2.020   2.370 -0.9537  0.5111 -1.4965
   8423SM     P11164   2.807   1.994   2.509  0.1227 -0.0156 -0.0440
   8423SM   O1311165   2.716   1.949   2.620 -0.1001  0.3931 -0.2715
   8423SM   O1411166   2.844   1.895   2.408 -0.1173 -0.6332 -0.0862
   8423SM   O1111167   2.936   2.056   2.570  0.9839  0.0063 -0.4062
   8423SM   O1211168   2.749   2.117   2.430 -0.0992  0.1088 -0.0412
   8423SM   C1S11169   2.963   2.183   2.626  0.7795  0.4093 -0.1232
   8423SM   H1S11170   2.881   2.252   2.598 -2.3203 -2.9781 -0.1249
   8423SM   H1T11171   3.050   2.226   2.572  1.0160 -0.4829 -0.4746
   8423SM    NF11172   3.009   2.298   2.838  0.1048 -0.0769  0.3666
   8423SM   HNF11173   3.102   2.329   2.855 -0.5340  0.8198  2.4623
   8423SM   C2S11174   2.992   2.167   2.775 -0.2724 -0.2283  0.0235
   8423SM   H2S11175   2.902   2.127   2.826 -2.1418 -0.5994 -3.3043
   8423SM   C3S11176   3.116   2.065   2.797  0.6146 -0.5395  0.4967
   8423SM   H3S11177   3.206   2.109   2.750 -0.9693  0.2515 -1.9865
   8423SM    O311178   3.110   1.941   2.728 -0.3984  0.6933  0.0141
   8423SM   HO311179   3.040   1.948   2.662 -0.1166 -0.0884 -0.3812
   8423SM   C4S11180   3.128   2.039   2.947 -0.4867  0.0110 -0.2473
   8423SM   H4S11181   3.164   2.126   3.004  1.3849 -1.3762  0.8376
   8423SM   C5S11182   3.108   1.927   3.026  0.4092  0.0644  0.1175
   8423SM   H5S11183   3.096   1.826   2.984 -1.1035  0.7452 -1.1815
   8423SM   C6S11184   3.114   1.926   3.173 -0.1075  0.2155  0.6067
   8423SM   H6S11185   3.167   1.836   3.209 -0.8313 -0.4621  0.0137
   8423SM   H6T11186   3.009   1.919   3.208 -0.0852 -0.2781  0.5693
   8423SM   C7S11187   3.172   2.051   3.252  0.5470 -0.7809  0.4759
   8423SM   H7S11188   3.110   2.142   3.242 -1.0149 -1.8170  0.3375
   8423SM   H7T11189   3.273   2.068   3.208 -0.2973  0.2226 -1.1596
   8423SM   C8S11190   3.187   2.027   3.401 -0.3162  0.2831 -0.5984
   8423SM   H8S11191   3.263   1.951   3.432  1.2875  2.2902  0.6252
   8423SM   H8T11192   3.088   1.992   3.437 -0.0240 -1.0362 -1.0167
   8423SM   C9S11193   3.233   2.157   3.482  0.0015 -0.5350 -0.4595
   8423SM   H9S11194   3.154   2.234   3.474  0.0308 -0.0139  2.8428
   8423SM   H9T11195   3.326   2.194   3.434 -0.1691  2.6959  1.4399
   8423SM  C10S11196   3.252   2.137   3.632  0.4404  0.1159 -0.0552
   8423SM  H10S11197   3.335   2.066   3.654 -1.0459 -1.1697  1.7216
   8423SM  H10T11198   3.165   2.100   3.690 -0.7185  0.8937 -1.2318
   8423SM  C11S11199   3.286   2.265   3.704  0.0563 -0.0481 -0.4455
   8423SM  H11S11200   3.220   2.352   3.679 -1.2387 -1.0153 -0.5241
   8423SM  H11T11201   3.385   2.297   3.665 -1.0688  2.7674 -1.2869
   8423SM  C12S11202   3.305   2.245   3.856 -0.6085 -1.0276 -1.0367
   8423SM  H12S11203   3.375   2.165   3.889  0.7614  0.6219  0.3254
   8423SM  H12T11204   3.207   2.214   3.899 -1.8469  1.3150 -1.9772
   8423SM  C13S11205   3.357   2.373   3.929 -0.0464  0.2839 -0.3814
   8423SM  H13S11206   3.288   2.460   3.922  0.5358  0.9381  1.5856
   8423SM  H13T11207   3.449   2.413   3.880  0.8951  1.2717  2.0616
   8423SM  C14S11208   3.383   2.335   4.076 -0.6345 -0.2313  0.1729
   8423SM  H14S11209   3.450   2.247   4.069 -1.9922 -1.2797 -0.2216
   8423SM  H14T11210   3.286   2.300   4.119 -2.2619 -0.7477 -3.4590
   8423SM  C15S11211   3.445   2.440   4.160  0.0102 -0.1078 -0.2165
   8423SM  H15S11212   3.390   2.536   4.156 -0.3792 -0.2753  0.8707
   8423SM  H15T11213   3.547   2.460   4.119 -0.0947 -0.2538 -0.5566
   8423SM  C16S11214   3.481   2.396   4.301 -0.5986 -0.4254 -0.5640
   8423SM  H16S11215   3.515   2.290   4.300 -1.5584 -0.7559  0.1239
   8423SM  H16T11216   3.399   2.403   4.376  1.0673  1.4653  1.2016
   8423SM  C17S11217   3.592   2.482   4.363 -0.1980 -0.5066 -0.8416
   8423SM  H17S11218   3.561   2.589   4.360  1.3126  0.1092  1.6873
   8423SM  H17T11219   3.678   2.478   4.294 -0.2825  0.5615 -1.0300
   8423SM  C18S11220   3.632   2.449   4.503 -0.7934  0.1984 -0.0802
   8423SM  H18S11221   3.661   2.342   4.503 -2.4396 -0.2766 -0.7185
   8423SM  H18T11222   3.550   2.457   4.577  0.1159  1.7311  0.8117
   8423SM  H18U11223   3.725   2.505   4.529 -0.0802 -0.3703 -1.3190
   8423SM   C1F11224   2.911   2.389   2.840  0.1972  0.1354 -0.2876
   8423SM    OF11225   2.799   2.356   2.820  0.4471  0.4751 -0.0675
   8423SM   C2F11226   2.943   2.532   2.855  0.2275 -0.7899 -0.6947
   8423SM   H2F11227   2.870   2.604   2.812  0.5951  0.4941  0.7271
   8423SM   H2G11228   3.043   2.556   2.812 -0.4860  3.2315 -0.5174
   8423SM   C3F11229   2.959   2.567   3.002  0.7528 -0.3427 -0.3834
   8423SM   H3F11230   3.033   2.504   3.054  1.2494  1.0991  0.7350
   8423SM   H3G11231   2.856   2.563   3.044  0.8438  1.3693  0.1069
   8423SM   C4F11232   3.009   2.713   3.027  0.0245 -0.8099 -1.1404
   8423SM   H4F11233   2.938   2.796   3.007 -0.6963 -0.7692  1.3008
   8423SM   H4G11234   3.095   2.728   2.958  1.2826  2.0667  0.8623
   8423SM   C5F11235   3.064   2.731   3.171 -0.5752  0.3764 -0.0671
   8423SM   H5F11236   3.133   2.819   3.166  1.5966 -1.1579  1.1171
   8423SM   H5G11237   3.131   2.645   3.192 -1.1718 -0.0650  0.0317
   8423SM   C6F11238   2.955   2.777   3.274 -0.8761  0.4990 -0.1216
   8423SM   H6F11239   2.868   2.710   3.288 -0.9016  0.5557 -0.0038
   8423SM   H6G11240   2.917   2.875   3.240  1.9477  1.1010 -1.9022
   8423SM   C7F11241   3.016   2.794   3.410 -0.3566  0.2300  0.5069
   8423SM   H7F11242   3.098   2.869   3.412 -0.3141  0.2062 -0.1884
   8423SM   H7G11243   3.051   2.695   3.448  1.8525  1.6436  2.4605
   8423SM   C8F11244   2.906   2.855   3.508 -0.8223  0.3581 -0.9635
   8423SM   H8F11245   2.823   2.783   3.528  0.5532 -0.5742  2.0229
   8423SM   H8G11246   2.866   2.943   3.454  0.0187  0.4321 -1.4871
   8423SM   C9F11247   2.966   2.899   3.636 -0.0427 -0.5275 -0.8844
   8423SM   H9F11248   3.026   2.992   3.625  0.8312 -0.6454  2.1674
   8423SM   H9G11249   3.042   2.821   3.658  1.3891  1.1043  0.1213
   8423SM  C10F11250   2.872   2.915   3.753 -0.6016  0.4891  0.4327
   8423SM  H10F11251   2.794   2.836   3.750 -1.5048  1.3456  0.5175
   8423SM  H10G11252   2.821   3.014   3.752 -2.6242 -0.4698 -1.8352
   8423SM  C11F11253   2.932   2.897   3.891  0.2430  0.6261  0.4992
   8423SM  H11F11254   3.029   2.950   3.909 -0.2690  1.6173  0.4198
   8423SM  H11G11255   2.952   2.788   3.889 -0.1467  0.5200  1.7289
   8423SM  C12F11256   2.838   2.943   4.002 -0.1402  0.2551  0.2540
   8423SM  H12F11257   2.732   2.915   3.984  0.2564 -0.6233 -0.8513
   8423SM  H12G11258   2.844   3.054   4.002 -1.2548  0.3413  1.3904
   8423SM  C13F11259   2.877   2.883   4.136  0.1986  0.2372  0.2951
   8423SM  H13F11260   2.982   2.920   4.144  0.0565  0.5471  0.7875
   8423SM  H13G11261   2.873   2.773   4.126 -0.0165  0.0668  1.9905
   8423SM  C14F11262   2.793   2.927   4.257 -0.3789  0.6852  0.0584
   8423SM  H14F11263   2.870   2.895   4.331  2.1821 -1.0894 -3.1106
   8423SM  H14G11264   2.702   2.866   4.276  1.2419 -1.6929  0.6995
   8423SM  C15F11265   2.761   3.076   4.254  0.0218  0.0917  0.7856
   8423SM  H15F11266   2.690   3.081   4.168 -0.4124 -1.4707  1.0198
   8423SM  H15G11267   2.849   3.140   4.233 -0.0104 -0.1369 -0.0909
   8423SM  C16F11268   2.683   3.122   4.374  0.0721 -0.0127  0.2304
   8423SM  H16F11269   2.602   3.048   4.395  1.0861 -1.3995 -0.5532
   8423SM  H16G11270   2.630   3.218   4.359 -0.8328 -0.0379  2.7509
   8423SM  C17F11271   2.772   3.132   4.504 -0.1078  0.3448  0.5088
   8423SM  H17F11272   2.864   3.190   4.483  0.3599 -0.0550  1.3992
   8423SM  H17G11273   2.799   3.029   4.535 -2.4932  0.2092  2.4739
   8423SM  C18F11274   2.701   3.207   4.613 -0.1391 -0.1661 -1.4768
   8423SM  H18F11275   2.601   3.167   4.641  0.8843 -3.1719 -1.7557
   8423SM  H18G11276   2.674   3.309   4.576 -1.9937 -0.0501  0.0738
   8423SM  C19F11277   2.796   3.231   4.738  0.6349  0.0076  0.3519
   8423SM  H19F11278   2.765   3.325   4.788  2.7815  0.7238  0.4472
   8423SM  H19G11279   2.902   3.244   4.708  0.6783  0.3654  0.6542
   8423SM  C20F11280   2.785   3.116   4.838 -0.8538 -0.3089  0.1501
   8423SM  H20F11281   2.810   3.024   4.780 -0.0954  0.9881 -1.7048
   8423SM  H20G11282   2.681   3.120   4.877 -1.1317  0.1568 -0.6127
   8423SM  C21F11283   2.889   3.125   4.952  0.2222 -0.0900  0.0100
   8423SM  H21F11284   2.998   3.134   4.934  0.7149 -0.6917  2.2924
   8423SM  H21G11285   2.880   3.032   5.013  0.6518 -1.0671 -1.3676
   8423SM  C22F11286   2.843   3.239   5.041  0.1034 -0.6038 -0.3666
   8423SM  H22F11287   2.734   3.229   5.056 -0.0065  1.4164  0.4126
   8423SM  H22G11288   2.860   3.336   4.990 -0.7911 -1.1647 -1.7864
   8423SM  C23F11289   2.916   3.212   5.172  0.3063 -0.1355  0.1312
   8423SM  H23F11290   2.881   3.116   5.218 -1.1419 -0.8110 -2.2283
   8423SM  H23G11291   2.899   3.288   5.251 -1.9142 -0.4528  0.0278
   8423SM  H23H11292   3.027   3.215   5.162  0.5296 -0.7429  1.9017
   8523SM     N11293   5.369   4.210   2.034  0.4918 -0.2940  0.3685
   8523SM   C1511294   5.464   4.322   2.039  0.8196  0.8991 -0.6162
   8523SM  H15A11295   5.566   4.288   2.026  0.8264  1.0244 -0.9117
   8523SM  H15B11296   5.460   4.370   2.136  4.0449 -0.8498  0.5379
   8523SM  H15C11297   5.447   4.395   1.960  0.6322  2.0997  0.5059
   8523SM   C1411298   5.225   4.258   2.036  0.2283  0.0384  0.0783
   8523SM  H14A11299   5.209   4.333   1.960 -0.8072 -2.0292 -1.8576
   8523SM  H14B11300   5.208   4.298   2.135 -1.2032 -1.6175  0.5516
   8523SM  H14C11301   5.156   4.175   2.028  0.1125  0.1734 -0.3314
   8523SM   C1311302   5.401   4.145   1.903 -0.5665  0.0951  0.4573
   8523SM  H13A11303   5.398   4.220   1.825  2.1296  0.2687  0.4223
   8523SM  H13B11304   5.342   4.060   1.872 -0.3048 -0.1944  0.7486
   8523SM  H13C11305   5.506   4.121   1.916 -0.1152  1.4832 -0.3409
   8523SM   C1211306   5.398   4.107   2.143  0.2891 -0.5931 -0.3264
   8523SM  H12A11307   5.360   4.012   2.109 -1.9238 -0.7092  2.1171
   8523SM  H12B11308   5.340   4.122   2.233  0.0952  1.2134 -0.7003
   8523SM   C1111309   5.543   4.081   2.189  0.6906  0.4163  0.2561
   8523SM  H11A11310   5.541   4.010   2.274 -1.2386 -0.9302 -0.8504
   8523SM  H11B11311   5.599   4.174   2.212  1.1562  0.1056  0.4156
   8523SM     P11312   5.740   3.944   2.099 -0.2070 -0.5165 -0.5864
   8523SM   O1311313   5.796   3.944   1.962 -0.1024 -0.3331  0.6497
   8523SM   O1411314   5.817   3.994   2.214 -0.5731  0.0730  0.2606
   8523SM   O1111315   5.699   3.792   2.137 -0.6115  0.0563  0.6564
   8523SM   O1211316   5.609   4.023   2.082 -0.1929  0.4941 -0.0295
   8523SM   C1S11317   5.791   3.679   2.147 -0.3921 -0.4689  0.1374
   8523SM   H1S11318   5.894   3.693   2.109 -0.8390 -0.8564 -1.2780
   8523SM   H1T11319   5.751   3.589   2.096  2.4389 -1.5832 -0.2443
   8523SM    NF11320   5.929   3.539   2.317  0.0310 -0.1765  0.0086
   8523SM   HNF11321   5.928   3.444   2.346 -2.7555 -1.1122 -2.5871
   8523SM   C2S11322   5.802   3.610   2.290  0.3601  0.2952  0.3061
   8523SM   H2S11323   5.806   3.696   2.360  0.2041  0.6428 -0.1069
   8523SM   C3S11324   5.673   3.539   2.320  0.8521  0.8851 -0.8082
   8523SM   H3S11325   5.681   3.443   2.265 -1.5912  0.0819  0.1378
   8523SM    O311326   5.557   3.603   2.273  0.1615  0.0963 -0.3558
   8523SM   HO311327   5.603   3.672   2.224  0.3887 -0.4543 -0.9287
   8523SM   C4S11328   5.655   3.503   2.469  0.0329 -0.3095  0.2552
   8523SM   H4S11329   5.686   3.581   2.540 -0.1376 -1.1164  1.2361
   8523SM   C5S11330   5.614   3.385   2.519 -0.7152 -0.1434  0.2059
   8523SM   H5S11331   5.588   3.305   2.448 -0.0006  0.0741 -0.3056
   8523SM   C6S11332   5.592   3.355   2.671 -0.0912  0.1151 -0.1375
   8523SM   H6S11333   5.671   3.298   2.724 -2.2136 -1.4981  1.4690
   8523SM   H6T11334   5.507   3.284   2.678  1.0356 -1.3555 -0.7221
   8523SM   C7S11335   5.551   3.472   2.766  0.2435 -0.1136  0.1676
   8523SM   H7S11336   5.453   3.516   2.739 -0.4121 -1.0223  1.0019
   8523SM   H7T11337   5.634   3.546   2.760  0.5099 -0.3991  0.2780
   8523SM   C8S11338   5.549   3.431   2.910  0.6637 -0.1043  0.1424
   8523SM   H8S11339   5.642   3.379   2.940  1.4895  0.4151 -1.4460
   8523SM   H8T11340   5.462   3.365   2.931  1.2392 -1.0817 -0.4906
   8523SM   C9S11341   5.541   3.546   3.017  0.0513 -0.5641 -0.1806
   8523SM   H9S11342   5.462   3.620   2.989  1.0126  0.4761 -0.2108
   8523SM   H9T11343   5.645   3.584   3.025  1.0793 -3.4272  1.2442
   8523SM  C10S11344   5.504   3.497   3.156  0.2639  0.0479  0.1435
   8523SM  H10S11345   5.568   3.411   3.187 -1.1562 -1.0042  0.2725
   8523SM  H10T11346   5.400   3.458   3.162  0.2870  0.1775  1.7138
   8523SM  C11S11347   5.525   3.599   3.278  0.0562 -0.2673 -0.2820
   8523SM  H11S11348   5.453   3.681   3.259 -1.2125 -0.5283  2.8359
   8523SM  H11T11349   5.629   3.632   3.261 -0.7584  1.7708 -1.7219
   8523SM  C12S11350   5.491   3.539   3.413 -0.1954 -0.4235  0.5840
   8523SM  H12S11351   5.541   3.440   3.409 -0.8647 -0.7987  1.1544
   8523SM  H12T11352   5.382   3.518   3.414 -0.4240  0.5693 -0.7605
   8523SM  C13S11353   5.525   3.620   3.540 -0.1915 -0.1210  0.3557
   8523SM  H13S11354   5.485   3.583   3.637  2.7483  0.8504  2.0601
   8523SM  H13T11355   5.469   3.715   3.527 -1.5365 -0.8901  0.2777
   8523SM  C14S11356   5.678   3.645   3.559  0.1122  1.0236 -0.6712
   8523SM  H14S11357   5.745   3.624   3.473 -1.0534 -0.1001 -1.3350
   8523SM  H14T11358   5.700   3.585   3.650 -3.8173  1.4455  0.7666
   8523SM  C15S11359   5.706   3.791   3.596  0.1007  0.7396 -0.0675
   8523SM  H15S11360   5.628   3.822   3.669 -0.5043 -2.6494  0.9145
   8523SM  H15T11361   5.712   3.861   3.510 -1.9222  2.6389  1.2159
   8523SM  C16S11362   5.839   3.809   3.667 -0.4325 -0.3790 -0.7204
   8523SM  H16S11363   5.919   3.763   3.605 -0.5919  1.3374 -2.2897
   8523SM  H16T11364   5.830   3.754   3.763  2.9515 -0.3031 -0.2423
   8523SM  C17S11365   5.890   3.950   3.701  0.4966 -0.2081  0.5803
   8523SM  H17S11366   5.862   4.018   3.618  0.5360  0.2781  0.9678
   8523SM  H17T11367   6.000   3.939   3.713  0.3922 -0.2061  1.6567
   8523SM  C18S11368   5.826   3.993   3.831  0.3316 -0.2638 -1.1892
   8523SM  H18S11369   5.874   3.953   3.923 -0.2702 -2.5762 -1.8108
   8523SM  H18T11370   5.719   3.963   3.834  0.1425  0.4790 -0.0067
   8523SM  H18U11371   5.825   4.104   3.837 -2.4899 -0.1528 -2.5272
   8523SM   C1F11372   6.046   3.594   2.307 -0.1289 -0.3647  0.2419
   8523SM    OF11373   6.060   3.712   2.286  0.5329  0.0351  0.2488
   8523SM   C2F11374   6.157   3.497   2.347 -0.1343  0.8405  0.4613
   8523SM   H2F11375   6.148   3.417   2.271 -0.1734  2.2692 -1.1025
   8523SM   H2G11376   6.126   3.449   2.442 -0.8234  1.9816  0.8301
   8523SM   C3F11377   6.301   3.551   2.335  0.9424  0.1423 -0.1514
   8523SM   H3F11378   6.310   3.605   2.239  0.1652 -1.5438 -1.2009
   8523SM   H3G11379   6.357   3.456   2.344  0.5031  0.0368  2.0477
   8523SM   C4F11380   6.335   3.646   2.443  0.2153 -0.3859 -0.1478
   8523SM   H4F11381   6.254   3.720   2.461  0.0128  0.0304 -2.4159
   8523SM   H4G11382   6.431   3.699   2.421 -0.2574  0.5027 -0.1425
   8523SM   C5F11383   6.357   3.577   2.582  0.5350 -0.1740 -0.1955
   8523SM   H5F11384   6.414   3.482   2.581  0.1689 -0.4100  0.6353
   8523SM   H5G11385   6.254   3.560   2.620  0.1526  2.7272  0.3619
   8523SM   C6F11386   6.417   3.674   2.685  0.5745 -0.4579 -0.0429
   8523SM   H6F11387   6.352   3.764   2.691 -1.1685 -1.5347 -1.8098
   8523SM   H6G11388   6.523   3.699   2.661  0.6954 -0.0943  0.8168
   8523SM   C7F11389   6.409   3.606   2.827 -0.3578  0.2848 -0.2372
   8523SM   H7F11390   6.495   3.535   2.819  0.2026  1.1247 -2.2329
   8523SM   H7G11391   6.315   3.547   2.826 -0.2563  0.1217 -1.0479
   8523SM   C8F11392   6.404   3.703   2.942  0.0679 -0.1949 -0.8849
   8523SM   H8F11393   6.301   3.744   2.930 -0.6610 -1.9773 -0.9806
   8523SM   H8G11394   6.487   3.776   2.930 -0.8190  0.9190 -0.4314
   8523SM   C9F11395   6.425   3.638   3.078 -0.6116  0.4292 -0.6004
   8523SM   H9F11396   6.524   3.587   3.080 -0.9465 -0.2252 -0.6409
   8523SM   H9G11397   6.350   3.557   3.084  0.6454 -0.7045  0.3143
   8523SM  C10F11398   6.410   3.740   3.198 -0.4279  0.2479  0.1853
   8523SM  H10F11399   6.410   3.681   3.293  0.0356  0.1674  0.1396
   8523SM  H10G11400   6.311   3.789   3.202 -0.2831  0.5845 -0.3388
   8523SM  C11F11401   6.516   3.853   3.209  0.2635  0.0384 -0.1103
   8523SM  H11F11402   6.488   3.918   3.123  1.6950  1.9663  0.7992
   8523SM  H11G11403   6.618   3.812   3.191 -1.0259 -2.4651 -2.4601
   8523SM  C12F11404   6.506   3.941   3.331 -0.5886 -0.0332  0.1406
   8523SM  H12F11405   6.597   4.003   3.342  0.1704 -1.4948  3.3400
   8523SM  H12G11406   6.503   3.877   3.422 -0.7449  0.5695  0.5696
   8523SM  C13F11407   6.393   4.047   3.339  0.3393  0.1220  0.0818
   8523SM  H13F11408   6.297   3.993   3.333  0.2754  0.1463  0.7403
   8523SM  H13G11409   6.415   4.098   3.243  0.1260 -0.0682 -0.0661
   8523SM  C14F11410   6.404   4.130   3.463  0.5805 -0.0299 -0.0565
   8523SM  H14F11411   6.487   4.202   3.443 -0.5031  0.9593 -1.2097
   8523SM  H14G11412   6.433   4.064   3.547  0.5036 -0.2487 -0.1993
   8523SM  C15F11413   6.283   4.219   3.488 -0.0243  0.0756  0.4736
   8523SM  H15F11414   6.187   4.163   3.482 -1.2194  2.0932 -0.0823
   8523SM  H15G11415   6.279   4.293   3.405 -1.2691 -0.2378  0.2385
   8523SM  C16F11416   6.288   4.283   3.626  0.6091 -0.0347  0.3066
   8523SM  H16F11417   6.376   4.350   3.622  0.0071  0.7760  0.2929
   8523SM  H16G11418   6.327   4.206   3.696 -0.7919 -3.6524 -2.5470
   8523SM  C17F11419   6.158   4.346   3.662  0.2315  0.0098  0.2590
   8523SM  H17F11420   6.157   4.381   3.767  0.4399  0.1417  0.2175
   8523SM  H17G11421   6.083   4.264   3.657 -1.1280  1.1495  1.0060
   8523SM  C18F11422   6.121   4.461   3.578  0.0479 -0.1599  0.7339
   8523SM  H18F11423   6.012   4.480   3.588  0.1011  0.1771  0.6921
   8523SM  H18G11424   6.134   4.428   3.472 -0.4460 -1.1612  0.9737
   8523SM  C19F11425   6.196   4.584   3.608 -0.1759 -0.8458 -0.3034
   8523SM  H19F11426   6.300   4.557   3.636 -0.0731 -2.0151 -1.6670
   8523SM  H19G11427   6.145   4.631   3.694  0.2224  0.5289 -0.7869
   8523SM  C20F11428   6.188   4.692   3.501 -0.5696  0.1022  0.4843
   8523SM  H20F11429   6.080   4.716   3.498 -0.7104 -0.5440 -2.1597
   8523SM  H20G11430   6.236   4.651   3.409 -1.8663 -1.0253  0.2812
   8523SM  C21F11431   6.267   4.820   3.530  0.2627  0.2655 -0.2323
   8523SM  H21F11432   6.233   4.867   3.625 -0.1680 -1.9288  0.7700
   8523SM  H21G11433   6.269   4.894   3.447  1.4670  0.8576  0.2950
   8523SM  C22F11434   6.422   4.795   3.547 -0.0310  0.4452  0.1231
   8523SM  H22F11435   6.449   4.718   3.472 -1.9506  1.6498 -1.9093
   8523SM  H22G11436   6.431   4.753   3.649 -1.6200  0.4366  0.2810
   8523SM  C23F11437   6.510   4.922   3.533  1.1105 -0.2620  0.0948
   8523SM  H23F11438   6.505   4.965   3.431  3.1419 -2.7901 -1.1907
   8523SM  H23G11439   6.615   4.891   3.549  0.9990 -0.4234  0.5295
   8523SM  H23H11440   6.468   4.996   3.604 -3.1899 -1.7618 -0.5882
   8623SM     N11441   2.823   0.988   2.619  1.1139 -0.0279 -0.0794
   8623SM   C1511442   2.706   0.944   2.550 -0.2057 -0.1076  1.0979
   8623SM  H15A11443   2.692   1.004   2.461  1.6409  1.5420  1.8527
   8623SM  H15B11444   2.620   0.942   2.616 -1.1923 -0.8658 -0.1645
   8623SM  H15C11445   2.728   0.845   2.512  0.4256  0.8824 -1.3019
   8623SM   C1411446   2.836   0.916   2.745 -0.6067  0.0854  1.1525
   8623SM  H14A11447   2.765   0.936   2.825  0.2115  2.0781  1.4381
   8623SM  H14B11448   2.928   0.953   2.788 -0.7260  1.0474  0.6133
   8623SM  H14C11449   2.846   0.809   2.733  0.7056  0.3495 -0.3246
   8623SM   C1311450   2.944   0.953   2.532  0.6185  0.6905  0.0213
   8623SM  H13A11451   3.035   0.973   2.587  0.3744 -1.3601  1.2487
   8623SM  H13B11452   2.945   0.994   2.432  3.6590  0.0053 -0.3397
   8623SM  H13C11453   2.947   0.846   2.517 -0.1482  0.6292  0.2858
   8623SM   C1211454   2.814   1.134   2.643  0.3354 -0.6083  0.2853
   8623SM  H12A11455   2.792   1.187   2.552  0.8924 -0.8749 -0.0041
   8623SM  H12B11456   2.917   1.158   2.664  0.4121  0.2740 -0.9748
   8623SM   C1111457   2.722   1.194   2.750 -0.5590 -0.0735 -0.0651
   8623SM  H11A11458   2.726   1.303   2.772 -0.0469 -0.4180  1.6982
   8623SM  H11B11459   2.763   1.156   2.846 -0.5272  0.2793  0.0611
   8623SM     P11460   2.478   1.246   2.660 -0.3141 -0.4811  0.2298
   8623SM   O1311461   2.538   1.319   2.555  0.0330 -0.2979 -0.4603
   8623SM   O1411462   2.366   1.158   2.623  0.1837 -0.3754 -0.4158
   8623SM   O1111463   2.418   1.350   2.765 -0.6002 -0.1281 -0.4042
   8623SM   O1211464   2.588   1.155   2.737  0.9489  0.1296  0.2246
   8623SM   C1S11465   2.401   1.310   2.906 -0.3985  0.0730  0.1069
   8623SM   H1S11466   2.393   1.201   2.923  0.4434 -0.2884 -1.5962
   8623SM   H1T11467   2.309   1.358   2.945 -0.9054 -1.8433  1.4147
   8623SM    NF11468   2.474   1.348   3.134  0.1398  0.4727  0.3017
   8623SM   HNF11469   2.435   1.422   3.187 -1.4375  1.0543 -1.5220
   8623SM   C2S11470   2.511   1.377   3.002 -0.3256 -0.5128  0.0968
   8623SM   H2S11471   2.607   1.324   2.983 -1.6923 -2.9111 -0.5151
   8623SM   C3S11472   2.528   1.533   2.977 -0.3085 -0.1102 -0.5308
   8623SM   H3S11473   2.431   1.586   2.983 -1.5290 -2.2471 -0.2144
   8623SM    O311474   2.578   1.552   2.847  0.6465 -0.9741 -0.5209
   8623SM   HO311475   2.540   1.476   2.801 -1.9734  0.3934 -0.7914
   8623SM   C4S11476   2.627   1.596   3.074 -0.2365 -0.8600 -0.4242
   8623SM   H4S11477   2.574   1.613   3.169  1.2457 -1.0356  0.4478
   8623SM   C5S11478   2.753   1.645   3.060 -1.1825  0.7505  0.4296
   8623SM   H5S11479   2.800   1.642   2.961 -1.3683 -0.1822  0.3543
   8623SM   C6S11480   2.847   1.707   3.156  0.6004 -0.7640  0.1664
   8623SM   H6S11481   2.837   1.812   3.120  0.6229 -1.0295 -0.6511
   8623SM   H6T11482   2.947   1.663   3.135  0.6823 -0.5749  0.1646
   8623SM   C7S11483   2.815   1.687   3.299  0.3669  0.7221 -0.4898
   8623SM   H7S11484   2.842   1.582   3.323  1.2242  1.0502  0.0397
   8623SM   H7T11485   2.706   1.693   3.320  0.2838 -0.3416 -0.5465
   8623SM   C8S11486   2.886   1.783   3.401  0.0077  0.2364 -0.8043
   8623SM   H8S11487   2.848   1.883   3.369 -0.3080  0.3683 -0.0402
   8623SM   H8T11488   2.995   1.777   3.376 -0.4017 -0.5260 -2.5356
   8623SM   C9S11489   2.861   1.740   3.546  0.4707 -0.4759 -0.1341
   8623SM   H9S11490   2.895   1.634   3.548 -1.9665 -1.3201 -0.4990
   8623SM   H9T11491   2.753   1.731   3.566  0.8556 -0.5794  2.1315
   8623SM  C10S11492   2.936   1.819   3.653  0.4539 -0.3405  0.5719
   8623SM  H10S11493   2.912   1.927   3.652  0.0865 -0.4170 -0.8700
   8623SM  H10T11494   3.045   1.818   3.634  0.3418  0.4948 -0.1413
   8623SM  C11S11495   2.901   1.777   3.800 -0.2315  0.2047 -0.6453
   8623SM  H11S11496   2.941   1.675   3.814 -0.6807  0.1620  0.4568
   8623SM  H11T11497   2.795   1.759   3.828  0.2610  0.3218  1.4201
   8623SM  C12S11498   2.970   1.881   3.890 -0.3264  0.1456  0.2391
   8623SM  H12S11499   2.939   1.985   3.867 -1.0854 -0.1387 -0.0686
   8623SM  H12T11500   3.080   1.883   3.876 -0.0132 -0.2521  2.3385
   8623SM  C13S11501   2.948   1.842   4.039 -0.1889  0.3808  0.6183
   8623SM  H13S11502   2.994   1.742   4.052 -0.7230  0.1335  0.6391
   8623SM  H13T11503   2.842   1.840   4.072  0.2632 -0.8392  2.1567
   8623SM  C14S11504   3.031   1.939   4.124 -1.0619 -0.2691  0.2099
   8623SM  H14S11505   3.033   2.035   4.068  0.4599 -0.2270  0.2948
   8623SM  H14T11506   3.134   1.898   4.131 -0.3237  1.6022  1.1871
   8623SM  C15S11507   2.972   1.969   4.264 -0.6436  0.4209 -0.0163
   8623SM  H15S11508   2.922   1.877   4.300 -1.6446  0.9343 -0.0728
   8623SM  H15T11509   2.906   2.058   4.259  0.2428  1.1162  0.3010
   8623SM  C16S11510   3.072   1.999   4.380 -0.1237 -0.0730 -0.8743
   8623SM  H16S11511   3.137   1.911   4.401  2.0388  1.8456  0.9411
   8623SM  H16T11512   3.006   2.022   4.466  0.1855 -2.0318 -0.0533
   8623SM  C17S11513   3.154   2.119   4.356 -0.2055 -0.1023 -0.1956
   8623SM  H17S11514   3.105   2.201   4.298  2.3277  0.3159 -1.9148
   8623SM  H17T11515   3.230   2.095   4.279 -2.0066  0.6316 -2.3015
   8623SM  C18S11516   3.218   2.186   4.490  0.1494  0.5633 -0.3898
   8623SM  H18S11517   3.279   2.276   4.469  1.2791 -0.7599 -3.3273
   8623SM  H18T11518   3.272   2.113   4.555 -0.9335  0.1478  0.0799
   8623SM  H18U11519   3.128   2.221   4.545 -0.6101 -1.5055 -0.2106
   8623SM   C1F11520   2.484   1.217   3.181  0.5738 -0.6164 -0.0613
   8623SM    OF11521   2.533   1.132   3.107 -0.6952 -0.0379  0.3824
   8623SM   C2F11522   2.438   1.192   3.321 -0.0895  0.0872 -0.1570
   8623SM   H2F11523   2.338   1.237   3.337 -0.2453 -0.5975  0.8533
   8623SM   H2G11524   2.509   1.244   3.388 -0.0505  2.5343 -1.9647
   8623SM   C3F11525   2.438   1.045   3.357  0.7273 -0.6149 -0.3940
   8623SM   H3F11526   2.541   1.003   3.359  2.1757  2.5260  2.9654
   8623SM   H3G11527   2.373   0.999   3.280 -1.3390  1.6338 -0.0787
   8623SM   C4F11528   2.379   1.019   3.494 -0.3191 -1.0798  0.4312
   8623SM   H4F11529   2.348   0.913   3.503 -2.0023 -0.6973 -0.4615
   8623SM   H4G11530   2.291   1.086   3.497  0.7911  0.4077  1.4496
   8623SM   C5F11531   2.475   1.055   3.609  0.0713  0.3297 -0.2122
   8623SM   H5F11532   2.529   1.144   3.569  0.9678  0.4233  1.1450
   8623SM   H5G11533   2.541   0.968   3.625  0.3640  0.7789  1.1054
   8623SM   C6F11534   2.395   1.085   3.735 -0.5559  0.1330  0.1668
   8623SM   H6F11535   2.335   0.996   3.765 -0.6706  0.3111  0.4750
   8623SM   H6G11536   2.330   1.170   3.704  0.8958  0.6026 -1.8134
   8623SM   C7F11537   2.493   1.124   3.846  0.3648  0.0127  1.2431
   8623SM   H7F11538   2.434   1.177   3.924 -1.4190  1.1565 -0.7694
   8623SM   H7G11539   2.565   1.201   3.812 -1.2023  1.7341  1.6034
   8623SM   C8F11540   2.573   1.011   3.906 -0.7672 -0.0877 -0.4700
   8623SM   H8F11541   2.628   0.966   3.820 -0.8516 -0.1141 -0.5102
   8623SM   H8G11542   2.526   0.926   3.960  0.8771 -1.1019 -0.5476
   8623SM   C9F11543   2.676   1.057   4.013 -0.0407 -0.1117  0.2352
   8623SM   H9F11544   2.754   1.120   3.965  1.1189 -0.5359  1.5147
   8623SM   H9G11545   2.722   0.964   4.052  0.7742  0.2132  0.0808
   8623SM  C10F11546   2.623   1.124   4.140 -0.1090  0.5034 -0.1269
   8623SM  H10F11547   2.541   1.057   4.177 -0.9671  1.2482 -0.6511
   8623SM  H10G11548   2.577   1.219   4.107 -0.6325 -0.4479 -2.3475
   8623SM  C11F11549   2.740   1.132   4.248  0.2406  0.4061  0.3696
   8623SM  H11F11550   2.824   1.184   4.197 -1.5310  0.6742 -2.5321
   8623SM  H11G11551   2.783   1.033   4.272  0.6370 -0.0276 -1.9071
   8623SM  C12F11552   2.697   1.213   4.374 -0.0361  0.2762  0.1165
   8623SM  H12F11553   2.600   1.180   4.416  0.9777 -1.6406  1.0997
   8623SM  H12G11554   2.685   1.319   4.341  0.4358  0.8328  1.6135
   8623SM  C13F11555   2.803   1.203   4.482 -1.0559  0.1473 -0.6220
   8623SM  H13F11556   2.893   1.247   4.435 -0.8972 -0.5608 -0.9932
   8623SM  H13G11557   2.823   1.100   4.518 -0.7742  0.0794 -0.9684
   8623SM  C14F11558   2.775   1.292   4.607 -0.6779 -0.0054 -0.2471
   8623SM  H14F11559   2.679   1.259   4.653 -1.1910  0.1965 -1.1363
   8623SM  H14G11560   2.770   1.392   4.560 -0.3396 -0.5708 -1.5291
   8623SM  C15F11561   2.881   1.296   4.722 -0.7224 -0.3229  0.0216
   8623SM  H15F11562   2.974   1.330   4.672  0.7362  0.2646  2.9043
   8623SM  H15G11563   2.912   1.194   4.753  0.9051  0.6641  1.8117
   8623SM  C16F11564   2.842   1.385   4.839  0.1778 -0.4228 -0.3541
   8623SM  H16F11565   2.755   1.346   4.897 -0.3579  1.4273  0.1546
   8623SM  H16G11566   2.822   1.488   4.803  2.2100 -0.0589 -0.5535
   8623SM  C17F11567   2.953   1.400   4.943 -0.1628  0.1420  0.1321
   8623SM  H17F11568   2.912   1.472   5.017  0.6946 -0.1325  0.8842
   8623SM  H17G11569   3.031   1.462   4.893 -1.1959  1.1127 -0.3330
   8623SM  C18F11570   2.991   1.268   5.010 -0.8645  0.3541  0.2268
   8623SM  H18F11571   3.050   1.202   4.944 -1.1097 -0.2787  0.6343
   8623SM  H18G11572   2.893   1.221   5.034 -1.3116  1.1855  0.0734
   8623SM  C19F11573   3.079   1.294   5.130  0.1338 -0.0089  0.0939
   8623SM  H19F11574   3.102   1.194   5.171 -0.1314 -0.0074  0.2455
   8623SM  H19G11575   3.030   1.361   5.203 -0.1518  0.3420 -0.4114
   8623SM  C20F11576   3.224   1.352   5.104  0.3110 -0.4212  0.3813
   8623SM  H20F11577   3.207   1.450   5.055 -1.2316 -1.1768 -0.6555
   8623SM  H20G11578   3.285   1.289   5.036  0.4743  0.3846 -0.2227
   8623SM  C21F11579   3.307   1.375   5.221 -1.0426  0.1558 -0.2830
   8623SM  H21F11580   3.324   1.273   5.262 -3.4059 -0.5869 -0.9817
   8623SM  H21G11581   3.256   1.446   5.289  2.1524  2.4143 -0.0155
   8623SM  C22F11582   3.442   1.443   5.189  0.3122  0.0578  0.5232
   8623SM  H22F11583   3.433   1.535   5.128  0.4514 -0.2822 -0.0184
   8623SM  H22G11584   3.506   1.374   5.130  1.6998  2.2450 -0.6588
   8623SM  C23F11585   3.520   1.487   5.309 -0.8868  0.0786 -0.3341
   8623SM  H23F11586   3.627   1.504   5.281 -1.2599 -0.1102 -1.9583
   8623SM  H23G11587   3.517   1.403   5.381 -1.1732  0.2496 -0.1457
   8623SM  H23H11588   3.472   1.579   5.349  1.7917  1.3473  0.2590
   8723SM     N11589   3.502   1.168   2.238 -0.3012  0.5246  0.2263
   8723SM   C1511590   3.430   1.038   2.241 -0.3773 -0.2958 -0.6620
   8723SM  H15A11591   3.332   1.054   2.199 -0.4664 -1.4101 -0.9263
   8723SM  H15B11592   3.419   1.008   2.344 -0.0973  0.5878 -0.3669
   8723SM  H15C11593   3.494   0.966   2.191  1.0498  2.6443 -3.4442
   8723SM   C1411594   3.477   1.239   2.370 -0.1448 -0.5254 -0.3206
   8723SM  H14A11595   3.501   1.172   2.451 -0.1898 -0.9962 -0.6967
   8723SM  H14B11596   3.373   1.267   2.379  0.7905  3.0177  1.4311
   8723SM  H14C11597   3.534   1.329   2.387 -1.1724 -0.2220  1.8024
   8723SM   C1311598   3.649   1.129   2.232  0.0003 -0.0095 -0.0660
   8723SM  H13A11599   3.666   1.070   2.321 -3.0008  0.8904  1.2512
   8723SM  H13B11600   3.711   1.217   2.232 -0.5868  0.4123  0.2319
   8723SM  H13C11601   3.670   1.075   2.141 -3.1557 -1.0052 -0.3192
   8723SM   C1211602   3.456   1.248   2.120 -0.2528 -0.0292  0.1879
   8723SM  H12A11603   3.487   1.197   2.030 -0.6226 -1.9487  1.1008
   8723SM  H12B11604   3.516   1.337   2.136  1.5546 -1.2412  0.5065
   8723SM   C1111605   3.307   1.293   2.106  0.5892  0.0227 -0.0479
   8723SM  H11A11606   3.290   1.319   2.000  0.4215 -0.5574 -0.1649
   8723SM  H11B11607   3.286   1.384   2.166  2.3584  0.0251  0.6447
   8723SM     P11608   3.096   1.201   2.237 -0.0084 -0.2048 -0.1904
   8723SM   O1311609   2.975   1.255   2.173  0.0833  0.3439  0.0651
   8723SM   O1411610   3.075   1.068   2.301 -0.4129 -0.2666  0.5491
   8723SM   O1111611   3.160   1.301   2.345 -0.1209  0.0970  0.6413
   8723SM   O1211612   3.206   1.195   2.132 -0.0408  0.4139 -0.4780
   8723SM   C1S11613   3.084   1.359   2.444 -0.1469  0.0613  0.1711
   8723SM   H1S11614   3.035   1.273   2.495 -0.8053 -0.4855 -1.3292
   8723SM   H1T11615   3.008   1.427   2.401  1.1000 -0.2371 -2.6837
   8723SM    NF11616   3.097   1.454   2.673  0.2414  0.3074  0.3910
   8723SM   HNF11617   3.053   1.539   2.700 -0.8133  0.1486 -0.7400
   8723SM   C2S11618   3.165   1.448   2.544  0.4611 -0.1537 -0.1549
   8723SM   H2S11619   3.263   1.397   2.560  0.3046 -0.9971 -1.7159
   8723SM   C3S11620   3.190   1.586   2.475 -1.1567 -0.0056  0.9541
   8723SM   H3S11621   3.095   1.642   2.468 -1.5593 -0.8332 -0.7814
   8723SM    O311622   3.236   1.576   2.338  0.4953  0.9561 -0.4274
   8723SM   HO311623   3.207   1.487   2.319 -0.6755  1.0838  0.5928
   8723SM   C4S11624   3.283   1.667   2.557 -0.3450  0.1121  0.4205
   8723SM   H4S11625   3.225   1.719   2.635 -1.5809  0.2580 -0.5614
   8723SM   C5S11626   3.418   1.684   2.554  0.1307 -0.2903  0.2640
   8723SM   H5S11627   3.479   1.633   2.478 -2.2366 -0.9510 -1.3042
   8723SM   C6S11628   3.490   1.780   2.646 -0.0639  0.1684 -0.1483
   8723SM   H6S11629   3.504   1.880   2.599 -1.1724  1.2006  1.5774
   8723SM   H6T11630   3.595   1.745   2.640  0.7949  2.4126  0.8069
   8723SM   C7S11631   3.438   1.796   2.791 -0.5275  0.1137 -0.1792
   8723SM   H7S11632   3.400   1.709   2.850 -1.0744  0.4244 -0.0580
   8723SM   H7T11633   3.346   1.858   2.788 -1.4635 -1.2623 -1.0875
   8723SM   C8S11634   3.530   1.876   2.882  0.0883  0.5538 -0.0256
   8723SM   H8S11635   3.564   1.969   2.833  1.1840 -0.8867 -2.1770
   8723SM   H8T11636   3.629   1.826   2.892 -0.3091 -0.5337 -1.1577
   8723SM   C9S11637   3.491   1.905   3.022  0.6653 -0.1775  0.0921
   8723SM   H9S11638   3.457   1.813   3.075 -0.9357  0.9946  1.2111
   8723SM   H9T11639   3.414   1.985   3.027  1.6706  0.8642 -0.6599
   8723SM  C10S11640   3.604   1.955   3.120  0.6545  0.1844  0.3496
   8723SM  H10S11641   3.660   2.033   3.065  0.7185 -1.1524 -1.5835
   8723SM  H10T11642   3.673   1.872   3.147  1.7667  1.6048  2.1113
   8723SM  C11S11643   3.549   2.028   3.244  0.1154 -0.1435  0.1819
   8723SM  H11S11644   3.481   1.963   3.304 -1.8374 -2.2210 -3.8782
   8723SM  H11T11645   3.479   2.107   3.209 -0.6128 -1.2705 -1.0008
   8723SM  C12S11646   3.663   2.098   3.319  0.4802 -0.0851  0.2858
   8723SM  H12S11647   3.709   2.166   3.244 -0.0270  2.3726  2.0831
   8723SM  H12T11648   3.734   2.019   3.351 -2.2049 -3.2125 -0.8808
   8723SM  C13S11649   3.613   2.180   3.441 -0.4675 -0.2902  0.0798
   8723SM  H13S11650   3.536   2.126   3.500  1.0251 -0.1899  2.2341
   8723SM  H13T11651   3.560   2.269   3.401 -0.1243 -0.1871 -0.1500
   8723SM  C14S11652   3.726   2.226   3.529  0.5823  0.4314  0.1329
   8723SM  H14S11653   3.814   2.263   3.472 -0.4113  0.6135 -1.3412
   8723SM  H14T11654   3.760   2.144   3.597  0.7367  2.4850  2.7078
   8723SM  C15S11655   3.680   2.334   3.632 -0.1975 -0.3600  0.3827
   8723SM  H15S11656   3.600   2.286   3.691  0.5342 -1.7210  0.3241
   8723SM  H15T11657   3.631   2.418   3.579  0.1692 -1.9192 -2.7113
   8723SM  C16S11658   3.789   2.372   3.730 -0.2043  0.1415  0.4807
   8723SM  H16S11659   3.857   2.441   3.677 -1.0157  0.4369 -0.2060
   8723SM  H16T11660   3.842   2.274   3.735  0.7969  0.7271  2.3929
   8723SM  C17S11661   3.753   2.430   3.865  1.1801  0.0289 -0.2978
   8723SM  H17S11662   3.673   2.364   3.904  2.2243 -0.8373  0.4308
   8723SM  H17T11663   3.712   2.534   3.860  0.6395 -0.1909 -0.5741
   8723SM  C18S11664   3.871   2.444   3.955 -0.4108  0.3402  0.1200
   8723SM  H18S11665   3.897   2.354   4.015  2.5047  1.1252  0.1766
   8723SM  H18T11666   3.853   2.526   4.028  0.9402 -0.3871  1.3129
   8723SM  H18U11667   3.960   2.467   3.894  0.0217  3.7202  1.8154
   8723SM   C1F11668   3.073   1.344   2.752  0.6412  0.0558 -0.5623
   8723SM    OF11669   3.085   1.225   2.712 -0.4947  0.2702  0.2187
   8723SM   C2F11670   3.026   1.370   2.894 -0.4814 -0.2405 -0.2847
   8723SM   H2F11671   2.934   1.432   2.886  0.6000  1.3003 -1.7900
   8723SM   H2G11672   3.108   1.433   2.935 -0.6407 -0.4972  0.4389
   8723SM   C3F11673   3.003   1.249   2.996 -0.4047  0.8870  0.0650
   8723SM   H3F11674   3.094   1.185   2.994 -2.3932 -2.1579 -1.7227
   8723SM   H3G11675   2.927   1.181   2.954 -0.3094 -1.7022  3.6190
   8723SM   C4F11676   2.960   1.294   3.135  0.3397  0.4078 -0.4612
   8723SM   H4F11677   2.873   1.361   3.125  0.7522  1.2214  1.1190
   8723SM   H4G11678   3.039   1.349   3.190  0.4490 -1.0890  0.9773
   8723SM   C5F11679   2.909   1.177   3.218 -0.3258 -0.0511  0.8557
   8723SM   H5F11680   2.988   1.100   3.233 -2.1981 -2.1878  0.2526
   8723SM   H5G11681   2.835   1.117   3.161 -0.3771  0.5099  0.3216
   8723SM   C6F11682   2.834   1.224   3.345 -0.2070 -0.0924  0.2554
   8723SM   H6F11683   2.792   1.137   3.400  0.1540 -1.2597 -1.2278
   8723SM   H6G11684   2.749   1.294   3.329 -0.0899 -0.4252 -2.1973
   8723SM   C7F11685   2.940   1.288   3.436  0.2224 -0.3060 -0.2569
   8723SM   H7F11686   2.995   1.375   3.392 -0.4745 -0.2653 -1.0873
   8723SM   H7G11687   3.021   1.218   3.465  0.8182  0.8201  0.9012
   8723SM   C8F11688   2.873   1.330   3.564 -0.7692  0.2967 -0.6063
   8723SM   H8F11689   2.821   1.241   3.606  0.1162  0.0077 -0.0863
   8723SM   H8G11690   2.791   1.402   3.547  0.4420  1.9285  0.2114
   8723SM   C9F11691   2.960   1.393   3.677  0.4490  0.0478 -0.1753
   8723SM   H9F11692   2.995   1.496   3.652  1.6116 -0.3266 -0.1849
   8723SM   H9G11693   3.050   1.333   3.702 -0.9194 -1.4578  1.3584
   8723SM  C10F11694   2.882   1.397   3.816  0.1408 -0.5464 -0.4440
   8723SM  H10F11695   2.852   1.292   3.838  0.5061 -0.3071  1.3026
   8723SM  H10G11696   2.792   1.459   3.797 -0.1604 -1.6910 -3.3112
   8723SM  C11F11697   2.980   1.428   3.934 -0.4001  0.2847 -0.1732
   8723SM  H11F11698   3.034   1.518   3.897  3.3972 -2.1661 -1.2195
   8723SM  H11G11699   3.037   1.335   3.956 -1.7103 -0.5736 -0.2949
   8723SM  C12F11700   2.906   1.459   4.065  0.6436  0.2784  0.6625
   8723SM  H12F11701   2.824   1.385   4.079 -0.0297  0.9460  0.3847
   8723SM  H12G11702   2.850   1.555   4.057  2.2091  1.3405  1.9592
   8723SM  C13F11703   3.002   1.475   4.186  0.4102  0.1600  0.1591
   8723SM  H13F11704   3.088   1.541   4.163  1.1877 -0.8011  0.2582
   8723SM  H13G11705   3.044   1.377   4.217  2.8461  1.1553  0.2043
   8723SM  C14F11706   2.928   1.543   4.302 -0.6002 -0.6278  0.2788
   8723SM  H14F11707   2.845   1.475   4.332  0.4834 -1.2883  1.9004
   8723SM  H14G11708   2.875   1.631   4.259 -2.1354 -1.5668  0.1762
   8723SM  C15F11709   3.020   1.597   4.404 -0.0650  0.0171 -0.3922
   8723SM  H15F11710   3.084   1.666   4.344  0.6429 -0.4403 -0.1627
   8723SM  H15G11711   3.090   1.521   4.444 -0.2219 -0.4261 -0.9517
   8723SM  C16F11712   2.960   1.665   4.518  0.4206 -0.1953 -0.6262
   8723SM  H16F11713   2.894   1.590   4.566  0.5593 -1.1558 -1.8863
   8723SM  H16G11714   2.905   1.755   4.484  2.6712  1.5019 -0.0435
   8723SM  C17F11715   3.061   1.708   4.621 -0.8053 -0.1501  0.5841
   8723SM  H17F11716   3.156   1.742   4.575 -1.0702  0.4623  0.4814
   8723SM  H17G11717   3.103   1.617   4.669 -1.0104 -1.1572 -1.0844
   8723SM  C18F11718   3.013   1.807   4.726 -0.4341 -0.3390 -0.0183
   8723SM  H18F11719   2.914   1.768   4.759 -0.2895  0.0557  0.9362
   8723SM  H18G11720   2.983   1.902   4.678 -0.4038 -0.1890  0.2568
   8723SM  C19F11721   3.128   1.842   4.833  0.7433  0.0771  1.3404
   8723SM  H19F11722   3.100   1.936   4.885 -0.2173  0.8676 -0.4905
   8723SM  H19G11723   3.212   1.864   4.764 -0.8693 -2.2409 -1.6707
   8723SM  C20F11724   3.152   1.731   4.934 -0.1993 -0.1524  0.5357
   8723SM  H20F11725   3.207   1.647   4.887  1.3006  0.6555  0.7589
   8723SM  H20G11726   3.055   1.705   4.980  0.3114 -2.4018  0.4152
   8723SM  C21F11727   3.246   1.781   5.045  0.1733  1.0091  0.1023
   8723SM  H21F11728   3.251   1.695   5.115 -2.1024  0.0991 -0.7449
   8723SM  H21G11729   3.214   1.864   5.111  1.3022  1.8389 -0.3680
   8723SM  C22F11730   3.396   1.802   5.006 -0.3103 -0.3327  0.5030
   8723SM  H22F11731   3.402   1.887   4.935  1.4805 -0.8682 -0.0285
   8723SM  H22G11732   3.439   1.708   4.965  1.9894  0.6553  0.4990
   8723SM  C23F11733   3.485   1.841   5.121 -0.7045  0.2135  0.6511
   8723SM  H23F11734   3.447   1.928   5.179  1.2089  0.8633  0.9997
   8723SM  H23G11735   3.581   1.882   5.084 -1.5274  1.8271  0.1890
   8723SM  H23H11736   3.504   1.751   5.182  0.4904 -0.0907 -0.1405
   8823SM     N11737   1.122   2.011   2.331 -0.1363  0.6352 -0.4170
   8823SM   C1511738   1.215   2.120   2.302  0.0162 -0.5562  0.2857
   8823SM  H15A11739   1.263   2.157   2.392 -0.5052 -0.5454  0.5593
   8823SM  H15B11740   1.155   2.203   2.268 -1.9510 -2.1614 -0.3375
   8823SM  H15C11741   1.290   2.105   2.226 -0.0310  3.8683 -0.9136
   8823SM   C1411742   1.023   2.059   2.437 -0.1970 -0.2393  0.5631
   8823SM  H14A11743   0.962   2.141   2.400 -1.2297 -1.0085  0.5214
   8823SM  H14B11744   1.076   2.099   2.523 -1.2106  1.3245  0.4964
   8823SM  H14C11745   0.953   1.982   2.465 -2.4582  1.1767 -0.8253
   8823SM   C1311746   1.043   1.981   2.211  0.2208  0.5360  0.2429
   8823SM  H13A11747   0.980   1.893   2.215  0.2188  0.5142 -0.2572
   8823SM  H13B11748   1.108   1.963   2.127  1.7675  2.1603  1.0062
   8823SM  H13C11749   0.978   2.060   2.177  0.6776  1.0690  0.5907
   8823SM   C1211750   1.195   1.884   2.374 -0.3898 -0.2472 -0.3213
   8823SM  H12A11751   1.237   1.829   2.291  0.0022 -1.0126  0.3664
   8823SM  H12B11752   1.133   1.811   2.425  3.0163 -2.1760  1.4512
   8823SM   C1111753   1.309   1.904   2.481  0.2880 -0.6978  0.6896
   8823SM  H11A11754   1.389   1.950   2.420 -2.2383  0.0599 -2.2667
   8823SM  H11B11755   1.333   1.801   2.516  1.8775 -0.0894  1.5351
   8823SM     P11756   1.374   2.101   2.636  0.0125 -0.2321 -0.3206
   8823SM   O1311757   1.490   2.035   2.694  0.2594  0.0394  0.1427
   8823SM   O1411758   1.396   2.196   2.522  0.2433 -0.4039 -0.0928
   8823SM   O1111759   1.287   2.178   2.747  0.1084  0.4011  1.0872
   8823SM   O1211760   1.273   1.980   2.599 -0.4141 -0.2401  0.0732
   8823SM   C1S11761   1.177   2.103   2.814  0.0300  0.4652  0.3227
   8823SM   H1S11762   1.211   2.007   2.858  1.0414  1.4160  1.6906
   8823SM   H1T11763   1.090   2.087   2.746 -0.6836  2.8812  0.5779
   8823SM    NF11764   1.055   2.082   3.030  0.1164  0.0108 -0.7400
   8823SM   HNF11765   0.959   2.061   3.018  0.3420 -2.6067  1.2410
   8823SM   C2S11766   1.110   2.173   2.937 -0.4294 -0.9754  0.2970
   8823SM   H2S11767   1.191   2.228   2.988  0.3289 -0.4215 -1.4310
   8823SM   C3S11768   1.012   2.291   2.891  0.2898  0.0346 -1.3470
   8823SM   H3S11769   0.931   2.239   2.836 -1.6066 -0.3950  1.6296
   8823SM    O311770   1.085   2.391   2.810 -0.0181  0.5722 -0.4531
   8823SM   HO311771   1.170   2.348   2.804 -0.6014 -0.4960 -1.4586
   8823SM   C4S11772   0.955   2.364   3.014 -0.8097  0.2969  0.6590
   8823SM   H4S11773   1.015   2.453   3.039  1.7848 -0.9548 -0.6058
   8823SM   C5S11774   0.844   2.334   3.080 -0.8402  0.9742  0.1999
   8823SM   H5S11775   0.782   2.248   3.050 -0.8990  1.0543  0.0950
   8823SM   C6S11776   0.783   2.409   3.190  0.4432  0.3993  0.1092
   8823SM   H6S11777   0.772   2.334   3.271 -0.3973 -3.0155 -2.9151
   8823SM   H6T11778   0.688   2.458   3.161  2.4548  3.4374 -1.9786
   8823SM   C7S11779   0.870   2.528   3.251 -0.7046  0.0654  0.4048
   8823SM   H7S11780   0.874   2.609   3.176  2.5153 -0.7492 -0.4420
   8823SM   H7T11781   0.978   2.503   3.252 -0.5163  0.7802 -0.9192
   8823SM   C8S11782   0.819   2.576   3.385  0.0994 -0.0229  0.6728
   8823SM   H8S11783   0.833   2.497   3.462 -0.5788 -0.5614  0.2589
   8823SM   H8T11784   0.709   2.589   3.378  0.3983  2.4032 -0.6547
   8823SM   C9S11785   0.851   2.724   3.425  0.5072  0.1119 -0.2007
   8823SM   H9S11786   0.810   2.788   3.344  1.1667  1.2966  0.3744
   8823SM   H9T11787   0.961   2.737   3.424  0.3722  1.5458  0.4932
   8823SM  C10S11788   0.783   2.772   3.556 -0.6973  0.1217  0.3451
   8823SM  H10S11789   0.818   2.715   3.644  1.1328  1.5135  0.5810
   8823SM  H10T11790   0.673   2.760   3.545 -0.6358 -0.4513  0.3753
   8823SM  C11S11791   0.817   2.920   3.587  0.6441 -0.4131  0.2290
   8823SM  H11S11792   0.790   2.976   3.496  2.0757 -0.5696 -0.3007
   8823SM  H11T11793   0.927   2.924   3.597  0.8180 -3.0938  0.1639
   8823SM  C12S11794   0.727   2.979   3.698  0.1372  0.1161  0.3662
   8823SM  H12S11795   0.622   2.982   3.661 -0.3336  1.7470  1.6771
   8823SM  H12T11796   0.748   3.086   3.720  2.1634 -0.1651  0.0526
   8823SM  C13S11797   0.737   2.893   3.824  0.0766  0.1128  0.1174
   8823SM  H13S11798   0.843   2.897   3.854  0.7218 -2.5736 -1.4373
   8823SM  H13T11799   0.700   2.790   3.801 -1.9852  1.2087 -2.0411
   8823SM  C14S11800   0.642   2.949   3.926 -0.3526 -0.1254 -0.1817
   8823SM  H14S11801   0.551   2.990   3.878 -0.3609  1.2561  0.9501
   8823SM  H14T11802   0.689   3.040   3.970 -0.0230 -0.8309  0.9747
   8823SM  C15S11803   0.600   2.862   4.048 -0.0305  0.2043 -0.5647
   8823SM  H15S11804   0.689   2.817   4.098 -0.4150 -1.6925 -1.5064
   8823SM  H15T11805   0.536   2.779   4.011 -0.2863  0.2634 -0.2591
   8823SM  C16S11806   0.526   2.935   4.166  0.0594  0.2232  0.2662
   8823SM  H16S11807   0.460   2.856   4.208  1.2345 -0.2554  1.2706
   8823SM  H16T11808   0.458   3.015   4.128 -1.2080 -0.2600  1.4168
   8823SM  C17S11809   0.608   2.975   4.287  0.2934 -0.3754 -0.0417
   8823SM  H17S11810   0.558   3.036   4.366  3.4275 -0.5068  2.2767
   8823SM  H17T11811   0.686   3.049   4.258  0.5018  0.0339  1.4533
   8823SM  C18S11812   0.674   2.863   4.360 -0.0466 -0.2628  0.0789
   8823SM  H18S11813   0.748   2.891   4.439 -2.9202  1.7029  2.3019
   8823SM  H18T11814   0.727   2.790   4.296 -0.6924 -2.5025  1.9672
   8823SM  H18U11815   0.604   2.794   4.412  1.0489 -1.7095 -0.3033
   8823SM   C1F11816   1.126   2.003   3.108  0.8035  0.8101  0.2517
   8823SM    OF11817   1.248   2.012   3.115  0.4580  0.1532  0.0138
   8823SM   C2F11818   1.047   1.897   3.179 -0.1918 -0.2112 -0.1988
   8823SM   H2F11819   1.052   1.806   3.115  1.7361 -1.2265  1.3139
   8823SM   H2G11820   0.946   1.942   3.192  0.1599  0.8847 -1.1003
   8823SM   C3F11821   1.121   1.859   3.309 -0.3077  0.0064 -0.6378
   8823SM   H3F11822   1.227   1.829   3.297 -0.2040 -0.1128  0.4960
   8823SM   H3G11823   1.065   1.778   3.361  3.1969 -0.9207  2.0399
   8823SM   C4F11824   1.121   1.970   3.416  0.0291 -0.6765  0.6226
   8823SM   H4F11825   1.026   2.027   3.408  0.2770 -0.3672 -0.1427
   8823SM   H4G11826   1.211   2.030   3.391 -0.0605 -1.2835 -1.2652
   8823SM   C5F11827   1.125   1.913   3.554  0.0089 -0.3699  0.0451
   8823SM   H5F11828   1.177   1.816   3.561 -1.0191 -0.9062  0.5530
   8823SM   H5G11829   1.020   1.886   3.579 -0.0221 -1.2782 -1.0235
   8823SM   C6F11830   1.188   2.005   3.658  0.4914 -0.1183 -0.2606
   8823SM   H6F11831   1.130   2.098   3.675  1.6031  0.3495  1.1536
   8823SM   H6G11832   1.288   2.026   3.614  0.7202 -1.3122 -0.3366
   8823SM   C7F11833   1.195   1.929   3.794 -1.2541 -0.1455 -0.0651
   8823SM   H7F11834   1.247   1.831   3.784 -0.6397  0.0213  1.3030
   8823SM   H7G11835   1.089   1.904   3.819 -0.6320 -3.0699  0.0484
   8823SM   C8F11836   1.247   2.019   3.908 -0.3061  0.5999 -0.0779
   8823SM   H8F11837   1.215   2.122   3.880 -0.0199  0.5243 -0.6924
   8823SM   H8G11838   1.357   2.013   3.920 -0.1517  0.6041 -1.4012
   8823SM   C9F11839   1.186   1.973   4.045  0.5532  0.6805 -0.6681
   8823SM   H9F11840   1.254   1.998   4.130 -0.8605  1.5050  0.2676
   8823SM   H9G11841   1.176   1.863   4.054  1.4914  0.5554 -1.0278
   8823SM  C10F11842   1.048   2.035   4.075 -0.5266  0.5223  0.3030
   8823SM  H10F11843   0.988   2.025   3.982  0.3254 -2.4141 -0.0241
   8823SM  H10G11844   1.064   2.144   4.092  2.4181 -0.1202  2.4880
   8823SM  C11F11845   0.963   1.987   4.194  0.7242  0.3173 -0.0736
   8823SM  H11F11846   0.905   1.894   4.172 -3.8185  2.5459  1.2693
   8823SM  H11G11847   0.887   2.066   4.206  0.8586  0.7899 -1.9574
   8823SM  C12F11848   1.057   1.984   4.312  0.3226 -0.6024 -0.6236
   8823SM  H12F11849   1.092   2.089   4.321  0.1915 -0.5348 -0.8844
   8823SM  H12G11850   1.149   1.922   4.300  2.1479  1.4331  1.8085
   8823SM  C13F11851   0.988   1.949   4.445 -1.0040  0.7331 -0.0953
   8823SM  H13F11852   0.960   1.842   4.452 -2.0515  0.9034 -1.3821
   8823SM  H13G11853   0.896   2.008   4.465 -0.8193  1.1713 -0.5233
   8823SM  C14F11854   1.086   1.967   4.565  0.1099  0.3916 -0.5207
   8823SM  H14F11855   1.103   2.075   4.582  1.9748  0.3606 -1.8396
   8823SM  H14G11856   1.184   1.918   4.545 -0.5995 -1.5232  0.3896
   8823SM  C15F11857   1.033   1.912   4.697 -0.1085 -0.7692  0.6669
   8823SM  H15F11858   1.016   1.806   4.670 -1.0016  0.1426 -2.7483
   8823SM  H15G11859   0.932   1.953   4.717 -0.7897 -1.8471 -0.4359
   8823SM  C16F11860   1.142   1.923   4.811  0.1163 -0.0682 -0.7552
   8823SM  H16F11861   1.239   1.886   4.772 -0.0705  0.5824 -1.8729
   8823SM  H16G11862   1.109   1.845   4.883 -0.1768  1.3341  0.6885
   8823SM  C17F11863   1.157   2.065   4.864  0.2040  0.2427 -0.3123
   8823SM  H17F11864   1.052   2.099   4.880 -0.3895 -1.3794 -0.5419
   8823SM  H17G11865   1.204   2.127   4.785  2.5060 -2.9540 -1.6753
   8823SM  C18F11866   1.228   2.067   4.994 -0.3360  0.3354 -0.0789
   8823SM  H18F11867   1.326   2.021   4.970  0.3185  0.8377  1.5000
   8823SM  H18G11868   1.169   2.001   5.060  1.2068 -0.9438  0.0813
   8823SM  C19F11869   1.232   2.203   5.073  0.3987  0.6370 -0.1564
   8823SM  H19F11870   1.138   2.259   5.055  0.6878  0.9473 -0.7505
   8823SM  H19G11871   1.320   2.265   5.043  0.8481 -0.2619 -0.7263
   8823SM  C20F11872   1.252   2.177   5.221 -0.9551 -1.0473  0.2476
   8823SM  H20F11873   1.349   2.124   5.233 -0.4435 -0.4336 -1.0040
   8823SM  H20G11874   1.169   2.115   5.261 -0.7130 -1.1409  0.6170
   8823SM  C21F11875   1.253   2.313   5.298 -0.1529 -0.8454 -0.2763
   8823SM  H21F11876   1.150   2.355   5.300  0.2016  0.0026  0.8235
   8823SM  H21G11877   1.323   2.378   5.240 -2.7931  0.8244 -1.8099
   8823SM  C22F11878   1.299   2.297   5.445  0.3176  0.4228  0.4115
   8823SM  H22F11879   1.403   2.258   5.450  0.6169  1.2545  0.8568
   8823SM  H22G11880   1.225   2.226   5.487  0.3980 -0.2489 -0.5478
   8823SM  C23F11881   1.290   2.425   5.526  0.5295 -0.0568  0.1346
   8823SM  H23F11882   1.373   2.489   5.488  1.0742 -1.2985 -0.8398
   8823SM  H23G11883   1.313   2.406   5.633 -0.1772  1.2875  0.5542
   8823SM  H23H11884   1.193   2.477   5.514  0.5148  0.0908  0.8687
   8923SM     N11885   3.499   2.985   2.043 -0.8589  0.0313  0.4836
   8923SM   C1511886   3.446   3.123   2.002 -0.4355 -0.0123  0.0520
   8923SM  H15A11887   3.417   3.128   1.898 -0.6511  2.9632  0.1758
   8923SM  H15B11888   3.527   3.195   2.008 -0.3608 -0.1461  0.6995
   8923SM  H15C11889   3.367   3.156   2.067  0.4324  1.9661  0.1968
   8923SM   C1411890   3.411   2.885   1.973  0.7847 -0.1147 -0.5846
   8923SM  H14A11891   3.427   2.783   2.006  2.7847  0.0555 -0.9060
   8923SM  H14B11892   3.420   2.899   1.866  0.4034 -1.8935 -0.8961
   8923SM  H14C11893   3.308   2.903   1.998 -0.0121 -1.6841 -2.4271
   8923SM   C1311894   3.644   2.968   1.995 -0.3025  0.0663  0.6673
   8923SM  H13A11895   3.675   2.867   2.012 -3.1594 -0.5044  3.2993
   8923SM  H13B11896   3.715   3.035   2.041 -0.1100  1.2921 -1.2602
   8923SM  H13C11897   3.643   2.995   1.890 -2.5389  0.0126  0.6354
   8923SM   C1211898   3.500   2.962   2.195 -0.2305  0.0656 -0.3557
   8923SM  H12A11899   3.545   2.866   2.215 -0.6172 -0.3041 -1.2277
   8923SM  H12B11900   3.399   2.949   2.230 -0.2114  0.5081 -0.1298
   8923SM   C1111901   3.568   3.066   2.292  0.2655 -0.4034 -0.8659
   8923SM  H11A11902   3.557   3.026   2.395  0.6006 -0.7251 -0.9522
   8923SM  H11B11903   3.514   3.163   2.297 -1.2253 -1.2392  0.3217
   8923SM     P11904   3.820   3.000   2.301  0.0149  0.0919 -0.0293
   8923SM   O1311905   3.793   2.862   2.257 -0.1448 -0.0371  0.1858
   8923SM   O1411906   3.936   3.056   2.242 -1.3636  0.0473 -0.0274
   8923SM   O1111907   3.807   3.020   2.454  0.3581 -0.0864  0.2886
   8923SM   O1211908   3.702   3.094   2.262 -0.2835 -0.9718 -0.5448
   8923SM   C1S11909   3.787   3.136   2.532 -0.1818 -0.3532 -0.3915
   8923SM   H1S11910   3.692   3.186   2.504 -0.7250 -0.1209  1.7208
   8923SM   H1T11911   3.875   3.201   2.514  1.2368 -1.3656  2.4271
   8923SM    NF11912   3.832   3.211   2.762  0.4244  0.4340 -0.0502
   8923SM   HNF11913   3.929   3.229   2.779  0.0381  4.2789 -0.9838
   8923SM   C2S11914   3.788   3.095   2.685 -0.2745 -1.2333 -0.5461
   8923SM   H2S11915   3.684   3.074   2.719 -0.0808 -0.5445  0.5457
   8923SM   C3S11916   3.877   2.974   2.710 -0.2138  0.2203 -0.5021
   8923SM   H3S11917   3.980   3.002   2.679 -0.5149  2.3103  0.2119
   8923SM    O311918   3.838   2.858   2.646  0.1115 -0.3219  0.0183
   8923SM   HO311919   3.803   2.903   2.569  0.6578  1.1876  0.6104
   8923SM   C4S11920   3.879   2.940   2.853  0.1450 -0.0227  0.3824
   8923SM   H4S11921   3.805   2.866   2.885 -1.0114  0.5488 -0.8317
   8923SM   C5S11922   3.981   2.975   2.938  0.9679 -0.4568  0.4915
   8923SM   H5S11923   4.069   3.029   2.900  1.9968 -1.4498  1.4013
   8923SM   C6S11924   3.988   2.943   3.082 -0.4658  0.0980 -0.2919
   8923SM   H6S11925   4.087   2.895   3.102 -0.8408 -1.6808 -2.3653
   8923SM   H6T11926   3.911   2.865   3.099  0.1410 -0.1476  1.5867
   8923SM   C7S11927   3.961   3.062   3.170 -0.6223 -0.8908  0.1537
   8923SM   H7S11928   3.962   3.024   3.275  0.5371 -1.6617 -0.1164
   8923SM   H7T11929   3.862   3.110   3.157  0.4586  1.5972  0.5452
   8923SM   C8S11930   4.068   3.172   3.154  0.5413 -0.3117  0.2090
   8923SM   H8S11931   4.043   3.247   3.075  1.2394 -1.4565 -1.1444
   8923SM   H8T11932   4.168   3.140   3.118  1.1364  2.3995 -0.8564
   8923SM   C9S11933   4.085   3.249   3.289  0.0295  0.4594  0.3103
   8923SM   H9S11934   4.186   3.294   3.280 -0.7074  1.7181 -5.1892
   8923SM   H9T11935   4.072   3.174   3.370  2.0944  0.2936  0.5379
   8923SM  C10S11936   3.987   3.361   3.307  0.2770  0.7312  0.6748
   8923SM  H10S11937   3.899   3.303   3.270  2.4189 -2.3774  0.0871
   8923SM  H10T11938   3.996   3.448   3.239 -1.5567 -0.0611 -0.6872
   8923SM  C11S11939   3.975   3.398   3.456  0.7909  0.1418 -0.1671
   8923SM  H11S11940   4.076   3.424   3.493  0.9882  0.1500 -0.6962
   8923SM  H11T11941   3.935   3.310   3.511 -1.7777  0.9572 -0.6039
   8923SM  C12S11942   3.888   3.522   3.479  0.1206 -0.0762  0.1081
   8923SM  H12S11943   3.784   3.492   3.453  0.1620  0.6096 -0.9384
   8923SM  H12T11944   3.899   3.616   3.422 -3.0030  0.7325  0.6740
   8923SM  C13S11945   3.894   3.558   3.624 -0.1322 -0.2231  0.4828
   8923SM  H13S11946   3.989   3.611   3.644  1.0840 -2.3168  0.5481
   8923SM  H13T11947   3.918   3.466   3.682 -0.0741  0.4181  1.5197
   8923SM  C14S11948   3.769   3.630   3.692 -0.5294  0.6662  0.0475
   8923SM  H14S11949   3.681   3.564   3.696 -1.2722  1.6030 -0.4528
   8923SM  H14T11950   3.739   3.717   3.629  1.5661  0.8285 -0.8289
   8923SM  C15S11951   3.809   3.681   3.830 -0.5481  0.5867 -0.8166
   8923SM  H15S11952   3.894   3.751   3.818  0.1736 -0.0375  0.4465
   8923SM  H15T11953   3.843   3.587   3.880  0.9562  1.8617  0.6646
   8923SM  C16S11954   3.693   3.741   3.913 -1.1565  0.0559 -0.0945
   8923SM  H16S11955   3.653   3.820   3.845  0.2001 -0.4067 -1.4969
   8923SM  H16T11956   3.731   3.798   4.000  0.8629  1.9507 -2.0612
   8923SM  C17S11957   3.587   3.650   3.949 -0.5934  0.5458 -1.0961
   8923SM  H17S11958   3.640   3.556   3.977  1.4772  1.5429 -1.4745
   8923SM  H17T11959   3.531   3.622   3.857  0.0303 -3.6246 -0.4326
   8923SM  C18S11960   3.507   3.700   4.066  0.1716  0.3311  0.8162
   8923SM  H18S11961   3.411   3.645   4.068 -1.2087  2.3775 -2.1552
   8923SM  H18T11962   3.479   3.806   4.049 -0.6526  0.2844  1.8516
   8923SM  H18U11963   3.551   3.691   4.167  0.5287  1.0062  0.7278
   8923SM   C1F11964   3.760   3.325   2.770  0.2408  0.3813 -0.5098
   8923SM    OF11965   3.646   3.321   2.739 -0.3975  0.1984  0.5320
   8923SM   C2F11966   3.824   3.455   2.817  0.5929  0.4147 -1.0965
   8923SM   H2F11967   3.833   3.525   2.731 -0.6106  1.7004 -0.2225
   8923SM   H2G11968   3.927   3.431   2.850 -0.8505  0.2449  4.0567
   8923SM   C3F11969   3.745   3.526   2.936 -0.2334 -0.1167  0.1489
   8923SM   H3F11970   3.711   3.450   3.010 -2.6847 -0.0295 -0.8126
   8923SM   H3G11971   3.647   3.562   2.900 -0.8421 -1.0951  0.7914
   8923SM   C4F11972   3.839   3.636   3.006 -0.0584 -0.0891 -0.1500
   8923SM   H4F11973   3.855   3.725   2.942 -0.0021  0.3916  0.5277
   8923SM   H4G11974   3.934   3.581   3.027  0.2565  1.2702  2.3549
   8923SM   C5F11975   3.778   3.691   3.138 -0.1159 -0.0142 -0.5398
   8923SM   H5F11976   3.849   3.758   3.190 -0.8937  0.2495  0.1999
   8923SM   H5G11977   3.777   3.602   3.204  0.9247 -0.9055 -1.6830
   8923SM   C6F11978   3.635   3.749   3.124 -0.1257 -0.1219  0.8563
   8923SM   H6F11979   3.562   3.675   3.085 -0.0595 -0.1574  0.7997
   8923SM   H6G11980   3.656   3.820   3.041 -1.0780 -1.0342 -0.2064
   8923SM   C7F11981   3.572   3.799   3.255 -0.6515 -0.3006  0.0905
   8923SM   H7F11982   3.491   3.868   3.224  0.8702  1.3359 -0.4019
   8923SM   H7G11983   3.645   3.869   3.301 -0.7977  0.2336 -0.4900
   8923SM   C8F11984   3.515   3.691   3.349  0.1728 -0.2805  0.5193
   8923SM   H8F11985   3.603   3.627   3.374  1.0464 -0.4189 -2.4363
   8923SM   H8G11986   3.456   3.622   3.284  0.9416  0.5266 -1.0792
   8923SM   C9F11987   3.434   3.742   3.467 -0.5323 -0.3005 -0.4958
   8923SM   H9F11988   3.350   3.807   3.433  0.1821  0.4082 -0.9473
   8923SM   H9G11989   3.503   3.799   3.534 -0.8983 -4.5620  4.1045
   8923SM  C10F11990   3.382   3.629   3.560  0.2968  0.3412 -0.3331
   8923SM  H10F11991   3.452   3.550   3.596  0.1197  0.2785 -0.1242
   8923SM  H10G11992   3.311   3.572   3.497 -0.0339  1.3292 -0.8728
   8923SM  C11F11993   3.304   3.694   3.679 -0.0890  0.8100  0.0755
   8923SM  H11F11994   3.255   3.789   3.647  1.4374  1.4032 -0.5957
   8923SM  H11G11995   3.383   3.732   3.748  0.4229 -0.2045  0.0610
   8923SM  C12F11996   3.188   3.612   3.741  0.1974 -0.7150  0.0233
   8923SM  H12F11997   3.123   3.596   3.652  0.1463  0.0446 -0.0809
   8923SM  H12G11998   3.131   3.660   3.824  0.6786 -0.4377  0.1941
   8923SM  C13F11999   3.243   3.476   3.806  0.9278  0.5268 -0.3414
   8923SM  H13F12000   3.250   3.490   3.916  0.5898  1.9634 -0.4835
   8923SM  H13G12001   3.348   3.459   3.776  1.1669  0.8387  0.2951
   8923SM  C14F12002   3.169   3.347   3.777 -0.0517  0.3317 -0.5169
   8923SM  H14F12003   3.195   3.268   3.851 -0.5239 -0.5848 -1.2998
   8923SM  H14G12004   3.206   3.314   3.678 -1.0219  0.4556 -0.9359
   8923SM  C15F12005   3.013   3.359   3.762  0.1857 -0.3000 -0.5706
   8923SM  H15F12006   2.970   3.263   3.725 -1.2300 -0.4090  1.2275
   8923SM  H15G12007   3.000   3.438   3.685  0.7156  0.6630  0.3088
   8923SM  C16F12008   2.943   3.415   3.886  0.2315  0.9614 -0.1805
   8923SM  H16F12009   2.977   3.520   3.905  2.5564  0.0907  0.8521
   8923SM  H16G12010   2.982   3.350   3.967 -0.3353  0.8659  0.0197
   8923SM  C17F12011   2.785   3.428   3.873 -0.3926 -0.0449  0.2720
   8923SM  H17F12012   2.747   3.323   3.865  1.7967 -0.7603 -2.3624
   8923SM  H17G12013   2.767   3.497   3.788  0.8739  1.4894  1.1938
   8923SM  C18F12014   2.726   3.499   3.998 -0.1274 -0.4303  0.7624
   8923SM  H18F12015   2.628   3.544   3.972  1.6526  2.2820 -1.9098
   8923SM  H18G12016   2.791   3.583   4.030 -1.1089  1.2124 -1.2970
   8923SM  C19F12017   2.706   3.405   4.115  0.0244  0.5859  0.6732
   8923SM  H19F12018   2.803   3.358   4.141  0.8925  1.4062 -0.9111
   8923SM  H19G12019   2.642   3.323   4.074  2.0481  0.7798 -3.3664
   8923SM  C20F12020   2.642   3.481   4.230  0.0573  0.1956 -0.9150
   8923SM  H20F12021   2.593   3.405   4.296 -0.7074  0.4068 -1.2300
   8923SM  H20G12022   2.557   3.544   4.197 -0.5487 -0.5197 -0.7513
   8923SM  C21F12023   2.748   3.554   4.315  0.0016  0.5048 -0.3216
   8923SM  H21F12024   2.790   3.633   4.250  0.3808  1.9420  1.5926
   8923SM  H21G12025   2.829   3.484   4.347  1.5829  1.7622 -1.4392
   8923SM  C22F12026   2.693   3.622   4.440 -0.6137 -0.3650 -0.3809
   8923SM  H22F12027   2.655   3.544   4.510  2.3588 -1.3803  0.2427
   8923SM  H22G12028   2.617   3.694   4.402 -0.6051 -1.4730 -2.6518
   8923SM  C23F12029   2.796   3.705   4.524 -0.0293  0.3248 -0.0153
   8923SM  H23F12030   2.881   3.633   4.529 -0.4603 -0.3737 -1.8139
   8923SM  H23G12031   2.762   3.722   4.629  2.0746 -3.6575  1.5367
   8923SM  H23H12032   2.835   3.800   4.483  1.6911  0.0678  0.9034
   9023SM     N12033   4.624   3.244   1.879 -0.4619  0.1463  0.2876
   9023SM   C1512034   4.712   3.255   2.001  0.2242  0.8940 -0.4806
   9023SM  H15A12035   4.756   3.160   2.028 -1.2116  0.4015  0.2534
   9023SM  H15B12036   4.648   3.281   2.085 -0.3785 -0.3279 -0.5271
   9023SM  H15C12037   4.780   3.338   1.990  2.1430 -0.5061  0.3616
   9023SM   C1412038   4.559   3.371   1.848 -0.1270  0.5570 -0.2996
   9023SM  H14A12039   4.473   3.382   1.913 -1.1204  0.8190 -1.6182
   9023SM  H14B12040   4.518   3.357   1.749  0.6309 -1.7251 -0.3286
   9023SM  H14C12041   4.617   3.462   1.846  1.4989 -0.4418  0.2102
   9023SM   C1312042   4.711   3.211   1.755  0.1126 -0.5803 -0.6407
   9023SM  H13A12043   4.746   3.109   1.761 -0.5677 -0.8049 -0.4560
   9023SM  H13B12044   4.798   3.274   1.741  1.9550 -3.1254 -1.5232
   9023SM  H13C12045   4.659   3.219   1.661 -3.5398 -4.9367  0.6546
   9023SM   C1212046   4.526   3.130   1.886 -0.5881 -0.6379 -0.0316
   9023SM  H12A12047   4.466   3.117   1.797 -0.7574 -0.3414  0.0376
   9023SM  H12B12048   4.462   3.143   1.971 -0.1741  2.8394 -0.1035
   9023SM   C1112049   4.599   2.995   1.917 -0.5161 -0.5733  0.4998
   9023SM  H11A12050   4.662   3.002   2.009  0.4076  1.0432 -0.2097
   9023SM  H11B12051   4.667   2.968   1.834  0.8199  0.4247  1.2212
   9023SM     P12052   4.511   2.742   1.912  0.3719  0.0296  0.0783
   9023SM   O1312053   4.382   2.670   1.941  0.2834  0.7367 -0.0430
   9023SM   O1412054   4.569   2.716   1.779 -0.3931 -0.0050 -0.0993
   9023SM   O1112055   4.627   2.710   2.025  0.5992 -0.5105  0.0343
   9023SM   O1212056   4.492   2.904   1.927 -0.1292 -0.4705 -0.1916
   9023SM   C1S12057   4.588   2.743   2.160 -0.0946  0.5091 -0.1199
   9023SM   H1S12058   4.517   2.664   2.191 -1.0460  1.7280  0.9144
   9023SM   H1T12059   4.538   2.842   2.167 -0.5559  0.6355 -3.3301
   9023SM    NF12060   4.658   2.749   2.400  0.2022 -0.0373 -0.1873
   9023SM   HNF12061   4.657   2.843   2.432  0.4847 -0.5436  1.4006
   9023SM   C2S12062   4.706   2.729   2.260 -0.8319  0.0864  0.6244
   9023SM   H2S12063   4.750   2.627   2.260  0.3498  0.5611 -0.5856
   9023SM   C3S12064   4.819   2.822   2.223 -0.5845  0.5040  0.7509
   9023SM   H3S12065   4.768   2.921   2.226  0.1128  0.8973 -0.0782
   9023SM    O312066   4.870   2.813   2.090 -0.2540  0.1705  0.0470
   9023SM   HO312067   4.798   2.786   2.031  0.1638  0.5998 -0.6712
   9023SM   C4S12068   4.928   2.821   2.323  0.5749  0.2449 -0.2149
   9023SM   H4S12069   4.898   2.889   2.405 -0.3930 -0.4340  0.0145
   9023SM   C5S12070   5.047   2.757   2.314 -0.6616  0.2273 -0.1885
   9023SM   H5S12071   5.051   2.685   2.231 -0.8128  2.3068 -2.1155
   9023SM   C6S12072   5.152   2.760   2.421  0.1931  0.3024 -0.3996
   9023SM   H6S12073   5.106   2.763   2.522 -0.4628  0.9872 -0.7059
   9023SM   H6T12074   5.218   2.849   2.410  0.1880  0.2776 -0.6466
   9023SM   C7S12075   5.257   2.642   2.423  0.0695  0.3625  0.6836
   9023SM   H7S12076   5.323   2.654   2.335  1.5894  0.1321  1.7661
   9023SM   H7T12077   5.206   2.543   2.424  1.1147 -0.1888  1.2686
   9023SM   C8S12078   5.360   2.635   2.540  0.3150  0.0103  0.1212
   9023SM   H8S12079   5.410   2.733   2.550  1.9929 -0.9398  1.7756
   9023SM   H8T12080   5.424   2.550   2.508  1.6954  0.7771  0.7622
   9023SM   C9S12081   5.309   2.618   2.680 -0.0962 -0.0381  0.2429
   9023SM   H9S12082   5.227   2.691   2.700  1.2934  1.0714  2.2721
   9023SM   H9T12083   5.382   2.639   2.761  0.2010 -2.2815  0.6066
   9023SM  C10S12084   5.256   2.475   2.713 -0.8250 -0.6380  0.4749
   9023SM  H10S12085   5.348   2.418   2.688 -0.8000 -0.2860 -0.2638
   9023SM  H10T12086   5.176   2.440   2.644 -0.4742  0.0468 -0.2946
   9023SM  C11S12087   5.213   2.454   2.856  0.1062  0.3463  0.0398
   9023SM  H11S12088   5.136   2.530   2.882  0.5374  0.2187  1.9013
   9023SM  H11T12089   5.293   2.473   2.931  0.2947  0.5383 -0.2094
   9023SM  C12S12090   5.158   2.312   2.879 -0.3965 -0.3315 -0.2694
   9023SM  H12S12091   5.223   2.231   2.840 -1.7612 -1.7386  0.2607
   9023SM  H12T12092   5.057   2.311   2.833 -0.8136  1.2535  0.5453
   9023SM  C13S12093   5.120   2.281   3.022  0.8393 -0.0231  0.0658
   9023SM  H13S12094   5.053   2.193   3.019  0.0794  0.5648 -1.1966
   9023SM  H13T12095   5.058   2.365   3.060  0.4138  0.4773 -1.6308
   9023SM  C14S12096   5.232   2.256   3.119  0.1139 -0.3180  0.4658
   9023SM  H14S12097   5.290   2.351   3.126  0.6407 -0.7023  1.8767
   9023SM  H14T12098   5.299   2.173   3.088  1.7870  1.4860 -1.0051
   9023SM  C15S12099   5.176   2.234   3.259  0.5408  0.6149  0.0243
   9023SM  H15S12100   5.109   2.145   3.256  0.6099  0.5810 -0.7122
   9023SM  H15T12101   5.108   2.315   3.292  0.4825 -0.1974  2.0514
   9023SM  C16S12102   5.280   2.215   3.365 -0.3717  0.1164 -0.2953
   9023SM  H16S12103   5.241   2.211   3.469  0.5451 -3.5001  0.0333
   9023SM  H16T12104   5.349   2.298   3.388 -0.2123 -0.3081  0.8374
   9023SM  C17S12105   5.367   2.093   3.345  0.4250 -0.9129  0.4068
   9023SM  H17S12106   5.420   2.090   3.248 -1.1649  1.9808 -0.6693
   9023SM  H17T12107   5.299   2.006   3.358  0.3418 -0.8195  0.5947
   9023SM  C18S12108   5.478   2.064   3.451  0.5185 -0.2679 -0.6661
   9023SM  H18S12109   5.519   1.961   3.443 -0.7503 -0.8794  0.3703
   9023SM  H18T12110   5.429   2.069   3.550  0.4421  0.1479 -0.7213
   9023SM  H18U12111   5.560   2.140   3.444 -0.0105  0.6405  1.8822
   9023SM   C1F12112   4.573   2.669   2.462 -0.2059 -0.1270  0.6673
   9023SM    OF12113   4.566   2.547   2.430 -0.6208  0.5352 -0.2817
   9023SM   C2F12114   4.475   2.747   2.552 -0.4091  0.9930  0.0617
   9023SM   H2F12115   4.447   2.843   2.504  0.6186  1.3182  0.0782
   9023SM   H2G12116   4.534   2.759   2.646  0.0522  1.2884 -0.2626
   9023SM   C3F12117   4.344   2.671   2.567  0.0654  0.3585 -0.1233
   9023SM   H3F12118   4.367   2.563   2.580 -0.0329  0.4554  0.9431
   9023SM   H3G12119   4.272   2.677   2.483 -1.1830 -2.1179  0.6714
   9023SM   C4F12120   4.290   2.705   2.706 -0.2572  0.0031  0.1049
   9023SM   H4F12121   4.188   2.661   2.707 -0.5127  0.4532 -1.7697
   9023SM   H4G12122   4.272   2.813   2.729  0.9530  0.5604 -1.3502
   9023SM   C5F12123   4.369   2.653   2.822  0.6384  0.5278  0.1175
   9023SM   H5F12124   4.459   2.716   2.843  2.8449 -2.2812 -0.1939
   9023SM   H5G12125   4.408   2.549   2.809 -0.0361  0.2456  0.3445
   9023SM   C6F12126   4.278   2.644   2.952  0.0549  0.2460 -0.1120
   9023SM   H6F12127   4.221   2.550   2.937  1.6121 -0.5405 -1.4084
   9023SM   H6G12128   4.215   2.735   2.956 -0.4432 -0.0444 -1.0820
   9023SM   C7F12129   4.367   2.639   3.079 -0.3320 -0.1008 -0.1267
   9023SM   H7F12130   4.394   2.746   3.094 -1.2638  0.2991 -1.2027
   9023SM   H7G12131   4.463   2.587   3.056 -0.0312 -0.7653  2.3048
   9023SM   C8F12132   4.299   2.575   3.208 -0.0384 -0.3835 -0.0335
   9023SM   H8F12133   4.277   2.470   3.182  1.0584  0.0751 -3.2720
   9023SM   H8G12134   4.200   2.625   3.219  0.4239  0.6855 -0.5503
   9023SM   C9F12135   4.387   2.584   3.338 -0.6825  0.3669  0.3068
   9023SM   H9F12136   4.482   2.531   3.316 -1.7840 -2.8293  2.5172
   9023SM   H9G12137   4.340   2.519   3.415 -1.4030  1.8269  1.1206
   9023SM  C10F12138   4.413   2.726   3.393  1.1098 -0.2298  0.7369
   9023SM  H10F12139   4.318   2.782   3.402  0.3731 -1.1786 -0.7252
   9023SM  H10G12140   4.468   2.778   3.311 -2.3207  1.3637 -0.7535
   9023SM  C11F12141   4.483   2.742   3.529  0.1503  0.0207 -0.0965
   9023SM  H11F12142   4.489   2.851   3.546 -0.9655  0.4862 -2.3179
   9023SM  H11G12143   4.581   2.688   3.524 -0.6725 -1.7637  1.6722
   9023SM  C12F12144   4.421   2.666   3.646 -0.0184 -0.2595  0.5515
   9023SM  H12F12145   4.431   2.557   3.627 -1.1644 -0.6430  1.9319
   9023SM  H12G12146   4.311   2.683   3.649 -0.2924 -1.7889 -0.2721
   9023SM  C13F12147   4.506   2.706   3.770  0.4267 -0.3168  0.0355
   9023SM  H13F12148   4.478   2.809   3.799  1.0092 -0.3909  0.9217
   9023SM  H13G12149   4.610   2.720   3.735  0.5095  1.2163  0.8289
   9023SM  C14F12150   4.488   2.604   3.887  0.1327  1.4010  0.0529
   9023SM  H14F12151   4.383   2.591   3.919  0.5357 -2.0813  0.4585
   9023SM  H14G12152   4.542   2.638   3.979  1.0173  0.0787  0.0602
   9023SM  C15F12153   4.542   2.458   3.863  0.4658 -0.0364  0.0700
   9023SM  H15F12154   4.649   2.467   3.834 -0.2229  0.1794 -2.7266
   9023SM  H15G12155   4.484   2.421   3.775 -1.0132 -1.2558  1.5045
   9023SM  C16F12156   4.527   2.366   3.984 -0.2030  0.6582 -0.2733
   9023SM  H16F12157   4.423   2.366   4.020  0.0864  0.1590  0.5877
   9023SM  H16G12158   4.595   2.400   4.065 -0.4605 -1.0215  0.6919
   9023SM  C17F12159   4.578   2.223   3.958  0.3745  0.0678 -0.3433
   9023SM  H17F12160   4.515   2.168   3.884 -1.3268 -0.7793  1.6239
   9023SM  H17G12161   4.568   2.172   4.057  0.3699 -1.0310 -0.8924
   9023SM  C18F12162   4.723   2.222   3.918  0.2482  0.5097 -1.6651
   9023SM  H18F12163   4.780   2.280   3.994 -0.5957  0.6478 -1.1258
   9023SM  H18G12164   4.741   2.281   3.825 -2.7896  0.7339 -2.2232
   9023SM  C19F12165   4.792   2.086   3.917 -0.1552  0.3734 -0.2701
   9023SM  H19F12166   4.772   2.043   3.817 -1.3625 -2.5974  1.1174
   9023SM  H19G12167   4.738   2.022   3.991  0.4251 -0.2953 -0.4152
   9023SM  C20F12168   4.944   2.084   3.935 -0.2691 -0.6760 -0.5282
   9023SM  H20F12169   4.978   1.981   3.958 -1.0448 -1.3546 -2.2278
   9023SM  H20G12170   4.956   2.138   4.031  0.4724 -0.1567 -0.9034
   9023SM  C21F12171   5.028   2.144   3.815  0.3682  0.6306 -0.5050
   9023SM  H21F12172   5.008   2.253   3.808  0.5493  0.7850  1.0383
   9023SM  H21G12173   4.991   2.087   3.726 -0.1328 -0.4537  0.3754
   9023SM  C22F12174   5.175   2.122   3.847  0.2354  0.6454 -0.1456
   9023SM  H22F12175   5.227   2.152   3.753  1.0710 -1.4321 -0.3785
   9023SM  H22G12176   5.189   2.013   3.858 -0.6857  0.6192  0.8978
   9023SM  C23F12177   5.228   2.187   3.971 -0.7401  0.2945  0.0642
   9023SM  H23F12178   5.198   2.136   4.066  4.9225 -2.0480  1.0157
   9023SM  H23G12179   5.207   2.296   3.968  3.1527  1.1972  0.7836
   9023SM  H23H12180   5.338   2.174   3.966 -0.9449 -2.0669  0.4955
   9123SM     N12181   5.198   3.475   2.171 -0.0335 -0.0635  0.2861
   9123SM   C1512182   5.212   3.524   2.031 -0.9110  0.2199 -0.1576
   9123SM  H15A12183   5.118   3.569   2.003 -1.2056 -1.0703 -1.3740
   9123SM  H15B12184   5.225   3.445   1.958  0.4568 -0.7999  1.1338
   9123SM  H15C12185   5.295   3.593   2.031  2.2811 -3.3224  0.0822
   9123SM   C1412186   5.095   3.362   2.185 -0.4936 -1.0453  0.1517
   9123SM  H14A12187   5.126   3.279   2.124 -0.2616 -1.2151  0.4997
   9123SM  H14B12188   5.003   3.401   2.143 -1.1599 -1.7436  0.9203
   9123SM  H14C12189   5.085   3.323   2.286  0.8522 -2.9768 -0.4072
   9123SM   C1312190   5.326   3.416   2.209 -0.2414  0.3033 -0.1808
   9123SM  H13A12191   5.330   3.383   2.312  0.0106  1.7526  0.3031
   9123SM  H13B12192   5.402   3.493   2.201  0.1450 -0.1164 -0.5791
   9123SM  H13C12193   5.357   3.330   2.153  0.2564 -0.1218  0.7338
   9123SM   C1212194   5.154   3.582   2.265  0.2066 -0.1811 -0.4257
   9123SM  H12A12195   5.231   3.656   2.258 -0.4653  0.8456  2.0061
   9123SM  H12B12196   5.158   3.563   2.372  0.5921  4.1393  0.4879
   9123SM   C1112197   5.023   3.661   2.238 -0.0765 -0.6615  0.2978
   9123SM  H11A12198   5.004   3.716   2.333 -1.2386 -0.4741 -0.0315
   9123SM  H11B12199   4.939   3.588   2.229 -0.1122 -0.6283  0.3667
   9123SM     P12200   5.129   3.876   2.121 -0.0653  0.2285 -0.5099
   9123SM   O1312201   5.269   3.835   2.095  0.0223 -0.3721  0.2260
   9123SM   O1412202   5.079   3.980   2.031 -0.0455 -0.4640  0.4821
   9123SM   O1112203   5.121   3.930   2.273  0.0817 -0.4558  0.7686
   9123SM   O1212204   5.035   3.748   2.124  0.7759 -0.2887 -1.1071
   9123SM   C1S12205   5.012   4.012   2.315  0.2549 -1.0995 -0.5519
   9123SM   H1S12206   4.922   3.947   2.315 -0.4178 -0.1846 -0.7564
   9123SM   H1T12207   4.989   4.092   2.241 -0.5859  1.0201  1.8791
   9123SM    NF12208   4.915   4.155   2.496  0.4292 -0.1362 -0.6117
   9123SM   HNF12209   4.925   4.254   2.501 -2.1569  0.3228 -2.8229
   9123SM   C2S12210   5.032   4.083   2.455 -0.1501 -0.3354  0.1142
   9123SM   H2S12211   5.039   4.001   2.530  2.1655 -1.0115 -0.7627
   9123SM   C3S12212   5.165   4.165   2.469 -0.6686 -0.7415 -0.7880
   9123SM   H3S12213   5.158   4.240   2.387  1.4471 -1.9439 -2.1789
   9123SM    O312214   5.275   4.088   2.426 -0.4689  0.4735  0.1692
   9123SM   HO312215   5.228   4.021   2.377 -2.6257  2.4336 -0.6380
   9123SM   C4S12216   5.185   4.231   2.597  0.2767 -0.5592 -0.3084
   9123SM   H4S12217   5.150   4.169   2.681  1.0017  0.5178  0.8267
   9123SM   C5S12218   5.230   4.356   2.629  0.2292  0.7004  0.0083
   9123SM   H5S12219   5.253   4.422   2.544  2.7966  1.8305  1.4632
   9123SM   C6S12220   5.241   4.407   2.767  0.5299  0.1813 -0.2729
   9123SM   H6S12221   5.168   4.491   2.773 -1.4715 -1.5794  2.6041
   9123SM   H6T12222   5.339   4.459   2.768  0.5790  0.1283  1.6648
   9123SM   C7S12223   5.214   4.318   2.890  0.0804  0.0634 -0.1031
   9123SM   H7S12224   5.248   4.390   2.968  0.7842 -0.8921  0.4942
   9123SM   H7T12225   5.271   4.224   2.872 -1.5841 -0.7722 -1.2552
   9123SM   C8S12226   5.065   4.283   2.904 -0.0502 -1.0347 -0.9332
   9123SM   H8S12227   5.023   4.243   2.810 -0.6896 -1.1710 -0.5954
   9123SM   H8T12228   5.006   4.376   2.920 -0.8477 -1.5097 -1.0818
   9123SM   C9S12229   5.035   4.177   3.018  0.1958 -0.6944  0.0396
   9123SM   H9S12230   5.102   4.093   2.991 -0.9102 -1.2762 -1.0261
   9123SM   H9T12231   4.929   4.146   3.001  0.2451 -0.7492 -0.1720
   9123SM  C10S12232   5.062   4.210   3.169 -0.2041 -0.2598 -0.0288
   9123SM  H10S12233   5.167   4.246   3.172 -0.3756  0.3474 -0.8971
   9123SM  H10T12234   5.036   4.122   3.232  0.1866  0.2072  0.8022
   9123SM  C11S12235   4.972   4.330   3.224 -0.1745 -0.2077 -0.2475
   9123SM  H11S12236   4.869   4.289   3.216  0.1654 -1.3378  0.8137
   9123SM  H11T12237   4.994   4.416   3.157 -1.5158  0.2028 -0.1828
   9123SM  C12S12238   4.989   4.363   3.376  0.3888 -0.2684  0.2375
   9123SM  H12S12239   4.990   4.264   3.426 -0.8841 -0.8578 -0.8419
   9123SM  H12T12240   4.899   4.417   3.411  0.4149 -0.4652  0.6112
   9123SM  C13S12241   5.116   4.443   3.415 -0.0787 -0.5541 -0.0673
   9123SM  H13S12242   5.101   4.553   3.409 -0.0012 -0.6310 -3.7042
   9123SM  H13T12243   5.191   4.424   3.336 -0.4398  1.3276 -0.9185
   9123SM  C14S12244   5.158   4.407   3.558 -0.5749 -0.6535  0.6424
   9123SM  H14S12245   5.241   4.478   3.579 -0.8502  0.0361 -0.5487
   9123SM  H14T12246   5.199   4.304   3.557  2.1400  0.3584 -0.1141
   9123SM  C15S12247   5.046   4.422   3.668 -0.2245 -0.3163  0.2258
   9123SM  H15S12248   5.096   4.381   3.758 -2.4030 -2.3669  0.5694
   9123SM  H15T12249   4.958   4.363   3.636 -0.7372  0.7528 -0.3956
   9123SM  C16S12250   5.002   4.567   3.688  0.1199 -0.0708  0.7192
   9123SM  H16S12251   4.914   4.551   3.755  0.0673 -0.5481  0.5413
   9123SM  H16T12252   4.972   4.626   3.599  1.5133 -0.9657 -0.3785
   9123SM  C17S12253   5.108   4.647   3.764 -0.5096 -0.7943  0.7302
   9123SM  H17S12254   5.193   4.659   3.693 -1.1414 -1.5942 -0.1935
   9123SM  H17T12255   5.137   4.583   3.849 -0.0729 -0.6374  0.7000
   9123SM  C18S12256   5.069   4.791   3.801 -0.2873 -0.3872  0.6180
   9123SM  H18S12257   5.021   4.839   3.713 -2.6283 -1.5365  1.1849
   9123SM  H18T12258   5.162   4.843   3.832  0.6111 -1.6243  0.0923
   9123SM  H18U12259   5.002   4.782   3.889  2.8083 -0.0255  3.1842
   9123SM   C1F12260   4.799   4.107   2.521  0.7161 -0.7122  0.8639
   9123SM    OF12261   4.780   3.985   2.518  0.3736 -0.4088  0.2798
   9123SM   C2F12262   4.691   4.208   2.536 -0.3303  0.4903  0.0585
   9123SM   H2F12263   4.634   4.210   2.441  1.3575 -1.2425 -1.0817
   9123SM   H2G12264   4.725   4.311   2.559  0.8464 -0.2996  2.2581
   9123SM   C3F12265   4.597   4.180   2.658  0.3658 -0.5148 -0.5151
   9123SM   H3F12266   4.537   4.091   2.629 -0.6032  0.1520 -0.5974
   9123SM   H3G12267   4.532   4.268   2.675  0.9944 -0.2208  0.4794
   9123SM   C4F12268   4.669   4.156   2.793  0.0716 -0.3802 -0.3847
   9123SM   H4F12269   4.752   4.229   2.797  0.2882 -0.6618  1.1141
   9123SM   H4G12270   4.705   4.051   2.786 -1.5513 -0.8563 -2.6180
   9123SM   C5F12271   4.580   4.177   2.918  0.4028 -0.1819  1.2445
   9123SM   H5F12272   4.491   4.113   2.903 -0.1602  0.9978 -0.8539
   9123SM   H5G12273   4.551   4.283   2.936 -1.2321 -0.8847  3.1775
   9123SM   C6F12274   4.648   4.139   3.053  0.1532 -0.1983  0.4336
   9123SM   H6F12275   4.728   4.214   3.068 -0.6539  1.0221 -1.0818
   9123SM   H6G12276   4.681   4.033   3.058 -0.6633 -0.5462 -1.0520
   9123SM   C7F12277   4.551   4.169   3.176  0.0776  0.1413 -0.4223
   9123SM   H7F12278   4.454   4.119   3.157  0.6885 -1.5599  0.6587
   9123SM   H7G12279   4.532   4.277   3.193  0.2850 -0.3263  3.7469
   9123SM   C8F12280   4.604   4.103   3.311 -0.1883  0.2202  0.8987
   9123SM   H8F12281   4.699   4.154   3.336 -0.2029  1.6479 -1.6865
   9123SM   H8G12282   4.637   3.998   3.296  1.5432  0.5999  1.7592
   9123SM   C9F12283   4.495   4.107   3.421 -0.5808 -0.5601  0.6265
   9123SM   H9F12284   4.415   4.032   3.400 -1.0312 -0.3301  1.4611
   9123SM   H9G12285   4.435   4.199   3.409 -0.9825 -0.8346  0.4967
   9123SM  C10F12286   4.551   4.075   3.559 -0.2258 -0.0392 -0.1483
   9123SM  H10F12287   4.576   3.967   3.573 -1.8572 -0.2379  1.6421
   9123SM  H10G12288   4.467   4.104   3.626  1.1463 -1.1880  2.2153
   9123SM  C11F12289   4.663   4.155   3.613  0.0394 -0.0334 -0.2948
   9123SM  H11F12290   4.666   4.263   3.588 -2.3889 -0.1886 -1.5075
   9123SM  H11G12291   4.755   4.109   3.570  1.3148  2.2837 -0.2396
   9123SM  C12F12292   4.661   4.157   3.771  0.2985  0.6402 -0.1062
   9123SM  H12F12293   4.670   4.052   3.805  1.8493  0.3419 -1.3166
   9123SM  H12G12294   4.565   4.204   3.802 -0.0631 -0.3372  0.2908
   9123SM  C13F12295   4.778   4.235   3.827  0.2577  0.3490 -0.3649
   9123SM  H13F12296   4.757   4.343   3.809  0.4818  0.5116  0.3124
   9123SM  H13G12297   4.865   4.203   3.767  2.2620  0.2818  2.3941
   9123SM  C14F12298   4.805   4.209   3.975  0.3100 -0.2739  0.6734
   9123SM  H14F12299   4.830   4.102   3.989  2.7286  0.2965  1.2829
   9123SM  H14G12300   4.713   4.235   4.031  1.1789 -0.3453  2.2099
   9123SM  C15F12301   4.937   4.271   4.031  0.4192  0.6543 -0.1710
   9123SM  H15F12302   5.007   4.239   3.951  0.8402 -2.1106  1.2010
   9123SM  H15G12303   4.977   4.219   4.120  1.8073 -1.8077 -2.0983
   9123SM  C16F12304   4.932   4.419   4.058  0.1385  0.4628  0.5715
   9123SM  H16F12305   4.926   4.463   3.956 -0.5540 -2.6747 -0.8576
   9123SM  H16G12306   5.027   4.435   4.113 -1.4513 -1.1911  4.0837
   9123SM  C17F12307   4.815   4.447   4.152  0.3730  0.1952  0.3314
   9123SM  H17F12308   4.823   4.371   4.232  1.7369 -0.1337 -0.0956
   9123SM  H17G12309   4.714   4.455   4.105  1.2916  1.0229 -1.5990
   9123SM  C18F12310   4.844   4.579   4.236 -0.3770  0.3747 -0.3268
   9123SM  H18F12311   4.848   4.669   4.170 -0.9674  0.1196 -0.7208
   9123SM  H18G12312   4.949   4.572   4.272 -0.7127 -1.8744  0.3794
   9123SM  C19F12313   4.747   4.613   4.355 -0.1136  0.1137  0.4175
   9123SM  H19F12314   4.757   4.535   4.433  2.2529  1.1158  1.2005
   9123SM  H19G12315   4.642   4.622   4.319 -0.7848 -0.9849  1.9926
   9123SM  C20F12316   4.795   4.742   4.422 -0.1487  0.1283  0.4465
   9123SM  H20F12317   4.801   4.823   4.346 -1.1058 -1.1475 -1.0527
   9123SM  H20G12318   4.901   4.733   4.455  0.3199  3.5105  0.2070
   9123SM  C21F12319   4.696   4.776   4.532 -0.4825 -0.7589 -0.2573
   9123SM  H21F12320   4.737   4.876   4.561 -0.4519 -0.3710 -1.5901
   9123SM  H21G12321   4.718   4.713   4.620 -0.3980  0.6337  0.7585
   9123SM  C22F12322   4.541   4.800   4.496 -0.0547 -0.0761  0.1681
   9123SM  H22F12323   4.493   4.704   4.522  2.5615 -1.4648  0.1602
   9123SM  H22G12324   4.531   4.815   4.386 -0.4369  0.7673  0.3088
   9123SM  C23F12325   4.478   4.921   4.566  0.0051 -0.0413 -0.2521
   9123SM  H23F12326   4.469   4.906   4.676 -0.7757 -2.7767 -0.6301
   9123SM  H23G12327   4.376   4.934   4.525  0.0832 -0.7330 -0.6774
   9123SM  H23H12328   4.528   5.018   4.544 -0.0930 -0.0512 -0.5162
   9223SM     N12329   3.155   1.893   2.153  0.1518  0.6676  0.8578
   9223SM   C1512330   3.056   1.804   2.214 -0.1002  0.1876  0.2112
   9223SM  H15A12331   2.997   1.751   2.141  0.9488  1.0365 -1.3033
   9223SM  H15B12332   2.999   1.857   2.288 -1.7640 -0.4736 -0.5483
   9223SM  H15C12333   3.091   1.717   2.268 -0.8927 -0.0794  0.3088
   9223SM   C1412334   3.229   1.810   2.050 -0.4140  0.1124 -0.1100
   9223SM  H14A12335   3.292   1.864   1.981 -1.9767  0.0073 -1.7196
   9223SM  H14B12336   3.158   1.756   1.989  0.5365 -1.3012 -0.0034
   9223SM  H14C12337   3.284   1.731   2.099 -1.5168 -0.7233 -0.1640
   9223SM   C1312338   3.086   2.002   2.085  0.0187 -0.3151  0.0096
   9223SM  H13A12339   3.137   2.057   2.007 -0.5238  0.3306  0.1047
   9223SM  H13B12340   3.057   2.071   2.162 -0.0817  1.1459 -1.2913
   9223SM  H13C12341   2.995   1.972   2.035  0.2658 -0.3327 -0.4328
   9223SM   C1212342   3.253   1.947   2.259 -0.2374 -0.1287  0.5915
   9223SM  H12A12343   3.324   2.009   2.206 -2.3903  0.4129 -1.8592
   9223SM  H12B12344   3.310   1.866   2.303  1.0472  0.3457 -0.1443
   9223SM   C1112345   3.193   2.031   2.368 -0.2374 -0.4696 -0.5580
   9223SM  H11A12346   3.258   2.028   2.458 -0.4094  0.1724 -0.4030
   9223SM  H11B12347   3.098   1.989   2.407 -0.3981 -0.5509 -1.0301
   9223SM     P12348   3.294   2.265   2.325  0.0112 -0.0035 -0.1304
   9223SM   O1312349   3.392   2.215   2.224 -0.0241  0.3284 -0.5277
   9223SM   O1412350   3.238   2.402   2.311  0.0532  0.6143  0.1058
   9223SM   O1112351   3.370   2.251   2.468  0.2599  0.5536 -0.5993
   9223SM   O1212352   3.172   2.162   2.318  0.0656 -0.3953 -0.0387
   9223SM   C1S12353   3.359   2.348   2.575  0.0214  0.3547  0.7121
   9223SM   H1S12354   3.260   2.325   2.620  0.0980  0.0477  0.7248
   9223SM   H1T12355   3.354   2.453   2.537  0.9371  0.2341  0.2396
   9223SM    NF12356   3.461   2.432   2.792  0.8374  0.6057  0.3002
   9223SM   HNF12357   3.525   2.509   2.789  0.0357  1.2649 -1.2412
   9223SM   C2S12358   3.473   2.334   2.683 -0.5290 -0.4821  0.8464
   9223SM   H2S12359   3.469   2.233   2.728 -1.4415 -1.6604 -1.6755
   9223SM   C3S12360   3.614   2.347   2.611  1.1708 -0.2190 -0.4065
   9223SM   H3S12361   3.606   2.440   2.551 -0.5306  0.6157  0.9993
   9223SM    O312362   3.632   2.253   2.506 -0.4104 -0.0378  0.2612
   9223SM   HO312363   3.544   2.230   2.474 -0.3037 -0.3086  0.1627
   9223SM   C4S12364   3.726   2.353   2.710 -0.7649 -0.4370  0.1313
   9223SM   H4S12365   3.767   2.456   2.714  0.6085 -0.9156 -0.9498
   9223SM   C5S12366   3.799   2.251   2.766 -0.1918 -0.6779 -0.0704
   9223SM   H5S12367   3.787   2.153   2.717 -0.7524 -1.4822  1.5871
   9223SM   C6S12368   3.924   2.264   2.838  0.2832 -0.3665 -1.1392
   9223SM   H6S12369   4.008   2.254   2.766  0.7864 -1.2995 -0.4387
   9223SM   H6T12370   3.945   2.179   2.906 -0.8071 -1.3683 -2.0188
   9223SM   C7S12371   3.955   2.396   2.917  0.1740 -0.8032 -0.1221
   9223SM   H7S12372   3.945   2.485   2.851 -0.7761 -2.6485 -2.6533
   9223SM   H7T12373   4.060   2.393   2.954 -0.4982  3.0223  2.7938
   9223SM   C8S12374   3.865   2.418   3.038  0.0175 -0.5583  1.0386
   9223SM   H8S12375   3.829   2.321   3.079 -2.5082 -1.0098 -1.8584
   9223SM   H8T12376   3.769   2.460   2.999  0.6107  0.4917  0.6653
   9223SM   C9S12377   3.917   2.509   3.149  0.5402 -0.0243  0.7456
   9223SM   H9S12378   3.929   2.607   3.096 -1.9772  0.0355  0.1916
   9223SM   H9T12379   4.009   2.469   3.197  0.7019 -1.8880 -0.9768
   9223SM  C10S12380   3.815   2.532   3.260 -1.3213 -0.9147  0.0293
   9223SM  H10S12381   3.797   2.441   3.322 -2.8088  0.5514  1.9237
   9223SM  H10T12382   3.721   2.572   3.215 -0.6509  1.1143  0.3038
   9223SM  C11S12383   3.870   2.642   3.354 -0.1941  0.1824  0.0494
   9223SM  H11S12384   3.909   2.726   3.293 -0.1106  1.8981  2.3380
   9223SM  H11T12385   3.962   2.601   3.400  0.4215 -0.6102 -1.7928
   9223SM  C12S12386   3.769   2.685   3.461  0.0437 -0.3034  0.1235
   9223SM  H12S12387   3.750   2.608   3.538 -1.0110  0.0656  0.2522
   9223SM  H12T12388   3.676   2.725   3.414 -0.2019 -0.1116  0.7638
   9223SM  C13S12389   3.816   2.805   3.547  0.4526  0.0640 -0.6305
   9223SM  H13S12390   3.737   2.835   3.620  0.3628 -1.1129 -0.2265
   9223SM  H13T12391   3.820   2.901   3.492 -0.7268  0.6545  0.2497
   9223SM  C14S12392   3.953   2.776   3.611  0.3959  0.3806 -0.0210
   9223SM  H14S12393   4.032   2.786   3.533  0.5854 -0.8105  0.0066
   9223SM  H14T12394   3.953   2.673   3.650 -0.8710  0.7397  0.9896
   9223SM  C15S12395   3.991   2.857   3.738  0.3812 -0.7580 -0.6363
   9223SM  H15S12396   4.048   2.794   3.809  1.5374  3.1695  2.2755
   9223SM  H15T12397   3.895   2.879   3.790  1.3353 -0.2432  0.9679
   9223SM  C16S12398   4.070   2.994   3.705 -0.0142  0.4753 -0.1699
   9223SM  H16S12399   4.088   3.056   3.795  0.7563  1.7153 -1.1413
   9223SM  H16T12400   4.006   3.047   3.631 -0.1615 -1.4548 -1.5270
   9223SM  C17S12401   4.201   2.980   3.641 -0.1773  1.1024  0.4889
   9223SM  H17S12402   4.187   2.934   3.540  0.1688  2.4466 -0.1904
   9223SM  H17T12403   4.254   2.901   3.699 -0.6279 -1.1319 -1.9500
   9223SM  C18S12404   4.276   3.107   3.612  0.2708 -0.0679 -0.2918
   9223SM  H18S12405   4.376   3.085   3.569  1.3101 -1.8425  2.7787
   9223SM  H18T12406   4.289   3.162   3.707 -0.0163  0.9947 -0.8441
   9223SM  H18U12407   4.222   3.175   3.542  1.0161  1.2629  0.4000
   9223SM   C1F12408   3.361   2.436   2.887  0.0974  0.2140  0.3586
   9223SM    OF12409   3.274   2.353   2.889  0.1078  0.5507  0.8805
   9223SM   C2F12410   3.373   2.548   2.986 -0.5016  0.2451 -0.9350
   9223SM   H2F12411   3.273   2.597   2.978 -1.5560 -1.2089  1.7816
   9223SM   H2G12412   3.460   2.608   2.954  0.3246  0.7046  1.9575
   9223SM   C3F12413   3.404   2.487   3.121 -0.5843 -0.5550 -0.2888
   9223SM   H3F12414   3.495   2.424   3.120 -2.3617 -3.3516  0.3794
   9223SM   H3G12415   3.326   2.421   3.166 -0.7613  1.2660  2.2971
   9223SM   C4F12416   3.426   2.609   3.224  0.0012  0.3713  0.8762
   9223SM   H4F12417   3.330   2.661   3.205  0.2105  0.7311  0.7935
   9223SM   H4G12418   3.507   2.672   3.181  0.7795 -2.3342 -1.9666
   9223SM   C5F12419   3.439   2.567   3.370 -0.0379 -0.5644 -0.0724
   9223SM   H5F12420   3.547   2.553   3.390  0.0758  0.6767  0.2494
   9223SM   H5G12421   3.372   2.479   3.379 -0.8453 -0.0463 -0.7707
   9223SM   C6F12422   3.366   2.668   3.468 -0.2463  0.0947  0.3828
   9223SM   H6F12423   3.266   2.675   3.418  1.0492  0.0287 -2.4141
   9223SM   H6G12424   3.404   2.772   3.455  0.1928 -0.3783 -3.3240
   9223SM   C7F12425   3.356   2.628   3.618 -0.1716 -0.1182  0.5218
   9223SM   H7F12426   3.430   2.550   3.646 -1.0314 -2.1164 -2.3499
   9223SM   H7G12427   3.256   2.580   3.628 -0.0534 -1.1159 -2.2116
   9223SM   C8F12428   3.345   2.757   3.703  0.3809  0.3833 -0.2136
   9223SM   H8F12429   3.281   2.822   3.640 -0.1128 -1.2356 -1.4565
   9223SM   H8G12430   3.451   2.789   3.701  1.2774 -2.1394  1.5650
   9223SM   C9F12431   3.291   2.736   3.854 -0.7292  0.0343  0.3803
   9223SM   H9F12432   3.348   2.663   3.914  1.6557  1.2057 -0.3561
   9223SM   H9G12433   3.180   2.727   3.856 -0.6146 -2.2963 -0.8571
   9223SM  C10F12434   3.318   2.871   3.931  0.2406 -0.1876  0.7744
   9223SM  H10F12435   3.258   2.948   3.878 -0.2042 -1.4429 -0.6181
   9223SM  H10G12436   3.427   2.895   3.929  0.0865  0.9343  2.6879
   9223SM  C11F12437   3.279   2.849   4.074 -0.1715  0.0827 -0.4410
   9223SM  H11F12438   3.349   2.781   4.126 -3.5183 -2.4004  1.2303
   9223SM  H11G12439   3.178   2.804   4.085 -0.5012  0.6846 -0.9072
   9223SM  C12F12440   3.280   2.984   4.153  0.5983  0.3421  0.2716
   9223SM  H12F12441   3.209   3.049   4.098  0.8491  0.5316  0.1686
   9223SM  H12G12442   3.381   3.029   4.139  1.0482 -0.5924  0.4598
   9223SM  C13F12443   3.246   2.964   4.300  0.1565  0.4222 -0.2007
   9223SM  H13F12444   3.292   2.871   4.340  2.9316  0.8889 -2.0747
   9223SM  H13G12445   3.137   2.944   4.309  0.2917  0.3816  2.2733
   9223SM  C14F12446   3.274   3.087   4.387  0.2602 -0.2239  0.6084
   9223SM  H14F12447   3.381   3.086   4.417  0.4198 -1.9887  0.0649
   9223SM  H14G12448   3.215   3.075   4.480  2.1197  1.0023  2.0081
   9223SM  C15F12449   3.235   3.216   4.325  0.3313 -0.3329  0.2185
   9223SM  H15F12450   3.131   3.213   4.286  0.1046  3.6500  0.1666
   9223SM  H15G12451   3.292   3.244   4.234  0.0864  1.2132  0.5127
   9223SM  C16F12452   3.233   3.338   4.423 -0.4789  0.1464  0.1917
   9223SM  H16F12453   3.340   3.338   4.454  0.3940 -1.2281 -2.4579
   9223SM  H16G12454   3.171   3.314   4.512 -1.7656 -0.4879 -0.8361
   9223SM  C17F12455   3.199   3.470   4.350 -0.4989  0.3620  1.0240
   9223SM  H17F12456   3.109   3.452   4.288  0.5086 -1.3506 -0.0186
   9223SM  H17G12457   3.281   3.497   4.280 -2.9543  2.1137 -1.3899
   9223SM  C18F12458   3.183   3.584   4.447  0.6385 -0.2394 -0.2756
   9223SM  H18F12459   3.115   3.548   4.527 -0.2750  0.9866 -0.4634
   9223SM  H18G12460   3.152   3.680   4.400  3.8408  0.7875 -0.5105
   9223SM  C19F12461   3.314   3.609   4.532  0.5445 -0.6157  0.4706
   9223SM  H19F12462   3.390   3.651   4.462 -1.9960 -0.8305 -2.6601
   9223SM  H19G12463   3.355   3.518   4.581 -1.4233 -1.3734  0.7952
   9223SM  C20F12464   3.294   3.717   4.637  0.7562  0.4563  0.5385
   9223SM  H20F12465   3.278   3.816   4.590 -1.5004 -0.3489 -0.5170
   9223SM  H20G12466   3.386   3.722   4.699 -0.0142 -0.7369  1.8500
   9223SM  C21F12467   3.171   3.705   4.736 -0.1418  0.7884  0.1065
   9223SM  H21F12468   3.082   3.704   4.670 -0.3851  1.0026  0.4274
   9223SM  H21G12469   3.164   3.800   4.794  3.8223  1.0505  0.4086
   9223SM  C22F12470   3.180   3.581   4.815 -0.6776  0.7856 -0.5360
   9223SM  H22F12471   3.270   3.583   4.880 -1.4248 -0.9223  0.6276
   9223SM  H22G12472   3.213   3.490   4.759  2.1443  1.8585 -0.7996
   9223SM  C23F12473   3.058   3.558   4.899  0.4252 -0.2345 -0.9409
   9223SM  H23F12474   3.043   3.452   4.931 -1.5459  0.1637 -0.4452
   9223SM  H23G12475   2.969   3.591   4.843 -0.3073  0.8984  0.8084
   9223SM  H23H12476   3.070   3.614   4.994  2.7851 -3.2533  0.7473
   9323SM     N12477   6.511   3.618   1.910  0.0384 -0.3615 -0.6634
   9323SM   C1512478   6.659   3.609   1.898 -0.0487  0.7002  0.2009
   9323SM  H15A12479   6.686   3.520   1.842  0.9525  0.9986  0.1996
   9323SM  H15B12480   6.703   3.601   1.996 -3.3191 -0.4609  1.7256
   9323SM  H15C12481   6.687   3.701   1.848 -0.0486  0.9191  0.6033
   9323SM   C1412482   6.448   3.626   1.772  0.2248 -0.6456  0.2112
   9323SM  H14A12483   6.451   3.526   1.732 -0.6240 -0.6361  0.1141
   9323SM  H14B12484   6.493   3.698   1.707 -0.7582 -0.0552  0.1606
   9323SM  H14C12485   6.347   3.663   1.779  1.3838  2.6794  0.9672
   9323SM   C1312486   6.446   3.489   1.968 -0.1845 -0.0872  0.6938
   9323SM  H13A12487   6.464   3.410   1.897  1.4454  1.4480 -0.7158
   9323SM  H13B12488   6.340   3.504   1.976 -0.6368 -1.1852 -2.1512
   9323SM  H13C12489   6.490   3.459   2.062 -1.9662 -1.0579  1.2590
   9323SM   C1212490   6.463   3.736   1.979  0.3252  0.7295 -0.2356
   9323SM  H12A12491   6.503   3.738   2.080 -0.8008 -2.9488  0.4288
   9323SM  H12B12492   6.357   3.726   1.997 -0.2540 -2.4086 -4.0035
   9323SM   C1112493   6.475   3.874   1.913 -0.1135 -0.3752  0.6138
   9323SM  H11A12494   6.427   3.949   1.980  1.1011  2.3483 -1.3905
   9323SM  H11B12495   6.405   3.888   1.827  0.9121  1.6366  0.0445
   9323SM     P12496   6.694   4.004   1.954 -0.1029  0.2963  0.0080
   9323SM   O1312497   6.840   4.002   1.912  0.5697 -0.2726 -0.0832
   9323SM   O1412498   6.626   4.133   1.980 -0.0879  0.1947  0.9494
   9323SM   O1112499   6.700   3.928   2.087 -0.3929 -0.6579  0.0317
   9323SM   O1212500   6.606   3.911   1.858  0.4213 -0.3979 -0.1093
   9323SM   C1S12501   6.700   3.996   2.216 -0.6620 -0.0506  0.1693
   9323SM   H1S12502   6.607   4.057   2.219 -1.2798 -1.0058  2.8557
   9323SM   H1T12503   6.791   4.058   2.233 -0.9061  1.0242 -2.0621
   9323SM    NF12504   6.681   3.988   2.451 -0.0290  0.2201  0.5666
   9323SM   HNF12505   6.768   4.013   2.493 -0.1500 -0.3640  1.1850
   9323SM   C2S12506   6.686   3.902   2.337  0.7138  0.9986  0.0295
   9323SM   H2S12507   6.584   3.859   2.330  0.3052  1.9610 -0.0303
   9323SM   C3S12508   6.799   3.788   2.339 -0.1099  0.4563  0.0811
   9323SM   H3S12509   6.895   3.843   2.341 -1.3650  2.7719  1.0412
   9323SM    O312510   6.800   3.707   2.222 -0.1508 -0.4574 -0.1003
   9323SM   HO312511   6.733   3.747   2.166 -1.7755  0.8443  2.5641
   9323SM   C4S12512   6.791   3.706   2.459  0.3890 -0.4104  0.0626
   9323SM   H4S12513   6.850   3.752   2.540  3.3816 -1.0158 -1.6376
   9323SM   C5S12514   6.733   3.589   2.482 -0.1927  0.0498 -0.3437
   9323SM   H5S12515   6.680   3.539   2.400 -1.8899  0.7551  0.2667
   9323SM   C6S12516   6.738   3.503   2.605 -0.1688  0.1553 -0.5566
   9323SM   H6S12517   6.791   3.408   2.579 -1.7233 -0.8687 -0.0824
   9323SM   H6T12518   6.633   3.478   2.628 -0.5273  0.9825 -1.2508
   9323SM   C7S12519   6.791   3.585   2.729 -0.1220  0.2342  0.6848
   9323SM   H7S12520   6.729   3.676   2.742  2.9609  2.6538 -0.1831
   9323SM   H7T12521   6.891   3.623   2.698 -0.8167  0.3526 -1.5571
   9323SM   C8S12522   6.814   3.505   2.850  0.6496 -0.3616 -0.3938
   9323SM   H8S12523   6.895   3.429   2.845  0.2652 -0.8680  0.6606
   9323SM   H8T12524   6.723   3.442   2.865 -1.1357  1.4072 -2.9070
   9323SM   C9S12525   6.835   3.592   2.977  0.3457 -0.2328 -0.0646
   9323SM   H9S12526   6.747   3.658   2.992  0.5506 -0.2218  1.2782
   9323SM   H9T12527   6.933   3.644   2.970  0.8348 -1.1437 -0.0668
   9323SM  C10S12528   6.835   3.503   3.100 -0.2461  0.0915 -0.6302
   9323SM  H10S12529   6.939   3.468   3.120 -0.4250  0.4535  1.1703
   9323SM  H10T12530   6.769   3.416   3.082 -0.2108  0.1773 -1.1758
   9323SM  C11S12531   6.787   3.565   3.227  0.4735  0.4246  0.1545
   9323SM  H11S12532   6.685   3.607   3.214  1.0059  1.7479  0.0089
   9323SM  H11T12533   6.850   3.653   3.254  1.2414  0.2350 -0.9573
   9323SM  C12S12534   6.807   3.467   3.341 -0.4990  0.0389 -0.4706
   9323SM  H12S12535   6.910   3.425   3.339  0.5383  2.3793  0.0399
   9323SM  H12T12536   6.733   3.389   3.317 -0.0373 -1.1106  1.6031
   9323SM  C13S12537   6.787   3.519   3.488  0.3063  0.6047  0.6986
   9323SM  H13S12538   6.681   3.552   3.489 -0.7352 -2.3337 -0.8563
   9323SM  H13T12539   6.856   3.606   3.496 -0.5118  1.4241 -0.6239
   9323SM  C14S12540   6.823   3.415   3.597 -0.4891 -0.1103 -0.4799
   9323SM  H14S12541   6.934   3.406   3.599 -0.2931  2.0082  0.1015
   9323SM  H14T12542   6.771   3.319   3.577 -0.8103 -0.6502  2.4648
   9323SM  C15S12543   6.771   3.468   3.732 -0.1587 -1.1284  0.2042
   9323SM  H15S12544   6.796   3.576   3.736 -2.5178 -0.5488  1.2141
   9323SM  H15T12545   6.660   3.462   3.738 -0.0446 -2.6365  1.6134
   9323SM  C16S12546   6.847   3.409   3.848  0.0239 -0.0609 -0.8209
   9323SM  H16S12547   6.951   3.446   3.835  0.1862  0.2081  0.9822
   9323SM  H16T12548   6.837   3.298   3.842 -3.0060 -0.0612  1.8904
   9323SM  C17S12549   6.784   3.446   3.990  0.7348  0.5787 -0.5652
   9323SM  H17S12550   6.846   3.389   4.062  0.6341 -1.1335 -1.7675
   9323SM  H17T12551   6.683   3.400   3.995  0.5100  1.0801 -0.5058
   9323SM  C18S12552   6.783   3.597   4.013 -0.2690  0.2670  0.9353
   9323SM  H18S12553   6.746   3.626   4.114 -1.8146 -0.1696  0.5302
   9323SM  H18T12554   6.710   3.638   3.939  0.2039  0.3563  0.5129
   9323SM  H18U12555   6.884   3.638   3.992 -1.0661  1.1738 -1.4695
   9323SM   C1F12556   6.574   4.051   2.490 -0.2475  0.7135 -0.1743
   9323SM    OF12557   6.467   4.032   2.431 -0.7553  0.4907 -0.2064
   9323SM   C2F12558   6.580   4.158   2.590  0.0458  0.6889 -0.3626
   9323SM   H2F12559   6.473   4.180   2.612 -0.5066 -3.0165  1.6175
   9323SM   H2G12560   6.629   4.250   2.553 -1.2230 -0.0282 -4.3292
   9323SM   C3F12561   6.647   4.118   2.722 -0.3452  0.1734  0.1990
   9323SM   H3F12562   6.736   4.054   2.701 -1.6820 -1.7627  0.1303
   9323SM   H3G12563   6.569   4.052   2.766 -0.4397 -0.4994 -0.9215
   9323SM   C4F12564   6.671   4.228   2.822  0.3693 -0.1935 -0.2955
   9323SM   H4F12565   6.694   4.192   2.925 -1.0823 -1.8886 -0.5175
   9323SM   H4G12566   6.583   4.296   2.819  0.2886 -0.1270  1.7626
   9323SM   C5F12567   6.798   4.309   2.775 -0.0883  0.2584 -0.0513
   9323SM   H5F12568   6.846   4.260   2.687 -0.6521 -0.9420  0.2873
   9323SM   H5G12569   6.877   4.314   2.853 -1.6950  0.5574  1.6289
   9323SM   C6F12570   6.758   4.454   2.733  0.2098 -0.1037  0.0658
   9323SM   H6F12571   6.712   4.504   2.821 -0.9617 -0.3128 -0.3988
   9323SM   H6G12572   6.674   4.446   2.660 -0.4877  0.1604  0.8204
   9323SM   C7F12573   6.857   4.540   2.671 -0.0161 -0.2763 -0.7672
   9323SM   H7F12574   6.810   4.639   2.652  0.4003  0.1400  0.2986
   9323SM   H7G12575   6.885   4.501   2.571 -0.3716 -1.1108 -0.5441
   9323SM   C8F12576   6.979   4.581   2.754  0.3894 -0.1795  0.2086
   9323SM   H8F12577   7.057   4.502   2.751 -0.3497 -0.9284  0.5411
   9323SM   H8G12578   6.945   4.592   2.859  0.4291  0.1179  0.1926
   9323SM   C9F12579   7.039   4.715   2.702 -0.0711  0.3013 -0.2509
   9323SM   H9F12580   6.963   4.796   2.703  1.1881  1.5155 -0.7507
   9323SM   H9G12581   7.071   4.710   2.596  0.9931  0.1144  0.0675
   9323SM  C10F12582   7.176   4.756   2.775 -0.4794 -0.1699  0.0380
   9323SM  H10F12583   7.235   4.663   2.757 -1.3847 -1.0702  1.4947
   9323SM  H10G12584   7.146   4.745   2.882 -0.3193 -1.9569 -0.0592
   9323SM  C11F12585   7.259   4.882   2.726 -0.6198 -0.0756  0.3346
   9323SM  H11F12586   7.270   4.877   2.615  0.3455 -0.7273  0.4482
   9323SM  H11G12587   7.363   4.891   2.766 -0.4673 -0.8699  0.1323
   9323SM  C12F12588   7.182   5.010   2.769  0.0384  0.2693  0.0216
   9323SM  H12F12589   7.090   4.997   2.709 -0.6729 -2.8883  1.6065
   9323SM  H12G12590   7.240   5.102   2.747  0.9964  0.3384  2.4799
   9323SM  C13F12591   7.151   5.022   2.918 -0.4026  0.0650  0.5123
   9323SM  H13F12592   7.106   4.926   2.950 -0.2705 -0.3197 -0.4462
   9323SM  H13G12593   7.066   5.093   2.928 -1.0745 -0.4614 -1.1435
   9323SM  C14F12594   7.272   5.059   3.018  0.2190 -0.1915  0.7536
   9323SM  H14F12595   7.320   5.148   2.973 -1.2801  0.6611  0.7833
   9323SM  H14G12596   7.340   4.971   3.016 -0.0626 -0.4030  0.4300
   9323SM  C15F12597   7.215   5.092   3.161 -0.2658 -0.6539 -0.4520
   9323SM  H15F12598   7.122   5.150   3.147  0.4802  0.6556 -0.1653
   9323SM  H15G12599   7.283   5.156   3.221 -1.3625  1.4207 -1.3381
   9323SM  C16F12600   7.193   4.966   3.252 -0.1898 -0.1310 -0.3399
   9323SM  H16F12601   7.168   4.871   3.200  2.0538 -1.6054  1.0775
   9323SM  H16G12602   7.113   4.986   3.326 -0.9694 -0.1473 -1.1528
   9323SM  C17F12603   7.321   4.921   3.328 -0.2516 -0.0682  0.9805
   9323SM  H17F12604   7.372   5.010   3.369 -0.0788  0.1671  0.2608
   9323SM  H17G12605   7.402   4.879   3.265  0.0978  2.5209 -0.4217
   9323SM  C18F12606   7.290   4.824   3.443  0.3847 -0.2404  0.3417
   9323SM  H18F12607   7.229   4.739   3.404  0.3456  0.2284 -0.6403
   9323SM  H18G12608   7.231   4.875   3.522 -1.5187 -2.0148  0.1637
   9323SM  C19F12609   7.415   4.757   3.504  0.0610  0.2994  0.3272
   9323SM  H19F12610   7.493   4.836   3.503  0.3061  0.0678 -0.6290
   9323SM  H19G12611   7.458   4.672   3.446  0.7604  1.4202 -0.8540
   9323SM  C20F12612   7.394   4.703   3.648 -0.7205  0.0888 -0.0916
   9323SM  H20F12613   7.342   4.605   3.643 -1.0761  0.2778 -0.1100
   9323SM  H20G12614   7.342   4.774   3.716 -1.2477 -0.8921  0.5568
   9323SM  C21F12615   7.534   4.674   3.707  0.2401 -0.7110 -0.4133
   9323SM  H21F12616   7.593   4.768   3.701 -1.1637  0.1610 -0.8616
   9323SM  H21G12617   7.586   4.598   3.646  2.0736  0.1015  0.0516
   9323SM  C22F12618   7.524   4.632   3.849  0.7625 -0.4382  0.0470
   9323SM  H22F12619   7.428   4.576   3.854 -0.7684  2.0551 -0.0456
   9323SM  H22G12620   7.518   4.722   3.914 -1.6503 -0.4260 -0.1065
   9323SM  C23F12621   7.631   4.540   3.901  0.0051 -0.2564 -0.3858
   9323SM  H23F12622   7.606   4.517   4.007  1.0777  1.9755  0.4378
   9323SM  H23G12623   7.730   4.590   3.894  0.8301 -1.8003 -0.1267
   9323SM  H23H12624   7.629   4.443   3.848  0.7279 -0.0610 -0.7906
   9423SM     N12625   5.974   6.350   1.447  0.2395  0.2132 -0.7663
   9423SM   C1512626   6.016   6.493   1.421 -0.2059 -0.2977 -0.1977
   9423SM  H15A12627   5.983   6.559   1.501  0.0421 -1.1134  0.5874
   9423SM  H15B12628   5.988   6.519   1.320  0.0330 -1.5967 -0.6098
   9423SM  H15C12629   6.123   6.501   1.414 -0.0924  1.1691  2.0282
   9423SM   C1412630   5.829   6.320   1.422  0.2170  0.7771  0.6391
   9423SM  H14A12631   5.807   6.218   1.449 -0.3979  0.9836  0.9220
   9423SM  H14B12632   5.804   6.337   1.319 -1.9663  0.2315  1.0478
   9423SM  H14C12633   5.770   6.391   1.478  0.2484  2.0185 -0.8175
   9423SM   C1312634   6.052   6.277   1.354 -0.3784  0.0163 -0.2936
   9423SM  H13A12635   6.157   6.273   1.382  0.2825 -0.2064 -2.5952
   9423SM  H13B12636   6.055   6.323   1.257 -0.5532 -0.0505 -0.3305
   9423SM  H13C12637   6.032   6.171   1.346 -0.5145 -0.2190  2.2001
   9423SM   C1212638   6.010   6.315   1.597 -0.1903  0.3936  0.6811
   9423SM  H12A12639   6.117   6.320   1.610  0.2246 -0.2664 -2.0301
   9423SM  H12B12640   5.982   6.210   1.599 -0.5409  0.4865  0.7485
   9423SM   C1112641   5.942   6.397   1.710  0.0568  0.5395  0.2399
   9423SM  H11A12642   5.959   6.336   1.801 -0.4918  0.0047 -0.0112
   9423SM  H11B12643   5.835   6.403   1.680  0.8921  0.9784 -3.0937
   9423SM     P12644   6.141   6.530   1.780 -0.2711  0.3963 -0.0771
   9423SM   O1312645   6.154   6.466   1.913  0.8679  0.0503 -0.4677
   9423SM   O1412646   6.231   6.473   1.680  0.2177 -0.0136  0.2483
   9423SM   O1112647   6.182   6.681   1.790  0.2018 -0.1091  0.2179
   9423SM   O1212648   5.996   6.527   1.720 -0.7974  0.7369  0.3315
   9423SM   C1S12649   6.088   6.767   1.852 -0.0052 -0.5324  0.5343
   9423SM   H1S12650   5.986   6.723   1.855  0.6711 -2.2230  0.0476
   9423SM   H1T12651   6.074   6.855   1.785 -1.6912 -1.6584 -0.6845
   9423SM    NF12652   6.037   6.871   2.079 -0.2786 -0.3380  0.0259
   9423SM   HNF12653   6.053   6.964   2.110 -1.2214 -0.8865  2.3075
   9423SM   C2S12654   6.134   6.808   1.995  0.3059  0.1704 -0.3889
   9423SM   H2S12655   6.155   6.711   2.047  0.5582 -0.0338 -0.8697
   9423SM   C3S12656   6.264   6.893   2.000  1.2470  0.0040 -0.7734
   9423SM   H3S12657   6.240   6.979   1.933  0.7953  0.3078 -0.2323
   9423SM    O312658   6.368   6.832   1.928 -0.0888 -0.0564 -0.1230
   9423SM   HO312659   6.313   6.779   1.870 -0.3437  0.2141 -0.1360
   9423SM   C4S12660   6.307   6.933   2.136 -0.5704 -0.0594  0.0349
   9423SM   H4S12661   6.300   7.040   2.160  0.6244 -0.1573  0.8864
   9423SM   C5S12662   6.348   6.840   2.228 -0.0379  0.3973 -0.2031
   9423SM   H5S12663   6.350   6.733   2.202  0.1441  0.1104  0.9647
   9423SM   C6S12664   6.410   6.881   2.358  0.5263 -0.4267 -0.3550
   9423SM   H6S12665   6.512   6.837   2.367 -0.1290 -1.9597 -0.1480
   9423SM   H6T12666   6.352   6.833   2.439  3.0939 -0.8716  1.3394
   9423SM   C7S12667   6.428   7.029   2.398  0.0844 -0.2247  0.8443
   9423SM   H7S12668   6.329   7.079   2.387 -1.0132 -2.7430 -2.5356
   9423SM   H7T12669   6.484   7.086   2.321 -0.9002  0.4954  0.6441
   9423SM   C8S12670   6.481   7.061   2.539  0.0103  0.0493  0.2288
   9423SM   H8S12671   6.475   7.170   2.555  1.2421  0.6868 -2.8636
   9423SM   H8T12672   6.581   7.014   2.545 -0.4415 -0.9223  0.4591
   9423SM   C9S12673   6.392   7.006   2.663 -0.3628  0.0641  0.3787
   9423SM   H9S12674   6.363   6.899   2.653 -2.8885  0.7270 -0.0963
   9423SM   H9T12675   6.302   7.069   2.679  0.5962  0.6467  4.5943
   9423SM  C10S12676   6.481   7.022   2.787 -0.4009  0.3112 -0.3324
   9423SM  H10S12677   6.537   7.117   2.792  3.6663 -1.8582 -0.4007
   9423SM  H10T12678   6.555   6.939   2.794 -0.4254  0.3539  0.4918
   9423SM  C11S12679   6.407   7.015   2.926 -0.5094  0.1254 -0.2862
   9423SM  H11S12680   6.345   6.923   2.925  0.5316 -0.5910 -0.4991
   9423SM  H11T12681   6.343   7.106   2.929 -1.2361 -0.3943  0.4732
   9423SM  C12S12682   6.503   7.011   3.047  0.7045  0.4336  0.6715
   9423SM  H12S12683   6.534   7.117   3.062  0.8942  0.4924 -0.0723
   9423SM  H12T12684   6.596   6.966   3.006  0.4617  1.4649 -1.1202
   9423SM  C13S12685   6.460   6.941   3.172 -0.6720 -0.1680 -0.8875
   9423SM  H13S12686   6.553   6.930   3.233 -0.8580 -1.3194 -0.7885
   9423SM  H13T12687   6.425   6.839   3.143 -1.2082  0.2254 -1.6157
   9423SM  C14S12688   6.354   7.011   3.255 -0.0846 -0.3365  0.3339
   9423SM  H14S12689   6.310   6.948   3.335 -0.1308 -0.0271  0.5558
   9423SM  H14T12690   6.282   7.045   3.178  0.6804 -1.8524 -1.1339
   9423SM  C15S12691   6.411   7.141   3.318 -0.0366  0.1577  0.0553
   9423SM  H15S12692   6.462   7.199   3.239  1.5539  0.9988  1.6124
   9423SM  H15T12693   6.496   7.112   3.385 -1.5821 -2.9816  0.8560
   9423SM  C16S12694   6.302   7.216   3.402  0.6260 -0.0446  0.1939
   9423SM  H16S12695   6.348   7.294   3.467  0.3978 -0.3695  0.7431
   9423SM  H16T12696   6.262   7.146   3.478 -1.6502  0.0279 -0.8676
   9423SM  C17S12697   6.180   7.276   3.331 -0.2391  0.7757  0.5902
   9423SM  H17S12698   6.142   7.196   3.265  0.0271 -0.8257  2.2801
   9423SM  H17T12699   6.218   7.348   3.255 -1.0503 -0.2730 -0.8399
   9423SM  C18S12700   6.077   7.342   3.419 -0.0746 -0.2348  0.3355
   9423SM  H18S12701   6.057   7.287   3.514 -1.9599  0.0792  0.1677
   9423SM  H18T12702   5.978   7.360   3.373 -0.5836 -1.2992  0.9750
   9423SM  H18U12703   6.121   7.444   3.430  0.2448 -0.1480 -1.5019
   9423SM   C1F12704   5.930   6.804   2.119  0.4311 -0.1755  0.8031
   9423SM    OF12705   5.935   6.680   2.117  0.3168  0.1643  0.2786
   9423SM   C2F12706   5.818   6.885   2.176 -0.3993 -1.1205 -0.5291
   9423SM   H2F12707   5.807   6.981   2.122 -0.6766  0.5995  2.3734
   9423SM   H2G12708   5.851   6.898   2.282  1.6905 -4.3303 -0.6495
   9423SM   C3F12709   5.677   6.814   2.181 -0.0353 -0.3088  0.0747
   9423SM   H3F12710   5.695   6.704   2.183  1.0787 -0.1273  1.4135
   9423SM   H3G12711   5.633   6.832   2.081 -0.5081 -2.0408 -0.0678
   9423SM   C4F12712   5.582   6.860   2.285 -0.0080 -0.0871 -0.0902
   9423SM   H4F12713   5.610   6.807   2.379 -0.0867 -2.0633 -1.1379
   9423SM   H4G12714   5.480   6.825   2.258 -0.0978  0.2650 -0.2246
   9423SM   C5F12715   5.589   7.010   2.305  0.0764 -0.3677 -0.0087
   9423SM   H5F12716   5.544   7.052   2.212  2.0961 -0.4470 -1.0648
   9423SM   H5G12717   5.691   7.052   2.322 -0.8521  1.6315  1.0307
   9423SM   C6F12718   5.492   7.059   2.421 -0.0537 -0.0469  0.4113
   9423SM   H6F12719   5.533   7.008   2.511 -0.8328  0.3863  1.0175
   9423SM   H6G12720   5.393   7.012   2.400 -0.8782  1.9746 -0.4377
   9423SM   C7F12721   5.482   7.216   2.425  0.0218 -0.5303  0.1970
   9423SM   H7F12722   5.434   7.254   2.331  4.0616  1.7508 -1.2011
   9423SM   H7G12723   5.570   7.278   2.450 -1.0146  1.0158  0.1914
   9423SM   C8F12724   5.379   7.238   2.539  0.0599 -0.6731 -0.2531
   9423SM   H8F12725   5.297   7.163   2.533 -0.5144  0.0543 -2.5563
   9423SM   H8G12726   5.330   7.336   2.520  0.3877 -0.3285  0.6682
   9423SM   C9F12727   5.438   7.249   2.679  0.3354 -0.3346 -0.1513
   9423SM   H9F12728   5.533   7.305   2.667  1.6794 -2.7748 -1.7543
   9423SM   H9G12729   5.468   7.149   2.719  1.6978  1.0566  2.6328
   9423SM  C10F12730   5.338   7.315   2.778  0.2908  0.1406 -0.5103
   9423SM  H10F12731   5.301   7.413   2.740  1.1707  0.4661 -0.5611
   9423SM  H10G12732   5.398   7.340   2.868 -2.5731 -0.5067  1.7073
   9423SM  C11F12733   5.227   7.208   2.806 -0.6043  0.3243 -1.1201
   9423SM  H11F12734   5.270   7.109   2.835  0.7286  1.7283  2.3260
   9423SM  H11G12735   5.161   7.202   2.717  0.2904  0.1349 -1.7887
   9423SM  C12F12736   5.138   7.246   2.935 -0.5642  0.2466  0.6184
   9423SM  H12F12737   5.033   7.219   2.913 -0.3984 -0.2577  0.4098
   9423SM  H12G12738   5.140   7.355   2.958  1.9272  0.1056  1.3939
   9423SM  C13F12739   5.197   7.181   3.059 -0.3706 -0.1528 -0.3877
   9423SM  H13F12740   5.304   7.207   3.067 -0.2422 -0.3196 -1.4555
   9423SM  H13G12741   5.180   7.073   3.040 -0.2348 -0.1067 -0.7789
   9423SM  C14F12742   5.124   7.230   3.189 -0.3908  1.0525  0.1347
   9423SM  H14F12743   5.017   7.203   3.182  0.4275 -2.9458  0.9849
   9423SM  H14G12744   5.126   7.341   3.200  0.0061  0.9790  0.8332
   9423SM  C15F12745   5.178   7.172   3.315 -0.5294 -0.3564  0.3061
   9423SM  H15F12746   5.167   7.061   3.323 -1.6495 -0.1803  1.4626
   9423SM  H15G12747   5.114   7.213   3.396 -0.4813 -1.2471  0.8192
   9423SM  C16F12748   5.325   7.197   3.342  0.4299 -0.9211 -0.1492
   9423SM  H16F12749   5.347   7.306   3.331 -0.2990 -0.6465  0.9020
   9423SM  H16G12750   5.400   7.146   3.279  0.7159  1.0584 -1.5212
   9423SM  C17F12751   5.370   7.175   3.491 -1.4138 -0.0521 -0.6961
   9423SM  H17F12752   5.336   7.072   3.516 -1.2641  0.3068  1.1924
   9423SM  H17G12753   5.306   7.241   3.554  0.0712 -0.7541  1.6908
   9423SM  C18F12754   5.523   7.195   3.519  0.3866 -0.1314 -0.0869
   9423SM  H18F12755   5.550   7.292   3.471  1.9147 -1.2837 -1.6841
   9423SM  H18G12756   5.576   7.114   3.464 -1.3594 -0.2017 -1.7801
   9423SM  C19F12757   5.567   7.204   3.661  0.7042 -0.2889  0.0663
   9423SM  H19F12758   5.539   7.107   3.709 -1.4603 -0.8107 -2.0725
   9423SM  H19G12759   5.508   7.275   3.722 -1.3532 -0.8506 -1.1620
   9423SM  C20F12760   5.719   7.224   3.663 -0.0339  0.4148 -0.4931
   9423SM  H20F12761   5.741   7.328   3.630 -2.8682  1.4185  0.4256
   9423SM  H20G12762   5.765   7.155   3.590  2.2488  0.5959  0.6913
   9423SM  C21F12763   5.783   7.200   3.801  0.2213 -0.0831  0.1571
   9423SM  H21F12764   5.743   7.108   3.850 -0.4504 -0.0073 -0.2302
   9423SM  H21G12765   5.743   7.283   3.862 -2.6315  0.3252 -2.0068
   9423SM  C22F12766   5.938   7.200   3.799 -0.2735  0.1794 -0.3745
   9423SM  H22F12767   5.983   7.245   3.890  1.6393 -1.8225 -0.2474
   9423SM  H22G12768   5.972   7.264   3.715  0.0406  0.0680 -0.3334
   9423SM  C23F12769   6.020   7.074   3.786 -0.2066  0.0808 -0.1203
   9423SM  H23F12770   6.126   7.101   3.799 -0.8345  2.2886  0.7761
   9423SM  H23G12771   5.997   7.026   3.688 -0.2341  1.3881 -0.7741
   9423SM  H23H12772   5.996   7.003   3.868 -0.6693  2.1542  1.6192
   9523SM     N12773   1.210   2.574   2.462  0.0641  0.7573  0.6097
   9523SM   C1512774   1.100   2.644   2.386 -0.0272 -0.2716  0.6078
   9523SM  H15A12775   1.007   2.608   2.427  0.6916 -2.7588  0.2169
   9523SM  H15B12776   1.101   2.618   2.281  1.6191  0.4477  0.4198
   9523SM  H15C12777   1.094   2.751   2.395 -0.8909 -0.2980  0.4923
   9523SM   C1412778   1.203   2.416   2.439 -0.9285 -0.4074  0.4416
   9523SM  H14A12779   1.234   2.394   2.338 -0.0092  1.3364  0.3064
   9523SM  H14B12780   1.106   2.372   2.454 -0.9159 -1.1542 -1.4028
   9523SM  H14C12781   1.285   2.370   2.493  1.3769  1.6248 -1.0756
   9523SM   C1312782   1.342   2.619   2.395  0.7786 -0.2610 -0.2630
   9523SM  H13A12783   1.338   2.727   2.406  0.9042 -0.2612 -0.2239
   9523SM  H13B12784   1.337   2.601   2.289  0.8546  1.8863 -0.6852
   9523SM  H13C12785   1.424   2.562   2.437  0.7058  0.7778  1.3936
   9523SM   C1212786   1.204   2.612   2.611  0.2091 -0.9065  0.1280
   9523SM  H12A12787   1.109   2.581   2.652 -0.6862  2.7199  1.1333
   9523SM  H12B12788   1.210   2.719   2.628 -2.2106 -0.4255 -1.5280
   9523SM   C1112789   1.310   2.543   2.703 -0.3437  0.5420  0.0958
   9523SM  H11A12790   1.306   2.433   2.683 -2.1866  0.7354 -0.8053
   9523SM  H11B12791   1.278   2.551   2.809 -1.9542 -2.1903 -0.0927
   9523SM     P12792   1.493   2.722   2.746 -0.5476 -0.3126  0.2915
   9523SM   O1312793   1.635   2.747   2.700  0.4712 -0.2075  0.4262
   9523SM   O1412794   1.400   2.828   2.728  0.1968  0.5426  0.1124
   9523SM   O1112795   1.492   2.694   2.902  0.6602  0.9001 -0.3952
   9523SM   O1212796   1.443   2.592   2.675  0.1130  0.1697 -0.0191
   9523SM   C1S12797   1.538   2.566   2.960  0.3217  0.0323 -0.1433
   9523SM   H1S12798   1.649   2.564   2.958  0.3783  1.2165  0.4699
   9523SM   H1T12799   1.484   2.480   2.916 -1.3778  0.2195  1.4404
   9523SM    NF12800   1.573   2.446   3.169  0.2562  0.4408  0.7750
   9523SM   HNF12801   1.515   2.365   3.183  1.3251 -0.4880  0.0551
   9523SM   C2S12802   1.505   2.557   3.113  0.0264 -0.5262 -0.1402
   9523SM   H2S12803   1.546   2.647   3.164 -0.0170 -0.9850  0.7171
   9523SM   C3S12804   1.350   2.563   3.127  0.0475  0.5983  0.0886
   9523SM   H3S12805   1.322   2.477   3.063 -1.9228  0.2299  1.3678
   9523SM    O312806   1.284   2.681   3.073  0.2941  0.3466 -0.1062
   9523SM   HO312807   1.348   2.720   3.013  1.8836 -3.7833 -1.4435
   9523SM   C4S12808   1.314   2.550   3.269 -0.2769 -0.0479 -0.4566
   9523SM   H4S12809   1.331   2.643   3.325 -6.6302  0.6818  1.0839
   9523SM   C5S12810   1.260   2.438   3.322  0.1649 -0.5456  0.4819
   9523SM   H5S12811   1.233   2.343   3.273  0.1268 -0.7953  0.9781
   9523SM   C6S12812   1.211   2.440   3.466  0.1707 -0.2524 -0.0585
   9523SM   H6S12813   1.128   2.367   3.480  0.2282 -0.3633 -0.3049
   9523SM   H6T12814   1.163   2.536   3.493  0.3026 -0.2660  0.2303
   9523SM   C7S12815   1.326   2.407   3.562 -0.0664 -0.0523  0.1482
   9523SM   H7S12816   1.416   2.470   3.547  1.8696 -1.5853  3.9999
   9523SM   H7T12817   1.347   2.298   3.553 -1.4069 -0.3187 -0.0929
   9523SM   C8S12818   1.295   2.440   3.711 -0.2374 -0.2524  0.2260
   9523SM   H8S12819   1.217   2.368   3.746  0.0586 -0.2283  0.9634
   9523SM   H8T12820   1.254   2.543   3.718  0.4067 -0.0527  1.3332
   9523SM   C9S12821   1.415   2.453   3.811 -0.2170 -0.4160  0.1222
   9523SM   H9S12822   1.480   2.534   3.772 -1.0565 -0.0258 -0.4876
   9523SM   H9T12823   1.461   2.352   3.809 -0.0211 -0.3562  1.4163
   9523SM  C10S12824   1.364   2.487   3.949 -0.4528 -0.3026  0.0453
   9523SM  H10S12825   1.291   2.570   3.949  0.8555  0.9170 -1.8530
   9523SM  H10T12826   1.451   2.532   4.000  0.6985 -2.4994  0.1651
   9523SM  C11S12827   1.316   2.372   4.040  0.4315  0.0298 -0.1488
   9523SM  H11S12828   1.366   2.280   4.003 -0.4191 -0.6042  0.2387
   9523SM  H11T12829   1.207   2.358   4.025 -0.1817  0.3899  3.2551
   9523SM  C12S12830   1.337   2.410   4.188 -0.8967 -0.1591  0.5701
   9523SM  H12S12831   1.258   2.485   4.211 -0.2393  0.2453  1.5815
   9523SM  H12T12832   1.431   2.466   4.204 -1.4129  0.5303  1.2841
   9523SM  C13S12833   1.333   2.290   4.293 -0.1855 -0.0785  0.4645
   9523SM  H13S12834   1.238   2.234   4.280 -0.1298  0.4141 -3.0781
   9523SM  H13T12835   1.342   2.348   4.388 -0.1858 -0.9191  0.9928
   9523SM  C14S12836   1.456   2.192   4.284  0.5205 -0.1685  0.1410
   9523SM  H14S12837   1.550   2.250   4.287  1.6958 -2.0273  1.8783
   9523SM  H14T12838   1.455   2.138   4.187 -1.1277  0.1107 -0.0227
   9523SM  C15S12839   1.450   2.095   4.402 -0.1530 -0.0847 -0.1426
   9523SM  H15S12840   1.499   1.998   4.378  0.4714  0.4644 -1.1313
   9523SM  H15T12841   1.343   2.070   4.421 -0.4996  1.9775  0.8173
   9523SM  C16S12842   1.512   2.148   4.536  0.1109 -0.1532  0.2133
   9523SM  H16S12843   1.468   2.248   4.557 -0.6801 -0.3135 -0.6168
   9523SM  H16T12844   1.619   2.170   4.516  0.2299 -0.7182  0.2192
   9523SM  C17S12845   1.493   2.061   4.650  0.7393  0.1515 -0.9169
   9523SM  H17S12846   1.385   2.038   4.654  0.7993 -0.0372 -0.0976
   9523SM  H17T12847   1.517   2.114   4.745  0.6805 -0.1370 -0.7387
   9523SM  C18S12848   1.572   1.928   4.646  0.3420 -0.1673  0.3790
   9523SM  H18S12849   1.551   1.863   4.558  1.3684 -0.3710  0.2739
   9523SM  H18T12850   1.556   1.864   4.736 -0.5382 -0.9470 -0.3139
   9523SM  H18U12851   1.679   1.958   4.647  0.6472 -1.1755 -0.3167
   9523SM   C1F12852   1.701   2.442   3.203  0.5937  0.0172  0.0968
   9523SM    OF12853   1.775   2.541   3.189  0.1131 -0.4326 -0.1253
   9523SM   C2F12854   1.759   2.314   3.261 -0.2588 -0.1974  0.1165
   9523SM   H2F12855   1.829   2.277   3.183 -0.7749 -0.5131 -0.2062
   9523SM   H2G12856   1.679   2.237   3.272 -1.0376  0.4649 -0.7614
   9523SM   C3F12857   1.836   2.331   3.387  0.0551 -0.9293 -0.1680
   9523SM   H3F12858   1.917   2.403   3.362 -0.7755  0.1672  0.2021
   9523SM   H3G12859   1.871   2.231   3.420  0.3103 -0.8072 -0.0629
   9523SM   C4F12860   1.754   2.396   3.511 -0.1247 -0.0140  0.0053
   9523SM   H4F12861   1.702   2.316   3.569 -0.9424  1.4266  1.3431
   9523SM   H4G12862   1.670   2.445   3.458 -0.1287 -0.5474 -0.4874
   9523SM   C5F12863   1.840   2.471   3.611 -0.4659 -0.4655 -0.7243
   9523SM   H5F12864   1.895   2.558   3.569  0.5199 -0.0247  1.3400
   9523SM   H5G12865   1.917   2.404   3.655 -0.2072  0.3129  0.0464
   9523SM   C6F12866   1.760   2.519   3.730  0.8820  1.2930  0.3431
   9523SM   H6F12867   1.717   2.438   3.793  1.4205  0.5127 -0.2716
   9523SM   H6G12868   1.673   2.572   3.687  1.0589  0.6211 -0.8724
   9523SM   C7F12869   1.830   2.619   3.826 -0.3482  0.8211  0.3876
   9523SM   H7F12870   1.864   2.702   3.760  1.1744 -0.9829 -1.2297
   9523SM   H7G12871   1.919   2.563   3.861 -0.6617 -0.8429 -1.3401
   9523SM   C8F12872   1.731   2.660   3.940 -0.3281  0.3082  0.5494
   9523SM   H8F12873   1.685   2.570   3.986  0.0146 -0.6268 -0.8706
   9523SM   H8G12874   1.655   2.731   3.899  0.0772  0.9367  0.8664
   9523SM   C9F12875   1.798   2.731   4.050  0.3217 -0.2872  0.9369
   9523SM   H9F12876   1.719   2.787   4.104 -2.3690 -1.6427 -1.3825
   9523SM   H9G12877   1.870   2.808   4.015 -0.6134  1.4498  2.6349
   9523SM  C10F12878   1.869   2.650   4.157  0.5508 -0.0701  1.1839
   9523SM  H10F12879   1.920   2.730   4.215  1.6787  1.0214 -1.1499
   9523SM  H10G12880   1.943   2.587   4.103 -0.3624 -0.5822  0.5207
   9523SM  C11F12881   1.780   2.554   4.236  0.1148 -0.4019  0.5520
   9523SM  H11F12882   1.822   2.456   4.265 -1.6265 -0.4626  3.1454
   9523SM  H11G12883   1.684   2.540   4.182 -1.2238 -1.0864  2.9776
   9523SM  C12F12884   1.733   2.635   4.357  0.0355  0.0672  0.8728
   9523SM  H12F12885   1.693   2.728   4.310 -0.6861 -1.2140 -1.2399
   9523SM  H12G12886   1.823   2.645   4.420  0.5488 -1.1819  0.3690
   9523SM  C13F12887   1.622   2.566   4.440  0.1907 -0.5093  0.2412
   9523SM  H13F12888   1.630   2.456   4.450  1.6345 -0.4352  0.0638
   9523SM  H13G12889   1.519   2.601   4.417  0.4955  0.0540 -0.3095
   9523SM  C14F12890   1.632   2.611   4.592  0.0972 -0.8715 -0.6608
   9523SM  H14F12891   1.616   2.719   4.611 -0.0576 -1.0937  0.5506
   9523SM  H14G12892   1.737   2.581   4.616 -0.2064 -1.2390  0.2644
   9523SM  C15F12893   1.547   2.539   4.696 -0.0809 -1.0408 -0.1681
   9523SM  H15F12894   1.570   2.573   4.799  0.8421  0.8342 -0.9468
   9523SM  H15G12895   1.574   2.432   4.678  0.2927 -0.7314 -1.6338
   9523SM  C16F12896   1.397   2.544   4.667  0.6421  0.0925  0.3990
   9523SM  H16F12897   1.386   2.514   4.561 -1.8679 -1.7622  1.0825
   9523SM  H16G12898   1.363   2.648   4.686 -1.8072 -0.7599  1.0265
   9523SM  C17F12899   1.321   2.448   4.771 -0.0803  0.0648 -0.0564
   9523SM  H17F12900   1.346   2.490   4.871  0.9560  0.0044 -0.2812
   9523SM  H17G12901   1.346   2.342   4.752 -0.4810 -0.0257 -0.0983
   9523SM  C18F12902   1.167   2.467   4.767  0.0830  0.5528 -0.1272
   9523SM  H18F12903   1.128   2.570   4.778 -1.2339  0.0390  0.3083
   9523SM  H18G12904   1.114   2.411   4.848  2.0557 -0.3678  0.6032
   9523SM  C19F12905   1.119   2.399   4.638 -0.2679 -0.0358 -0.1672
   9523SM  H19F12906   1.150   2.293   4.625 -1.0627 -0.3984  0.7322
   9523SM  H19G12907   1.169   2.455   4.556 -0.4367  0.5507  0.1197
   9523SM  C20F12908   0.963   2.397   4.629  0.0380  0.7824  0.0365
   9523SM  H20F12909   0.927   2.375   4.526 -0.0650  0.9264  0.0420
   9523SM  H20G12910   0.938   2.504   4.643 -0.8166  0.6543 -0.4591
   9523SM  C21F12911   0.885   2.299   4.721 -1.2867  0.4195  0.0932
   9523SM  H21F12912   0.912   2.326   4.826  0.9863 -2.2935  0.3346
   9523SM  H21G12913   0.923   2.200   4.689 -1.0049  0.4416  0.3505
   9523SM  C22F12914   0.737   2.315   4.706 -0.4077  0.6554  0.1409
   9523SM  H22F12915   0.716   2.346   4.601 -2.6298 -1.5407 -0.1580
   9523SM  H22G12916   0.704   2.397   4.772 -0.4010  1.8876 -1.3258
   9523SM  C23F12917   0.660   2.198   4.745  0.9059  0.0634 -0.8671
   9523SM  H23F12918   0.615   2.210   4.846  0.3005 -0.0831 -1.1144
   9523SM  H23G12919   0.723   2.107   4.752  2.3545  1.1264  0.7608
   9523SM  H23H12920   0.575   2.184   4.675 -1.0630 -2.1657  1.7133
   9623SM     N12921   4.008   5.398   2.395  0.1377  0.2762 -0.1211
   9623SM   C1512922   3.862   5.373   2.411  0.0697  0.9100 -0.0717
   9623SM  H15A12923   3.806   5.347   2.322  1.2876 -1.2310 -0.2952
   9623SM  H15B12924   3.814   5.464   2.441 -1.4986 -0.6753  2.6991
   9623SM  H15C12925   3.851   5.305   2.494  2.0891  0.4214 -0.1325
   9623SM   C1412926   4.031   5.501   2.289 -0.6596 -0.7826  0.0378
   9623SM  H14A12927   3.956   5.498   2.212  1.3931  0.6607 -2.1530
   9623SM  H14B12928   4.131   5.493   2.250 -0.4253 -0.8093  0.6249
   9623SM  H14C12929   4.034   5.598   2.337  1.4741 -0.2994 -0.9595
   9623SM   C1312930   4.057   5.453   2.534  0.1246 -0.2740 -0.7862
   9623SM  H13A12931   4.027   5.385   2.612  3.5907 -1.2563 -0.1108
   9623SM  H13B12932   4.013   5.548   2.561  1.1189  0.2367 -0.8963
   9623SM  H13C12933   4.165   5.457   2.535  0.2512 -2.1035  1.7231
   9623SM   C1212934   4.082   5.271   2.353  0.5696 -0.5398 -0.1042
   9623SM  H12A12935   4.183   5.301   2.331  0.6106 -0.6242 -0.0343
   9623SM  H12B12936   4.030   5.239   2.264 -1.4157  1.1852  0.3596
   9623SM   C1112937   4.086   5.150   2.462  0.5781  0.1621 -0.0319
   9623SM  H11A12938   4.133   5.193   2.553  1.2332  0.6824 -0.6096
   9623SM  H11B12939   4.158   5.081   2.413 -0.9756 -0.6668 -1.2473
   9623SM     P12940   3.891   4.997   2.384  0.4481  0.6696 -0.1430
   9623SM   O1312941   3.757   4.971   2.433  0.6253  0.2510 -0.1550
   9623SM   O1412942   3.911   5.043   2.243 -0.4177 -0.1285 -0.2325
   9623SM   O1112943   3.982   4.865   2.399 -0.6192 -0.2130 -0.0428
   9623SM   O1212944   3.955   5.093   2.486  0.7561 -0.3376 -0.6312
   9623SM   C1S12945   4.042   4.829   2.529  0.3612  0.4362  0.7101
   9623SM   H1S12946   3.961   4.768   2.575  0.2377 -1.5308 -1.8463
   9623SM   H1T12947   4.063   4.922   2.585  0.7613  2.4408 -2.4880
   9623SM    NF12948   4.200   4.688   2.663 -0.3901 -0.0645  0.0878
   9623SM   HNF12949   4.264   4.745   2.715  1.6008 -0.5631 -1.6590
   9623SM   C2S12950   4.167   4.738   2.526 -0.4004  0.3535  0.2079
   9623SM   H2S12951   4.144   4.647   2.467  0.5114  0.1751  0.1045
   9623SM   C3S12952   4.287   4.806   2.455  0.2926 -0.3501 -0.0490
   9623SM   H3S12953   4.310   4.904   2.502  0.8038 -1.1172  1.3399
   9623SM    O312954   4.254   4.836   2.318  0.2567  0.4054  0.7588
   9623SM   HO312955   4.159   4.848   2.324  0.3798  1.8215  0.2120
   9623SM   C4S12956   4.402   4.710   2.461 -0.2147  0.1960 -1.2498
   9623SM   H4S12957   4.380   4.607   2.430  0.1786 -0.3189  0.0937
   9623SM   C5S12958   4.521   4.737   2.526 -0.5935  0.3502 -0.5464
   9623SM   H5S12959   4.528   4.840   2.566 -2.2290  0.6919 -1.0643
   9623SM   C6S12960   4.646   4.642   2.539 -0.6183  0.2670  0.3332
   9623SM   H6S12961   4.709   4.671   2.452 -1.9550  3.7926  0.3728
   9623SM   H6T12962   4.613   4.540   2.511 -0.8761  0.7193 -1.0784
   9623SM   C7S12963   4.726   4.647   2.669 -0.7033  0.5232  0.4363
   9623SM   H7S12964   4.783   4.742   2.673 -1.5634  1.0995 -0.2976
   9623SM   H7T12965   4.806   4.571   2.659  0.5304  1.8732 -0.3132
   9623SM   C8S12966   4.646   4.603   2.797  0.5975 -0.1649 -0.4304
   9623SM   H8S12967   4.630   4.493   2.802 -3.1886  0.3023  1.7182
   9623SM   H8T12968   4.548   4.655   2.793  0.8926  0.3281 -2.2490
   9623SM   C9S12969   4.717   4.652   2.930  0.5438  0.5092  0.1064
   9623SM   H9S12970   4.723   4.763   2.931 -0.0245  0.5424  0.0137
   9623SM   H9T12971   4.818   4.608   2.943 -0.1446 -1.5193 -0.8971
   9623SM  C10S12972   4.625   4.620   3.047 -0.7790  0.3544 -0.0796
   9623SM  H10S12973   4.591   4.515   3.040 -1.3813  0.6311 -1.7439
   9623SM  H10T12974   4.536   4.687   3.044 -0.9746  0.0679 -1.0134
   9623SM  C11S12975   4.696   4.621   3.183 -0.2980 -0.4156 -0.1255
   9623SM  H11S12976   4.757   4.713   3.195 -0.3329 -0.4993  0.7737
   9623SM  H11T12977   4.768   4.537   3.197 -0.6428 -0.6049  0.5444
   9623SM  C12S12978   4.592   4.620   3.303 -0.3046 -0.0418  0.6017
   9623SM  H12S12979   4.531   4.528   3.292  2.5092 -1.7330 -2.9017
   9623SM  H12T12980   4.531   4.713   3.301  0.0162  0.1787  0.8317
   9623SM  C13S12981   4.660   4.632   3.440  0.4814  0.1018  1.1484
   9623SM  H13S12982   4.722   4.724   3.446 -0.5974  0.8648  0.8727
   9623SM  H13T12983   4.729   4.545   3.448 -1.3791 -1.6157 -0.3390
   9623SM  C14S12984   4.560   4.631   3.551  0.0201  0.7317  0.0484
   9623SM  H14S12985   4.535   4.527   3.581  2.9702 -0.5158 -1.3075
   9623SM  H14T12986   4.466   4.680   3.517  1.2562  3.6552  0.5082
   9623SM  C15S12987   4.626   4.699   3.675 -0.1064  0.0611 -0.4770
   9623SM  H15S12988   4.613   4.809   3.667  0.5560  0.2715  1.1020
   9623SM  H15T12989   4.732   4.668   3.668 -0.6219 -1.9436 -0.1202
   9623SM  C16S12990   4.574   4.646   3.812  0.0624  0.0839  0.2815
   9623SM  H16S12991   4.595   4.538   3.826 -0.1171  0.0447  0.2612
   9623SM  H16T12992   4.463   4.642   3.813  0.0341  0.7991  0.6032
   9623SM  C17S12993   4.640   4.725   3.922  0.1741 -0.6297 -0.3373
   9623SM  H17S12994   4.635   4.830   3.888 -1.5722 -0.3383  0.6971
   9623SM  H17T12995   4.749   4.713   3.940 -0.2426 -0.4810  2.9143
   9623SM  C18S12996   4.573   4.715   4.062 -0.2951 -0.3804 -0.8280
   9623SM  H18S12997   4.627   4.779   4.135 -1.4840 -2.6915  2.3042
   9623SM  H18T12998   4.562   4.610   4.097  0.4012 -0.2451 -0.1813
   9623SM  H18U12999   4.469   4.752   4.055 -0.7442 -1.5858 -0.6896
   9623SM   C1F13000   4.123   4.597   2.732  0.0874 -0.3271  0.8825
   9623SM    OF13001   4.030   4.541   2.675  0.9785 -0.3118  0.2466
   9623SM   C2F13002   4.175   4.573   2.870  0.2269  0.0334 -0.2469
   9623SM   H2F13003   4.128   4.649   2.935 -2.0249  0.6695 -2.4527
   9623SM   H2G13004   4.284   4.587   2.859  0.3695 -1.7622 -1.5776
   9623SM   C3F13005   4.140   4.424   2.904  0.0395  0.5363 -0.3473
   9623SM   H3F13006   4.171   4.364   2.816  1.5099  0.6065  0.0924
   9623SM   H3G13007   4.032   4.413   2.926 -0.0293  2.1973  0.3896
   9623SM   C4F13008   4.214   4.382   3.029 -0.5240  0.1674  0.2433
   9623SM   H4F13009   4.322   4.402   3.016  0.0724 -0.9764  2.6714
   9623SM   H4G13010   4.228   4.275   3.055  2.7855  0.7779  1.4537
   9623SM   C5F13011   4.154   4.449   3.156  0.2449 -0.3524  0.6816
   9623SM   H5F13012   4.045   4.434   3.144  0.2714  0.5346 -1.0765
   9623SM   H5G13013   4.186   4.555   3.169 -0.9172  0.3053 -1.3174
   9623SM   C6F13014   4.192   4.385   3.288  0.0516 -0.1627  0.4178
   9623SM   H6F13015   4.300   4.395   3.309 -0.0027  2.1669 -0.1954
   9623SM   H6G13016   4.160   4.279   3.305  2.3686 -0.8822  0.6154
   9623SM   C7F13017   4.115   4.465   3.394  0.0751  0.1081 -0.2362
   9623SM   H7F13018   4.006   4.445   3.384  0.4941 -1.4098 -2.6930
   9623SM   H7G13019   4.129   4.574   3.381 -0.4378  0.2531  0.3857
   9623SM   C8F13020   4.147   4.422   3.542 -0.3920  0.2570 -0.2133
   9623SM   H8F13021   4.256   4.435   3.556 -0.5353  0.1344  1.1305
   9623SM   H8G13022   4.120   4.316   3.561  0.3465 -0.1393 -1.2991
   9623SM   C9F13023   4.091   4.512   3.658  0.5178  0.2947  0.3333
   9623SM   H9F13024   3.981   4.503   3.656  0.4130  1.4642 -0.1873
   9623SM   H9G13025   4.110   4.619   3.632 -1.9628  1.3474  2.4222
   9623SM  C10F13026   4.160   4.486   3.793  0.0956  0.0624  0.2647
   9623SM  H10F13027   4.269   4.496   3.776  0.0292 -1.5036 -1.2611
   9623SM  H10G13028   4.128   4.382   3.817  3.4932 -0.8834  1.2443
   9623SM  C11F13029   4.112   4.574   3.905 -0.0248  0.1633  0.0709
   9623SM  H11F13030   4.009   4.554   3.942 -0.1148  0.3132 -0.0950
   9623SM  H11G13031   4.123   4.679   3.868  1.3419 -0.0243 -0.0973
   9623SM  C12F13032   4.207   4.547   4.029 -0.0357  0.5655  0.3370
   9623SM  H12F13033   4.307   4.549   3.979 -0.5431 -1.7689 -0.8839
   9623SM  H12G13034   4.181   4.445   4.063  1.5491  0.4367  1.2459
   9623SM  C13F13035   4.172   4.649   4.136  0.1057  0.6280  0.0382
   9623SM  H13F13036   4.064   4.676   4.134  0.0603  1.1751  3.4558
   9623SM  H13G13037   4.229   4.738   4.103 -0.0376 -0.3565 -3.2471
   9623SM  C14F13038   4.211   4.617   4.279 -0.2824 -0.3289 -0.4635
   9623SM  H14F13039   4.321   4.608   4.290  0.0017  2.2064 -0.7161
   9623SM  H14G13040   4.168   4.522   4.318  0.1726 -0.0499  0.7527
   9623SM  C15F13041   4.166   4.734   4.373 -0.5900 -0.0906 -0.1498
   9623SM  H15F13042   4.088   4.796   4.326  0.4830  1.2899 -0.1861
   9623SM  H15G13043   4.249   4.805   4.395 -1.0011  0.4225 -0.2561
   9623SM  C16F13044   4.108   4.697   4.510 -0.4030  0.2076  0.1437
   9623SM  H16F13045   4.161   4.606   4.545 -0.7545 -0.9433 -2.0985
   9623SM  H16G13046   4.007   4.653   4.499 -0.0390 -0.4102 -0.9717
   9623SM  C17F13047   4.114   4.809   4.617  0.7753  0.0976 -0.2594
   9623SM  H17F13048   4.029   4.878   4.596 -0.4322 -1.5693 -1.1206
   9623SM  H17G13049   4.211   4.862   4.604  0.3185  1.6520  2.1015
   9623SM  C18F13050   4.099   4.753   4.760  0.3598 -0.1539  0.4689
   9623SM  H18F13051   4.189   4.706   4.804  0.7939  0.2474  0.0264
   9623SM  H18G13052   4.009   4.689   4.758  0.6812 -0.5960  0.1216
   9623SM  C19F13053   4.066   4.869   4.861  0.3087 -0.5472  0.4413
   9623SM  H19F13054   3.964   4.900   4.829  0.5826 -0.1094 -0.0471
   9623SM  H19G13055   4.135   4.956   4.851  0.3375 -0.6210 -0.0296
   9623SM  C20F13056   4.079   4.826   5.012 -0.8621 -0.2518  0.6710
   9623SM  H20F13057   4.187   4.825   5.037 -1.0313  1.3459  1.6006
   9623SM  H20G13058   4.051   4.719   5.019  0.4387 -0.7807 -1.3870
   9623SM  C21F13059   4.006   4.916   5.100 -0.6205 -0.0857 -0.1235
   9623SM  H21F13060   3.994   4.881   5.205 -0.2061 -0.5142 -0.2162
   9623SM  H21G13061   3.904   4.912   5.056  0.6447 -0.1394 -3.2983
   9623SM  C22F13062   4.063   5.060   5.099  0.2104  0.5356 -0.0017
   9623SM  H22F13063   4.041   5.085   4.993 -0.7114 -1.6312 -0.3744
   9623SM  H22G13064   4.174   5.069   5.103  0.2459  0.0275  3.5690
   9623SM  C23F13065   3.984   5.145   5.195  0.0910 -0.1812  0.5857
   9623SM  H23F13066   3.997   5.103   5.297  2.9258  1.1072  0.8332
   9623SM  H23G13067   3.878   5.145   5.160  0.1134 -0.1075  0.5177
   9623SM  H23H13068   4.016   5.251   5.203  0.5256 -0.2566 -0.0715
   9723SM     N13069   4.386   0.870   2.201  0.6137 -0.1601 -0.5859
   9723SM   C1513070   4.442   0.737   2.231 -0.1876 -0.3341 -0.1988
   9723SM  H15A13071   4.372   0.685   2.296 -0.1896 -2.4646 -1.8195
   9723SM  H15B13072   4.534   0.764   2.281 -0.4770  1.2948 -0.5030
   9723SM  H15C13073   4.463   0.680   2.142  3.6768 -0.6104  0.6947
   9723SM   C1413074   4.349   0.936   2.331 -0.8030 -0.0622 -0.3327
   9723SM  H14A13075   4.426   0.933   2.407  0.2686  1.0525 -1.3221
   9723SM  H14B13076   4.258   0.896   2.373 -1.4010  1.6928  0.1559
   9723SM  H14C13077   4.324   1.040   2.311  0.2001  0.6045  1.6198
   9723SM   C1313078   4.489   0.948   2.136  0.3560 -0.0491  0.4258
   9723SM  H13A13079   4.507   0.906   2.039  1.8707 -1.5860  1.3105
   9723SM  H13B13080   4.579   0.950   2.196  1.4864  0.4755 -1.2350
   9723SM  H13C13081   4.451   1.049   2.132 -0.9324 -0.5299  0.3143
   9723SM   C1213082   4.264   0.856   2.110  0.7951 -0.6972  0.0080
   9723SM  H12A13083   4.198   0.787   2.160 -0.7915  0.5720 -0.2385
   9723SM  H12B13084   4.284   0.817   2.012 -0.5848 -0.4600 -0.3823
   9723SM   C1113085   4.169   0.972   2.099 -0.4713  0.8191  0.8976
   9723SM  H11A13086   4.099   0.971   2.013  2.5833 -1.6326 -1.8523
   9723SM  H11B13087   4.234   1.060   2.081  1.1726 -0.5486 -0.1823
   9723SM     P13088   3.965   0.878   2.233  0.3696 -0.1234  0.2920
   9723SM   O1313089   3.851   0.920   2.145  0.5455 -0.2693  0.6240
   9723SM   O1413090   4.016   0.740   2.221  0.2636  0.4782  0.4239
   9723SM   O1113091   3.931   0.898   2.381  0.9252 -0.3021 -0.4102
   9723SM   O1213092   4.087   0.976   2.211  0.0201 -0.5695  0.1483
   9723SM   C1S13093   3.935   1.034   2.437 -0.7809 -0.0864 -0.6911
   9723SM   H1S13094   3.855   1.094   2.390 -0.2742 -1.1271 -3.0180
   9723SM   H1T13095   4.030   1.089   2.418 -0.6494  0.9409  2.3881
   9723SM    NF13096   3.857   1.131   2.652 -0.1850  0.3524  0.3550
   9723SM   HNF13097   3.894   1.164   2.739  1.6714 -1.8515  0.4753
   9723SM   C2S13098   3.913   1.017   2.590  0.1703  0.5954 -0.3103
   9723SM   H2S13099   3.831   0.943   2.605  1.6646 -1.2694 -0.8993
   9723SM   C3S13100   4.055   0.977   2.652  0.2341 -0.3370 -0.1952
   9723SM   H3S13101   4.127   1.061   2.640  2.0678 -2.0100 -1.5995
   9723SM    O313102   4.103   0.862   2.577  0.2612 -0.0292 -0.1691
   9723SM   HO313103   4.052   0.866   2.495 -0.4181  1.7035  0.2965
   9723SM   C4S13104   4.034   0.948   2.804  0.2511  0.5944  0.0412
   9723SM   H4S13105   4.045   1.035   2.870 -1.3279 -0.9959  2.5645
   9723SM   C5S13106   4.006   0.826   2.859  0.2608  0.3645 -0.0632
   9723SM   H5S13107   3.991   0.741   2.791  0.8508  0.5254 -0.3956
   9723SM   C6S13108   3.994   0.796   3.005 -0.1724 -0.1930  0.0460
   9723SM   H6S13109   4.066   0.716   3.031 -1.1227 -0.6242  1.4953
   9723SM   H6T13110   3.899   0.750   3.039  0.6013  0.7011  3.9742
   9723SM   C7S13111   4.029   0.919   3.096 -0.0196  0.2887  0.2831
   9723SM   H7S13112   3.943   0.989   3.084  1.9064  2.4909 -1.9663
   9723SM   H7T13113   4.123   0.973   3.072 -0.1835  1.2917  1.7546
   9723SM   C8S13114   4.034   0.860   3.233  0.2989  0.3427  0.0931
   9723SM   H8S13115   4.099   0.771   3.228  0.2071  0.2915 -0.1964
   9723SM   H8T13116   3.936   0.819   3.267  1.0845 -1.2017  0.6070
   9723SM   C9S13117   4.095   0.951   3.342  0.8905  0.1486 -0.4398
   9723SM   H9S13118   4.019   1.025   3.376  0.5970  0.3089 -1.4160
   9723SM   H9T13119   4.171   1.013   3.289  2.1098 -0.7307  0.2387
   9723SM  C10S13120   4.182   0.885   3.450  0.3180  0.0096 -0.9506
   9723SM  H10S13121   4.260   0.830   3.393 -2.0745 -3.2290 -1.3691
   9723SM  H10T13122   4.123   0.808   3.505  1.1609  0.1884  0.2524
   9723SM  C11S13123   4.258   0.985   3.539 -0.0823  0.0790  0.0747
   9723SM  H11S13124   4.307   1.066   3.481  0.2163  1.2536  1.9069
   9723SM  H11T13125   4.331   0.937   3.608  1.3462  1.9673 -0.0506
   9723SM  C12S13126   4.155   1.055   3.627 -0.3560  0.2133 -0.2329
   9723SM  H12S13127   4.073   0.988   3.664 -1.2441  1.0816 -0.5921
   9723SM  H12T13128   4.119   1.148   3.578  2.2386  1.8090  0.6824
   9723SM  C13S13129   4.216   1.122   3.754 -0.0162 -0.5293 -0.2959
   9723SM  H13S13130   4.290   1.194   3.713 -1.9191 -0.1191 -3.3513
   9723SM  H13T13131   4.271   1.054   3.822 -0.9558 -2.0298 -0.9666
   9723SM  C14S13132   4.119   1.198   3.837 -0.2246  0.0923 -0.0393
   9723SM  H14S13133   4.020   1.149   3.849 -0.7669  1.2035  0.1491
   9723SM  H14T13134   4.087   1.289   3.783 -1.5716  1.0398  2.2185
   9723SM  C15S13135   4.177   1.252   3.972  0.1207 -0.8480  0.3974
   9723SM  H15S13136   4.246   1.336   3.950  2.4328 -2.8187 -0.3876
   9723SM  H15T13137   4.237   1.177   4.027  2.7762  0.8417 -0.0284
   9723SM  C16S13138   4.065   1.302   4.061  0.4324  0.5694 -0.1805
   9723SM  H16S13139   3.991   1.222   4.083 -1.0125  1.8816 -0.0747
   9723SM  H16T13140   4.001   1.370   4.001 -1.3542 -1.5207 -0.8046
   9723SM  C17S13141   4.106   1.382   4.187 -0.3377 -0.1518 -1.2358
   9723SM  H17S13142   4.189   1.453   4.168  0.7949 -0.3747  2.2106
   9723SM  H17T13143   4.147   1.308   4.258 -1.7217  0.1335 -0.0825
   9723SM  C18S13144   3.990   1.447   4.260  0.7927  0.0138 -0.1105
   9723SM  H18S13145   4.030   1.504   4.347  0.3679 -0.3132  0.3055
   9723SM  H18T13146   3.923   1.368   4.300  1.5312 -0.8567 -0.5468
   9723SM  H18U13147   3.932   1.513   4.192 -0.3677 -0.7166  0.1323
   9723SM   C1F13148   3.737   1.182   2.615 -0.3266 -0.1126 -0.0366
   9723SM    OF13149   3.669   1.121   2.531  0.2000 -0.8864  0.6446
   9723SM   C2F13150   3.691   1.298   2.699 -0.4365  0.6790 -0.0303
   9723SM   H2F13151   3.761   1.384   2.690 -0.3654  0.6478  0.2298
   9723SM   H2G13152   3.689   1.263   2.804 -1.4304 -0.7814 -0.5013
   9723SM   C3F13153   3.548   1.334   2.661  0.5002 -0.0018  0.0508
   9723SM   H3F13154   3.473   1.252   2.661  0.1031  0.3486  1.1513
   9723SM   H3G13155   3.540   1.406   2.576  0.1616  1.1713  1.0424
   9723SM   C4F13156   3.486   1.427   2.776 -0.8661 -0.2767 -0.2815
   9723SM   H4F13157   3.387   1.467   2.746 -0.2074  2.8716  1.2762
   9723SM   H4G13158   3.553   1.515   2.765  0.1294 -1.1485 -1.4990
   9723SM   C5F13159   3.478   1.362   2.912  0.9418 -0.4213  0.1961
   9723SM   H5F13160   3.567   1.309   2.951  1.3439 -0.1355 -0.3182
   9723SM   H5G13161   3.392   1.292   2.914 -0.4019  1.1143 -0.9138
   9723SM   C6F13162   3.440   1.471   3.018 -0.4480 -0.2781 -0.0371
   9723SM   H6F13163   3.338   1.508   2.993  0.0160 -0.5830 -2.6542
   9723SM   H6G13164   3.506   1.557   2.996  0.3770 -1.1298 -0.9385
   9723SM   C7F13165   3.446   1.411   3.157 -0.1277  0.3732  0.6432
   9723SM   H7F13166   3.554   1.389   3.167  0.5248  0.0954 -4.4723
   9723SM   H7G13167   3.392   1.314   3.165  1.1095 -0.2044  3.5898
   9723SM   C8F13168   3.412   1.509   3.267 -0.4743 -0.2262  0.9206
   9723SM   H8F13169   3.443   1.610   3.234  0.0278 -0.3840  0.9017
   9723SM   H8G13170   3.474   1.472   3.353  2.8042  0.0946 -1.1295
   9723SM   C9F13171   3.270   1.505   3.320  0.1225 -0.2559 -0.1122
   9723SM   H9F13172   3.260   1.410   3.376 -0.9584  1.4990  2.9138
   9723SM   H9G13173   3.206   1.515   3.230  1.3192  4.2276 -0.7090
   9723SM  C10F13174   3.235   1.617   3.421 -0.2475  0.4140  0.1684
   9723SM  H10F13175   3.131   1.614   3.460 -0.8094 -1.7794 -1.3147
   9723SM  H10G13176   3.256   1.716   3.376 -0.2158 -0.5328 -2.0176
   9723SM  C11F13177   3.344   1.611   3.529  0.0450 -0.3134 -0.6774
   9723SM  H11F13178   3.442   1.648   3.492  0.6302 -0.5901  0.5602
   9723SM  H11G13179   3.357   1.506   3.561  2.0285 -0.1400 -0.7734
   9723SM  C12F13180   3.296   1.694   3.655 -0.2953  0.7965  0.3535
   9723SM  H12F13181   3.201   1.643   3.683 -0.3402  0.2311 -0.7726
   9723SM  H12G13182   3.278   1.801   3.631  0.2375  0.6234 -0.8940
   9723SM  C13F13183   3.406   1.699   3.764  0.2257  0.0557  0.0049
   9723SM  H13F13184   3.486   1.768   3.729 -0.4283  0.4865 -0.6919
   9723SM  H13G13185   3.455   1.599   3.772 -2.1075 -1.0432  1.5968
   9723SM  C14F13186   3.348   1.742   3.904  0.0739  0.0581 -0.1280
   9723SM  H14F13187   3.266   1.673   3.934 -1.7760  1.1720 -2.3253
   9723SM  H14G13188   3.317   1.848   3.903  1.4456  0.4901  0.4357
   9723SM  C15F13189   3.461   1.743   4.012 -0.2329  0.4421  1.0302
   9723SM  H15F13190   3.535   1.826   4.003  0.6531 -0.4676 -0.4307
   9723SM  H15G13191   3.522   1.651   3.998  0.0230  0.7806 -0.2133
   9723SM  C16F13192   3.398   1.743   4.150 -0.2871  0.1767  0.3411
   9723SM  H16F13193   3.323   1.661   4.154  0.0467 -0.2025  5.0035
   9723SM  H16G13194   3.346   1.841   4.153  2.1562  1.7505 -2.6723
   9723SM  C17F13195   3.486   1.726   4.276  0.2006 -0.0574 -0.2640
   9723SM  H17F13196   3.552   1.637   4.268  0.5465  0.2457 -0.8581
   9723SM  H17G13197   3.417   1.702   4.359  2.1233  0.6327  1.6037
   9723SM  C18F13198   3.582   1.842   4.307 -0.1078  0.4817 -0.4721
   9723SM  H18F13199   3.620   1.883   4.211  1.3839  0.8801  0.2753
   9723SM  H18G13200   3.667   1.790   4.356 -0.9236 -1.5734 -1.0896
   9723SM  C19F13201   3.513   1.946   4.391  0.9141  0.3703  0.6186
   9723SM  H19F13202   3.413   1.963   4.345 -0.1238 -1.2710  2.1524
   9723SM  H19G13203   3.569   2.042   4.386 -0.0568  0.8890 -1.0869
   9723SM  C20F13204   3.499   1.909   4.544  0.3137 -0.2532 -0.1245
   9723SM  H20F13205   3.413   1.839   4.550 -1.5488  1.2616 -4.7199
   9723SM  H20G13206   3.455   1.994   4.600  2.9294  0.5541  0.8899
   9723SM  C21F13207   3.620   1.863   4.624 -0.9250  0.0521 -0.3441
   9723SM  H21F13208   3.665   1.772   4.579 -2.6991 -1.1645  0.2314
   9723SM  H21G13209   3.599   1.843   4.731  0.4946 -1.3786 -0.2947
   9723SM  C22F13210   3.733   1.963   4.630  0.0318  0.0540  0.5079
   9723SM  H22F13211   3.738   2.002   4.526 -0.5874  1.0578  0.8390
   9723SM  H22G13212   3.827   1.914   4.663 -0.7383 -0.5610  1.8911
   9723SM  C23F13213   3.712   2.077   4.732 -0.2645 -0.0897 -0.4634
   9723SM  H23F13214   3.677   2.040   4.831  0.8515  0.0221 -0.0101
   9723SM  H23G13215   3.626   2.127   4.683 -0.1843  0.0332 -0.4769
   9723SM  H23H13216   3.804   2.138   4.729 -0.3080  0.3865  3.3656
   9823SM     N13217   0.002   7.599   1.902 -0.6602  0.8160 -0.3332
   9823SM   C1513218   0.125   7.654   1.978 -0.4781  0.4135 -0.1118
   9823SM  H15A13219   0.175   7.724   1.913 -0.3218  1.0862  0.7102
   9823SM  H15B13220   0.191   7.569   1.981 -1.6021 -0.5584 -1.5754
   9823SM  H15C13221   0.100   7.690   2.077 -0.3367 -0.1170  0.1222
   9823SM   C1413222  -0.101   7.700   1.879 -0.5830 -0.6935 -0.4219
   9823SM  H14A13223  -0.157   7.728   1.967  0.9266  2.7358 -0.3800
   9823SM  H14B13224  -0.157   7.688   1.787  0.3641 -0.5111 -1.0427
   9823SM  H14C13225  -0.034   7.781   1.852  1.4313 -1.5255  1.8538
   9823SM   C1313226   0.062   7.541   1.775 -0.3275  0.5936 -0.2254
   9823SM  H13A13227   0.124   7.454   1.792  1.5063  2.1570  1.4958
   9823SM  H13B13228   0.131   7.610   1.729 -0.0282  0.6328  0.2734
   9823SM  H13C13229  -0.016   7.522   1.702  0.6051 -0.7793 -0.9149
   9823SM   C1213230  -0.075   7.492   1.989 -0.1663  0.3380  1.1359
   9823SM  H12A13231  -0.015   7.402   1.987  1.5855  1.4591 -0.9244
   9823SM  H12B13232  -0.168   7.485   1.935 -0.1497  0.7867  1.0425
   9823SM   C1113233  -0.138   7.526   2.130 -0.2131  0.0440  0.2509
   9823SM  H11A13234  -0.071   7.593   2.189  0.3035  1.3406 -1.7332
   9823SM  H11B13235  -0.155   7.437   2.195 -1.0629  0.5973  0.8158
   9823SM     P13236  -0.394   7.567   2.164  0.2963  0.1619 -0.3121
   9823SM   O1313237  -0.473   7.688   2.138  0.1996  0.0331  0.1155
   9823SM   O1413238  -0.437   7.438   2.111 -0.3238  0.4387 -0.0036
   9823SM   O1113239  -0.374   7.547   2.323  0.1350  0.5799 -0.6475
   9823SM   O1213240  -0.255   7.602   2.108 -0.3435 -0.6991  0.0772
   9823SM   C1S13241  -0.334   7.650   2.415  0.2972  0.3531 -0.2229
   9823SM   H1S13242  -0.379   7.748   2.388 -0.4603  0.6496  1.9144
   9823SM   H1T13243  -0.223   7.656   2.413  0.3360 -0.4155 -1.0039
   9823SM    NF13244  -0.369   7.744   2.639 -0.3128  0.3244  0.0810
   9823SM   HNF13245  -0.305   7.738   2.716  0.3576 -1.5741 -0.5780
   9823SM   C2S13246  -0.383   7.623   2.567  0.3786 -0.3566  0.4873
   9823SM   H2S13247  -0.493   7.605   2.575  0.5198 -0.4025  3.5686
   9823SM   C3S13248  -0.322   7.494   2.625 -0.0474  0.3570  0.8913
   9823SM   H3S13249  -0.213   7.506   2.641  0.1930  0.9741 -0.9861
   9823SM    O313250  -0.319   7.379   2.535  0.1798 -0.0383  0.1657
   9823SM   HO313251  -0.371   7.408   2.459 -1.1011 -0.9796  0.6527
   9823SM   C4S13252  -0.374   7.461   2.767  0.3599 -0.4637  0.7971
   9823SM   H4S13253  -0.335   7.528   2.845  0.0615 -1.5443  1.8906
   9823SM   C5S13254  -0.460   7.370   2.805  0.4655  0.2826 -0.1626
   9823SM   H5S13255  -0.498   7.300   2.729 -1.1740 -0.9318  1.6887
   9823SM   C6S13256  -0.516   7.342   2.943 -0.2866 -0.2305  0.2185
   9823SM   H6S13257  -0.529   7.234   2.964  1.2611 -0.4478  0.1167
   9823SM   H6T13258  -0.617   7.388   2.949 -0.7085 -1.1050  0.0442
   9823SM   C7S13259  -0.420   7.385   3.058  0.5047 -0.6791 -0.4064
   9823SM   H7S13260  -0.380   7.485   3.032  1.5040 -1.1220 -0.6167
   9823SM   H7T13261  -0.330   7.320   3.057  0.6425 -0.5031  0.0772
   9823SM   C8S13262  -0.471   7.375   3.195  0.0513  0.8087  0.6901
   9823SM   H8S13263  -0.500   7.268   3.208 -0.3094  0.9605  1.1604
   9823SM   H8T13264  -0.555   7.440   3.228 -0.6430  1.0984 -1.4769
   9823SM   C9S13265  -0.367   7.405   3.305 -0.5377  0.0436  0.2537
   9823SM   H9S13266  -0.323   7.505   3.287  0.5083 -0.7770 -2.1801
   9823SM   H9T13267  -0.285   7.330   3.300 -1.7140 -1.4306  1.9234
   9823SM  C10S13268  -0.429   7.389   3.448  0.1633 -1.1169  0.1019
   9823SM  H10S13269  -0.458   7.284   3.469 -1.4099 -0.2962  2.5093
   9823SM  H10T13270  -0.527   7.441   3.453  0.2595 -0.5058 -2.8775
   9823SM  C11S13271  -0.329   7.436   3.549  0.6112 -0.0796 -0.2063
   9823SM  H11S13272  -0.278   7.531   3.520 -1.1840  0.7523 -0.7773
   9823SM  H11T13273  -0.249   7.363   3.575  2.4027  2.5633  2.4051
   9823SM  C12S13274  -0.383   7.448   3.692 -0.5474  0.3066  0.3950
   9823SM  H12S13275  -0.424   7.349   3.724 -0.2489  0.0776  0.0724
   9823SM  H12T13276  -0.466   7.521   3.693 -0.5697  0.3662  2.9966
   9823SM  C13S13277  -0.283   7.490   3.799 -0.3953 -0.0517 -0.3811
   9823SM  H13S13278  -0.229   7.585   3.781 -2.1131  0.7624 -1.5706
   9823SM  H13T13279  -0.200   7.418   3.792  0.0741  0.4401  0.0141
   9823SM  C14S13280  -0.351   7.491   3.931 -0.4730  0.5938 -0.1431
   9823SM  H14S13281  -0.274   7.474   4.010  0.5474  3.6565 -0.3537
   9823SM  H14T13282  -0.431   7.414   3.940  0.1924 -0.1092 -0.0771
   9823SM  C15S13283  -0.426   7.625   3.952  0.8315  0.7683 -0.1189
   9823SM  H15S13284  -0.501   7.641   3.872 -0.2071 -1.5878  0.2989
   9823SM  H15T13285  -0.359   7.713   3.944 -0.6822  1.9366 -0.3399
   9823SM  C16S13286  -0.510   7.621   4.084  0.3667 -0.5350  0.4057
   9823SM  H16S13287  -0.433   7.610   4.164  1.1014 -0.8866 -0.3300
   9823SM  H16T13288  -0.583   7.538   4.076  2.2489 -2.2355 -0.2691
   9823SM  C17S13289  -0.587   7.753   4.111  0.0144 -0.3077 -1.1082
   9823SM  H17S13290  -0.661   7.762   4.028 -0.4223 -3.4016 -1.1817
   9823SM  H17T13291  -0.510   7.833   4.119 -0.4707 -0.0230  1.5647
   9823SM  C18S13292  -0.652   7.759   4.249 -0.1802  0.2353 -0.1744
   9823SM  H18S13293  -0.706   7.856   4.260  3.2869  2.2834  0.0032
   9823SM  H18T13294  -0.573   7.748   4.326 -1.6136 -0.8735  1.2101
   9823SM  H18U13295  -0.724   7.677   4.269  0.9085 -0.4830  0.9199
   9823SM   C1F13296  -0.429   7.858   2.608  0.0871  0.5544  0.0492
   9823SM    OF13297  -0.513   7.867   2.518 -0.1092 -0.0357  0.3679
   9823SM   C2F13298  -0.398   7.975   2.697  0.3902 -0.5320 -0.3197
   9823SM   H2F13299  -0.400   8.073   2.645  1.7925 -1.3363 -2.0016
   9823SM   H2G13300  -0.293   7.961   2.730  1.0719  0.2803 -1.9941
   9823SM   C3F13301  -0.506   7.982   2.809  0.4788  0.8148 -0.6764
   9823SM   H3F13302  -0.542   7.886   2.853  1.1827  0.5806 -0.5936
   9823SM   H3G13303  -0.594   8.035   2.767 -0.4186  0.0510  0.2098
   9823SM   C4F13304  -0.458   8.069   2.928 -0.7149 -0.7450  0.0032
   9823SM   H4F13305  -0.459   8.176   2.895 -1.0460 -0.4631  0.8935
   9823SM   H4G13306  -0.353   8.039   2.948 -0.9096 -2.2873 -1.1271
   9823SM   C5F13307  -0.540   8.051   3.054  0.0927 -1.1221  0.3443
   9823SM   H5F13308  -0.511   7.966   3.121 -0.6966  0.1029  2.3350
   9823SM   H5G13309  -0.642   8.028   3.016 -0.2888  0.4212  0.3957
   9823SM   C6F13310  -0.546   8.168   3.156  0.0560 -0.1607 -0.3291
   9823SM   H6F13311  -0.552   8.267   3.108 -1.1036 -0.5988 -1.1256
   9823SM   H6G13312  -0.447   8.159   3.206  0.4515  1.9519 -0.6662
   9823SM   C7F13313  -0.665   8.163   3.249  0.3245  1.3204  0.5941
   9823SM   H7F13314  -0.692   8.060   3.281 -1.5604  1.6861  0.3197
   9823SM   H7G13315  -0.751   8.196   3.186 -0.2167 -3.5956 -1.7488
   9823SM   C8F13316  -0.653   8.256   3.368  0.2894 -0.5056  0.0739
   9823SM   H8F13317  -0.623   8.348   3.313  0.1824 -0.4515  0.1046
   9823SM   H8G13318  -0.575   8.218   3.438 -0.7218  0.1712  1.6368
   9823SM   C9F13319  -0.786   8.261   3.456 -0.6427 -0.3523  0.6720
   9823SM   H9F13320  -0.810   8.161   3.498 -0.6805  0.7151  3.4091
   9823SM   H9G13321  -0.878   8.280   3.395  0.2532 -1.7715 -1.2198
   9823SM  C10F13322  -0.755   8.380   3.552 -0.6584 -0.0253 -0.0388
   9823SM  H10F13323  -0.645   8.387   3.562 -0.8149  1.3916  0.8965
   9823SM  H10G13324  -0.795   8.340   3.648  0.1896  1.0612  0.7922
   9823SM  C11F13325  -0.814   8.516   3.518 -0.3599 -0.5816  0.3434
   9823SM  H11F13326  -0.924   8.507   3.513 -0.4490 -0.3963  1.7450
   9823SM  H11G13327  -0.772   8.546   3.419  3.3740  0.0461  1.9408
   9823SM  C12F13328  -0.764   8.627   3.615 -0.4956  0.7562  0.1664
   9823SM  H12F13329  -0.657   8.648   3.598 -0.3496 -0.5982 -0.7998
   9823SM  H12G13330  -0.785   8.586   3.716 -0.3582  1.3133  0.4210
   9823SM  C13F13331  -0.836   8.766   3.607 -0.3110  0.4067  0.0143
   9823SM  H13F13332  -0.943   8.740   3.601 -0.5560  1.5333 -0.8085
   9823SM  H13G13333  -0.810   8.816   3.511 -0.5946  2.0310  0.7594
   9823SM  C14F13334  -0.797   8.869   3.709 -0.6897  0.2076 -0.3969
   9823SM  H14F13335  -0.706   8.919   3.671  1.8965 -3.0326  1.0921
   9823SM  H14G13336  -0.781   8.826   3.810 -2.2798  0.9213  0.1986
   9823SM  C15F13337  -0.909   8.980   3.725  0.2738  0.9359  0.7231
   9823SM  H15F13338  -0.874   9.067   3.784  1.2176  1.2547 -0.2763
   9823SM  H15G13339  -0.990   8.932   3.784  0.2577 -2.0362 -1.4926
   9823SM  C16F13340  -0.969   9.040   3.595  0.0346  0.5799  0.8142
   9823SM  H16F13341  -1.030   8.968   3.536  0.8677  0.0275  0.6119
   9823SM  H16G13342  -0.885   9.073   3.530 -1.4853  1.7451 -0.6421
   9823SM  C17F13343  -1.057   9.170   3.609  0.0773 -0.1662 -0.5536
   9823SM  H17F13344  -0.998   9.250   3.659 -1.7922  0.7546  0.2829
   9823SM  H17G13345  -1.146   9.150   3.673 -0.7992 -0.6861 -1.8682
   9823SM  C18F13346  -1.117   9.204   3.469  0.0192  0.1774 -0.1712
   9823SM  H18F13347  -1.186   9.120   3.447  0.6937 -0.5958  0.5717
   9823SM  H18G13348  -1.036   9.207   3.394 -1.7681  1.1025 -2.1589
   9823SM  C19F13349  -1.192   9.336   3.467  0.6830  0.6374  0.0225
   9823SM  H19F13350  -1.125   9.423   3.481  0.2469  0.8747  0.7014
   9823SM  H19G13351  -1.260   9.338   3.554 -1.7709  0.2587 -1.7777
   9823SM  C20F13352  -1.270   9.347   3.336  0.0707  0.1902  0.3179
   9823SM  H20F13353  -1.323   9.444   3.343 -0.0844  0.5545 -3.5110
   9823SM  H20G13354  -1.340   9.262   3.329  0.2751 -0.0011  0.5996
   9823SM  C21F13355  -1.186   9.344   3.216  0.2240 -0.3446  0.9344
   9823SM  H21F13356  -1.133   9.246   3.207  1.1655  0.1790  0.6612
   9823SM  H21G13357  -1.114   9.429   3.214 -2.0572  1.7316 -1.8791
   9823SM  C22F13358  -1.270   9.356   3.089  0.1861  0.0821  0.0983
   9823SM  H22F13359  -1.313   9.458   3.080 -1.4979 -0.4740  1.2371
   9823SM  H22G13360  -1.359   9.291   3.095  0.2756 -0.4563 -2.9127
   9823SM  C23F13361  -1.196   9.330   2.955  0.2657 -0.5109  0.2777
   9823SM  H23F13362  -1.146   9.231   2.949  0.9955 -0.0991 -0.7924
   9823SM  H23G13363  -1.117   9.404   2.932  0.0736  0.1853  1.7927
   9823SM  H23H13364  -1.263   9.337   2.866 -0.6258 -2.0938  0.7816
   9923SM     N13365   0.938   6.303   2.535 -0.3443  0.0629 -0.0821
   9923SM   C1513366   0.795   6.306   2.522  0.3818  0.2988  0.0144
   9923SM  H15A13367   0.765   6.405   2.555  4.0208  0.8773  2.1536
   9923SM  H15B13368   0.749   6.229   2.582 -0.6801  1.1233  0.2929
   9923SM  H15C13369   0.766   6.313   2.418 -0.3432  0.3046  0.2108
   9923SM   C1413370   0.968   6.312   2.679  0.3395 -0.4635 -0.5680
   9923SM  H14A13371   0.938   6.236   2.750 -2.8946  1.1015 -0.0802
   9923SM  H14B13372   0.928   6.401   2.725 -0.0819  0.2171 -2.1833
   9923SM  H14C13373   1.075   6.313   2.695  0.3012 -0.2628 -0.3053
   9923SM   C1313374   0.987   6.162   2.491 -0.3686 -0.8662  0.1289
   9923SM  H13A13375   0.998   6.159   2.384 -1.5476  3.1090 -0.2723
   9923SM  H13B13376   0.928   6.078   2.525 -0.3705 -1.2728 -0.8614
   9923SM  H13C13377   1.091   6.150   2.517  0.0898 -2.2629 -2.0680
   9923SM   C1213378   1.013   6.400   2.449  0.2762 -0.2390 -0.2013
   9923SM  H12A13379   0.995   6.368   2.347 -0.5385 -2.3584  0.5519
   9923SM  H12B13380   1.119   6.384   2.463  0.2616  0.4737  0.8260
   9923SM   C1113381   0.976   6.547   2.480 -0.5321  0.4569  0.0368
   9923SM  H11A13382   1.039   6.603   2.408  1.8418 -1.6080  0.3556
   9923SM  H11B13383   0.995   6.572   2.586 -0.8041  1.9200 -0.2391
   9923SM     P13384   0.791   6.651   2.315 -0.1240 -0.2170 -0.3196
   9923SM   O1313385   0.894   6.748   2.271 -0.0630  0.1419 -0.0122
   9923SM   O1413386   0.750   6.551   2.210 -0.5363  0.1090  0.0005
   9923SM   O1113387   0.663   6.728   2.368  0.2975 -0.7610  0.0199
   9923SM   O1213388   0.845   6.575   2.447 -0.3756  0.2515 -0.2210
   9923SM   C1S13389   0.548   6.671   2.432 -0.1704  0.1610  0.0078
   9923SM   H1S13390   0.550   6.560   2.426 -0.3257  0.1750 -0.3114
   9923SM   H1T13391   0.450   6.712   2.400 -0.8751 -0.2395  1.5352
   9923SM    NF13392   0.426   6.657   2.635  0.1429  0.5804 -0.5921
   9923SM   HNF13393   0.337   6.699   2.618 -1.7210 -2.7254  0.2234
   9923SM   C2S13394   0.548   6.715   2.578 -0.0849 -0.2687  0.8535
   9923SM   H2S13395   0.640   6.673   2.623  0.3526 -2.2407 -1.6190
   9923SM   C3S13396   0.553   6.870   2.581 -0.4560 -0.2340 -0.2568
   9923SM   H3S13397   0.470   6.910   2.519 -1.3569  0.7744  1.5061
   9923SM    O313398   0.676   6.932   2.537 -0.0700 -0.0011  0.7513
   9923SM   HO313399   0.719   6.875   2.472 -1.7952 -0.4869 -0.0300
   9923SM   C4S13400   0.525   6.913   2.727 -0.2163 -0.1543  0.2616
   9923SM   H4S13401   0.598   6.887   2.805 -0.3523  3.3919  1.7844
   9923SM   C5S13402   0.427   7.006   2.756  0.1067  0.2583  0.4612
   9923SM   H5S13403   0.372   7.038   2.666 -0.0942  0.9329  0.8214
   9923SM   C6S13404   0.396   7.081   2.880  0.1734 -0.0120  0.6890
   9923SM   H6S13405   0.302   7.044   2.927 -0.5878  1.2916  0.2331
   9923SM   H6T13406   0.380   7.189   2.860  0.3273  0.2301  1.7678
   9923SM   C7S13407   0.499   7.065   2.995  0.3132  0.1240 -0.3366
   9923SM   H7S13408   0.601   7.086   2.957  0.2152  1.0264 -0.1114
   9923SM   H7T13409   0.491   6.960   3.031  0.2688  0.3966  0.4546
   9923SM   C8S13410   0.459   7.161   3.110  0.0262  0.3491  0.1651
   9923SM   H8S13411   0.354   7.137   3.140  0.4606 -0.8434  0.7759
   9923SM   H8T13412   0.460   7.265   3.071  0.2993  0.2348 -0.1362
   9923SM   C9S13413   0.557   7.155   3.225  0.0757 -0.3971 -0.4897
   9923SM   H9S13414   0.662   7.176   3.195  0.9878 -1.4818  1.6721
   9923SM   H9T13415   0.566   7.054   3.271  1.8977 -0.3655 -0.6979
   9923SM  C10S13416   0.512   7.255   3.340 -0.4943  0.4465  0.3906
   9923SM  H10S13417   0.403   7.234   3.350 -0.5587  0.6792  0.1936
   9923SM  H10T13418   0.514   7.362   3.308  3.0546  0.3100 -0.2458
   9923SM  C11S13419   0.582   7.239   3.467  0.2539 -0.0825 -0.2256
   9923SM  H11S13420   0.685   7.276   3.449  0.2177  1.6572  2.5752
   9923SM  H11T13421   0.579   7.133   3.500 -0.2840 -0.3623 -1.1394
   9923SM  C12S13422   0.530   7.327   3.583  0.2435 -0.1206 -0.4640
   9923SM  H12S13423   0.422   7.348   3.571  0.6856  1.1217 -2.7784
   9923SM  H12T13424   0.556   7.435   3.584 -3.3018  0.8612  0.5449
   9923SM  C13S13425   0.556   7.264   3.721  0.2770 -0.0550 -0.2360
   9923SM  H13S13426   0.493   7.177   3.749 -0.3230  0.7889  1.1671
   9923SM  H13T13427   0.535   7.346   3.794 -0.5113  1.2805 -1.8908
   9923SM  C14S13428   0.700   7.220   3.733 -0.3478  0.1243 -0.2924
   9923SM  H14S13429   0.761   7.307   3.700 -0.6429  0.2824 -0.4234
   9923SM  H14T13430   0.738   7.140   3.667  3.0981  0.5291  0.9808
   9923SM  C15S13431   0.751   7.182   3.874  0.7273  0.2372  0.0624
   9923SM  H15S13432   0.857   7.148   3.873  0.4844 -0.5564  0.5998
   9923SM  H15T13433   0.688   7.098   3.909  0.5177  0.3171 -0.1224
   9923SM  C16S13434   0.740   7.298   3.978  0.5029  0.2483 -0.0996
   9923SM  H16S13435   0.635   7.332   3.989  0.8863  1.2286  0.7012
   9923SM  H16T13436   0.803   7.386   3.953  0.7425 -0.0955 -0.7258
   9923SM  C17S13437   0.793   7.255   4.114 -0.0662  0.1535  0.2266
   9923SM  H17S13438   0.900   7.229   4.099  0.3361  2.1951 -0.7495
   9923SM  H17T13439   0.742   7.164   4.154  0.7737  0.3140  1.7284
   9923SM  C18S13440   0.769   7.367   4.217 -0.6313 -0.6622 -0.1879
   9923SM  H18S13441   0.660   7.380   4.227 -0.7579 -1.3860 -0.6137
   9923SM  H18T13442   0.810   7.467   4.187  0.4729 -1.0819 -0.1458
   9923SM  H18U13443   0.805   7.338   4.318 -0.1354  1.6731  0.3824
   9923SM   C1F13444   0.421   6.540   2.685 -0.1637  0.7922  0.2150
   9923SM    OF13445   0.515   6.467   2.673  0.2719  0.0290  0.5152
   9923SM   C2F13446   0.288   6.499   2.741 -0.4583 -0.4861 -0.4470
   9923SM   H2F13447   0.296   6.393   2.775  2.4410 -0.6225 -1.3193
   9923SM   H2G13448   0.209   6.505   2.664 -1.0759 -0.1308  0.1993
   9923SM   C3F13449   0.255   6.569   2.880 -0.0444  0.0332 -0.0063
   9923SM   H3F13450   0.340   6.561   2.950 -0.3151 -0.9639  0.2182
   9923SM   H3G13451   0.170   6.516   2.928 -0.5667 -0.4028 -1.3637
   9923SM   C4F13452   0.216   6.719   2.870 -1.1521  0.0432 -0.2004
   9923SM   H4F13453   0.166   6.730   2.772 -1.0126 -1.7496 -0.5071
   9923SM   H4G13454   0.312   6.772   2.853 -0.6064 -1.4529 -2.1418
   9923SM   C5F13455   0.143   6.779   2.990  0.4095  0.1212 -0.4492
   9923SM   H5F13456   0.061   6.708   3.016  1.0092 -0.3373  0.2417
   9923SM   H5G13457   0.104   6.882   2.980  1.6710  0.7342  0.6081
   9923SM   C6F13458   0.230   6.783   3.118  0.3325  0.3268 -0.4700
   9923SM   H6F13459   0.329   6.828   3.097 -1.4700  3.7298 -2.6663
   9923SM   H6G13460   0.243   6.680   3.156 -2.1484 -1.3367 -3.5933
   9923SM   C7F13461   0.166   6.884   3.219  0.3480  0.0934  0.2636
   9923SM   H7F13462   0.061   6.852   3.234  1.2296 -1.8970  3.3077
   9923SM   H7G13463   0.163   6.985   3.173  0.1717 -0.3232 -0.6534
   9923SM   C8F13464   0.227   6.896   3.357 -0.0507 -0.5228 -0.3794
   9923SM   H8F13465   0.322   6.954   3.352 -1.0471  1.1503 -0.3457
   9923SM   H8G13466   0.236   6.793   3.399 -2.1344 -0.7692 -0.4240
   9923SM   C9F13467   0.142   6.977   3.446  0.1031  0.6687  0.4069
   9923SM   H9F13468   0.040   6.938   3.467  0.6892 -0.9068  0.4524
   9923SM   H9G13469   0.123   7.078   3.402  0.3820  0.8271  0.6450
   9923SM  C10F13470   0.217   7.012   3.578 -0.1281  0.8957  0.0561
   9923SM  H10F13471   0.164   7.098   3.624  0.8087  1.1522  0.6907
   9923SM  H10G13472   0.319   7.053   3.562  0.8635 -1.0462  1.0329
   9923SM  C11F13473   0.232   6.892   3.669 -0.6169  0.1829  0.3230
   9923SM  H11F13474   0.284   6.809   3.616  0.0666  2.1219 -2.2343
   9923SM  H11G13475   0.133   6.863   3.710  0.0740 -1.9474  0.6290
   9923SM  C12F13476   0.321   6.921   3.799 -0.2825 -0.4505 -0.2519
   9923SM  H12F13477   0.286   7.016   3.843  0.3303 -1.4757  2.6264
   9923SM  H12G13478   0.427   6.927   3.766 -0.1952  1.7762  0.2982
   9923SM  C13F13479   0.303   6.807   3.900 -0.8299  0.0433 -0.5403
   9923SM  H13F13480   0.324   6.710   3.850  0.4338 -0.3899  0.7570
   9923SM  H13G13481   0.198   6.793   3.932 -0.4531  1.1410  1.3220
   9923SM  C14F13482   0.380   6.835   4.030 -0.4363  0.2345 -0.1479
   9923SM  H14F13483   0.488   6.857   4.010 -0.7322  0.4147 -1.7197
   9923SM  H14G13484   0.377   6.740   4.087  0.1599 -0.3275 -1.0221
   9923SM  C15F13485   0.313   6.941   4.116 -0.0982 -0.1054  0.4758
   9923SM  H15F13486   0.209   6.906   4.128  0.1141 -1.0732 -0.4031
   9923SM  H15G13487   0.304   7.043   4.073  2.7802  0.4093  0.8387
   9923SM  C16F13488   0.380   6.964   4.254  0.2503 -0.0729  0.5180
   9923SM  H16F13489   0.384   6.872   4.317 -1.4784 -0.7249 -0.2363
   9923SM  H16G13490   0.310   7.032   4.307 -2.9768 -3.7203  1.4690
   9923SM  C17F13491   0.517   7.023   4.244  0.0452 -0.4159  0.4389
   9923SM  H17F13492   0.519   7.130   4.212 -0.8466 -0.2779  0.8074
   9923SM  H17G13493   0.580   6.969   4.170  0.6912 -2.2855  2.2414
   9923SM  C18F13494   0.584   7.016   4.374  0.2608 -0.4235  0.5271
   9923SM  H18F13495   0.694   7.015   4.357  0.1846  1.8978 -0.4847
   9923SM  H18G13496   0.573   6.912   4.412  0.6088 -1.1555 -1.2549
   9923SM  C19F13497   0.556   7.124   4.475  0.1979  0.0559  0.9736
   9923SM  H19F13498   0.453   7.113   4.516 -0.1028  1.6013  0.7025
   9923SM  H19G13499   0.572   7.228   4.438  2.4500 -0.6557 -0.2063
   9923SM  C20F13500   0.664   7.114   4.585  0.7769 -0.4459  0.4988
   9923SM  H20F13501   0.763   7.091   4.540  0.4267  0.2531 -0.6742
   9923SM  H20G13502   0.632   7.022   4.640 -2.2958  0.5966  0.6560
   9923SM  C21F13503   0.678   7.236   4.676  0.3562 -0.7547 -0.5107
   9923SM  H21F13504   0.737   7.209   4.766  1.1035  1.5575 -0.2579
   9923SM  H21G13505   0.580   7.268   4.717  1.6091  1.2618  1.0768
   9923SM  C22F13506   0.734   7.374   4.619  0.6813 -0.2424  0.0250
   9923SM  H22F13507   0.690   7.363   4.518 -0.4208 -2.2695  0.6655
   9923SM  H22G13508   0.843   7.362   4.605  1.0034 -0.5895  2.3965
   9923SM  C23F13509   0.671   7.505   4.681 -0.3778  0.2509  0.4204
   9923SM  H23F13510   0.696   7.584   4.608 -0.3200  0.2713  0.4623
   9923SM  H23G13511   0.708   7.527   4.783 -0.2023  1.5981  0.0853
   9923SM  H23H13512   0.560   7.495   4.686 -0.5183  1.8951  1.4275
  10023SM     N13513   0.559   6.972   2.087  0.1486  0.0175 -0.1265
  10023SM   C1513514   0.493   6.864   2.012 -0.2180 -0.5433 -0.3098
  10023SM  H15A13515   0.490   6.883   1.906  0.1909  1.3541 -0.0240
  10023SM  H15B13516   0.391   6.846   2.045 -0.0627  0.4243  0.8040
  10023SM  H15C13517   0.549   6.773   2.029  1.6459  0.9004  2.0563
  10023SM   C1413518   0.707   6.949   2.075  0.5912 -0.2242 -0.3019
  10023SM  H14A13519   0.766   7.034   2.107 -0.2480  1.0434 -1.9949
  10023SM  H14B13520   0.732   6.946   1.970 -0.6216  0.0497 -0.6062
  10023SM  H14C13521   0.748   6.862   2.125 -2.2108 -0.3875  1.9666
  10023SM   C1313522   0.521   7.097   2.018  0.3534  0.0104 -0.0378
  10023SM  H13A13523   0.413   7.094   2.016  0.2852  1.8749 -0.5563
  10023SM  H13B13524   0.549   7.096   1.914 -0.3529  0.6141 -0.2443
  10023SM  H13C13525   0.562   7.188   2.059 -1.6338  0.6856  0.5493
  10023SM   C1213526   0.515   6.967   2.233  0.0140  0.1982  0.1151
  10023SM  H12A13527   0.575   7.039   2.287 -0.0289  0.8574 -0.7035
  10023SM  H12B13528   0.546   6.874   2.278  0.9226  1.0934  1.4238
  10023SM   C1113529   0.367   6.989   2.259  0.3077  0.3821 -0.1749
  10023SM  H11A13530   0.337   6.945   2.356 -0.3333 -0.1609 -0.6144
  10023SM  H11B13531   0.314   6.943   2.173  0.7972 -0.7382  0.1017
  10023SM     P13532   0.374   7.225   2.369 -0.1535 -0.3233 -0.4506
  10023SM   O1313533   0.515   7.211   2.403 -0.2883  0.2083  0.2922
  10023SM   O1413534   0.336   7.357   2.319 -0.0783 -0.3041  0.4419
  10023SM   O1113535   0.276   7.193   2.488 -0.1446  0.0399  0.1251
  10023SM   O1213536   0.333   7.125   2.251  0.4842 -0.2103  0.4101
  10023SM   C1S13537   0.134   7.189   2.460 -0.7000  0.0435 -0.7621
  10023SM   H1S13538   0.101   7.107   2.393 -1.0014 -1.5426  1.2260
  10023SM   H1T13539   0.099   7.284   2.414  0.4995  0.9668  0.1902
  10023SM    NF13540  -0.089   7.141   2.571 -0.1241 -0.1323  0.0621
  10023SM   HNF13541  -0.151   7.217   2.585 -0.3523 -0.4949  1.1709
  10023SM   C2S13542   0.059   7.169   2.597  0.4780  0.3668  0.3244
  10023SM   H2S13543   0.113   7.082   2.638  1.7694  1.2800  0.6263
  10023SM   C3S13544   0.080   7.297   2.688 -0.4628  0.1993 -0.1275
  10023SM   H3S13545   0.011   7.372   2.644 -0.5679 -0.1683 -0.5818
  10023SM    O313546   0.212   7.358   2.688 -0.0911 -0.1819 -0.3920
  10023SM   HO313547   0.258   7.296   2.631 -0.9135 -0.4710 -0.7514
  10023SM   C4S13548   0.019   7.298   2.832  0.1081  0.0789 -0.3755
  10023SM   H4S13549  -0.083   7.338   2.836 -0.6230 -1.8021  0.8661
  10023SM   C5S13550   0.078   7.269   2.953 -0.1402 -0.0420 -0.0613
  10023SM   H5S13551   0.182   7.232   2.949 -0.1002  0.1477 -1.1400
  10023SM   C6S13552   0.005   7.281   3.086 -0.0813  0.5749 -0.0225
  10023SM   H6S13553  -0.023   7.177   3.113  1.5020  0.4885  1.4513
  10023SM   H6T13554  -0.090   7.336   3.071 -0.8132 -0.1692  1.6650
  10023SM   C7S13555   0.107   7.339   3.191  0.4187  0.1288  0.2650
  10023SM   H7S13556   0.156   7.436   3.168 -0.5963  0.3609 -1.0658
  10023SM   H7T13557   0.187   7.263   3.207 -1.8600 -2.2529  1.0722
  10023SM   C8S13558   0.043   7.360   3.326 -0.2886  0.2755 -0.8167
  10023SM   H8S13559  -0.017   7.270   3.349 -0.6051  0.2984 -1.5008
  10023SM   H8T13560  -0.037   7.438   3.317 -1.2022 -0.6161 -0.6213
  10023SM   C9S13561   0.145   7.399   3.432 -0.1505 -0.2501  0.5144
  10023SM   H9S13562   0.192   7.496   3.405 -0.7108  0.4171  1.8308
  10023SM   H9T13563   0.232   7.331   3.441  0.1332  0.1440  0.7963
  10023SM  C10S13564   0.074   7.417   3.569  0.7403 -0.0587 -0.2806
  10023SM  H10S13565   0.029   7.319   3.600 -0.3702  0.7095  0.6362
  10023SM  H10T13566  -0.014   7.484   3.558 -1.3689 -2.9042 -2.4654
  10023SM  C11S13567   0.155   7.462   3.688  0.1546  0.1944  0.0979
  10023SM  H11S13568   0.195   7.565   3.682 -2.1364  1.2372  1.3561
  10023SM  H11T13569   0.246   7.398   3.683  0.0359  0.1097 -2.7877
  10023SM  C12S13570   0.087   7.439   3.824  0.4217  0.0827 -0.0161
  10023SM  H12S13571   0.046   7.336   3.832  0.3303  0.0862 -0.4060
  10023SM  H12T13572  -0.003   7.499   3.802 -0.7760 -2.0211 -1.2257
  10023SM  C13S13573   0.167   7.484   3.946 -0.0839 -1.0086 -0.4999
  10023SM  H13S13574   0.097   7.504   4.030  1.6903 -0.0737  0.8338
  10023SM  H13T13575   0.207   7.582   3.912  0.3045 -1.0252 -0.1121
  10023SM  C14S13576   0.284   7.400   3.986 -0.7629  0.7442  0.2273
  10023SM  H14S13577   0.376   7.433   3.932 -0.4288 -0.6095 -0.0801
  10023SM  H14T13578   0.262   7.299   3.945  0.2869 -0.3838  2.2651
  10023SM  C15S13579   0.300   7.388   4.137 -0.6509  0.5242  0.0697
  10023SM  H15S13580   0.373   7.311   4.169 -1.1877 -0.0932 -0.1855
  10023SM  H15T13581   0.203   7.358   4.181 -0.2097  1.1553  1.5394
  10023SM  C16S13582   0.339   7.518   4.200  0.3791 -0.6865 -0.4784
  10023SM  H16S13583   0.278   7.602   4.161  1.7484  0.8556  0.5498
  10023SM  H16T13584   0.443   7.538   4.168  0.1205 -0.5521 -1.2579
  10023SM  C17S13585   0.337   7.514   4.358 -0.6683  1.1287  0.4868
  10023SM  H17S13586   0.414   7.436   4.375 -1.9289 -0.8492 -2.1448
  10023SM  H17T13587   0.235   7.482   4.387  0.5455 -2.0514  1.6819
  10023SM  C18S13588   0.365   7.641   4.425 -0.3468 -0.1723 -0.2596
  10023SM  H18S13589   0.282   7.715   4.427  0.3357  0.6104 -0.0187
  10023SM  H18T13590   0.446   7.699   4.375 -0.8906  1.9790  1.2341
  10023SM  H18U13591   0.393   7.615   4.529 -0.0725 -2.2138 -0.8046
  10023SM   C1F13592  -0.132   7.021   2.525  0.4315  0.0412 -0.3285
  10023SM    OF13593  -0.047   6.939   2.493 -0.3614  0.1585 -1.0617
  10023SM   C2F13594  -0.281   6.995   2.524 -0.4392  0.1096  0.5168
  10023SM   H2F13595  -0.318   7.006   2.420  0.1097 -2.2611  0.0291
  10023SM   H2G13596  -0.330   7.071   2.589 -2.5256 -1.0209  0.3559
  10023SM   C3F13597  -0.329   6.849   2.573  0.1198 -0.5498  0.1626
  10023SM   H3F13598  -0.270   6.787   2.502  1.1189  1.5890 -0.9504
  10023SM   H3G13599  -0.437   6.845   2.549  0.3779  2.3645 -1.9687
  10023SM   C4F13600  -0.273   6.824   2.714  0.3019 -0.3104 -0.0135
  10023SM   H4F13601  -0.164   6.800   2.710 -0.1992 -3.1010  0.8999
  10023SM   H4G13602  -0.316   6.725   2.740 -0.3181 -0.0854 -0.1727
  10023SM   C5F13603  -0.290   6.935   2.822  0.3544  0.0205 -0.5337
  10023SM   H5F13604  -0.394   6.974   2.813 -0.2177 -1.5678 -1.3719
  10023SM   H5G13605  -0.209   7.010   2.809 -0.0444  0.4998 -0.2696
  10023SM   C6F13606  -0.258   6.884   2.955 -0.3553  0.7903  0.0464
  10023SM   H6F13607  -0.153   6.850   2.964 -0.1775  0.2989 -2.7778
  10023SM   H6G13608  -0.326   6.797   2.968  0.7414 -0.3754 -1.6502
  10023SM   C7F13609  -0.285   6.982   3.068 -0.6014 -0.1435 -0.4857
  10023SM   H7F13610  -0.386   7.027   3.062 -0.9530 -0.3490  2.2742
  10023SM   H7G13611  -0.225   7.076   3.068 -0.3728 -0.2873 -0.0726
  10023SM   C8F13612  -0.284   6.912   3.207 -0.3269 -0.1635  0.6154
  10023SM   H8F13613  -0.186   6.861   3.223 -0.1897  0.2998  1.3111
  10023SM   H8G13614  -0.364   6.836   3.220 -0.9940  0.5521  0.7874
  10023SM   C9F13615  -0.291   7.015   3.325 -0.0749  0.1720 -0.7584
  10023SM   H9F13616  -0.387   7.071   3.323 -0.9277 -1.2161 -0.1783
  10023SM   H9G13617  -0.203   7.082   3.324  1.7529 -2.0307  0.9429
  10023SM  C10F13618  -0.277   6.938   3.456 -0.1006 -0.4700 -0.3650
  10023SM  H10F13619  -0.186   6.875   3.450 -0.6307 -1.5539  1.8012
  10023SM  H10G13620  -0.363   6.870   3.472 -0.7840  0.1881 -1.1704
  10023SM  C11F13621  -0.263   7.038   3.570 -0.2375 -0.4727  0.5837
  10023SM  H11F13622  -0.356   7.098   3.581  0.4915  1.1889 -1.5813
  10023SM  H11G13623  -0.188   7.113   3.535 -1.4445  0.6672  0.3286
  10023SM  C12F13624  -0.219   6.968   3.693 -0.7671 -0.0388 -0.5388
  10023SM  H12F13625  -0.116   6.928   3.682 -0.2276  1.5089 -1.4027
  10023SM  H12G13626  -0.273   6.872   3.703 -0.5892 -0.6369 -3.9602
  10023SM  C13F13627  -0.225   7.056   3.824  0.1931  1.3028  0.5650
  10023SM  H13F13628  -0.334   7.058   3.846 -0.1222 -1.8865 -0.1954
  10023SM  H13G13629  -0.187   7.156   3.795  3.1482 -0.3812 -1.9617
  10023SM  C14F13630  -0.157   6.996   3.943  0.5833 -0.5995 -0.2695
  10023SM  H14F13631  -0.054   6.968   3.910  0.6805  1.5830 -2.0589
  10023SM  H14G13632  -0.216   6.905   3.970 -0.0648  0.2026  1.1295
  10023SM  C15F13633  -0.146   7.083   4.075 -0.5663 -0.1664 -0.2465
  10023SM  H15F13634  -0.250   7.122   4.078 -0.9868 -1.1334 -1.1811
  10023SM  H15G13635  -0.088   7.170   4.038 -1.2028  1.7145  2.8886
  10023SM  C16F13636  -0.094   7.026   4.208  0.1401 -0.0083 -0.1902
  10023SM  H16F13637  -0.004   6.981   4.161 -0.2618 -0.6186 -0.3882
  10023SM  H16G13638  -0.145   6.940   4.256 -1.1552  0.6372 -0.3655
  10023SM  C17F13639  -0.056   7.130   4.310 -0.0641  0.1815 -0.2201
  10023SM  H17F13640  -0.152   7.178   4.337  0.2074  0.9401 -0.5780
  10023SM  H17G13641   0.017   7.209   4.282 -0.2553  0.1154 -0.9230
  10023SM  C18F13642   0.001   7.053   4.434 -0.0717  0.4968  0.3358
  10023SM  H18F13643   0.095   7.000   4.407 -0.1179 -0.0264  1.1936
  10023SM  H18G13644  -0.070   6.980   4.478  1.4581 -0.3814  1.4122
  10023SM  C19F13645   0.040   7.147   4.554  0.0845  0.2526  0.2939
  10023SM  H19F13646  -0.063   7.188   4.566 -1.2279 -2.2084 -1.4879
  10023SM  H19G13647   0.107   7.232   4.528  1.0678 -0.3110  0.9086
  10023SM  C20F13648   0.094   7.077   4.679 -0.0138  0.0770 -0.0366
  10023SM  H20F13649   0.028   6.988   4.691  1.2906 -0.7300  1.7066
  10023SM  H20G13650   0.076   7.146   4.764 -2.5800 -0.1870 -0.3010
  10023SM  C21F13651   0.240   7.049   4.681  0.3637 -0.3728  0.5665
  10023SM  H21F13652   0.299   7.142   4.696 -0.0981 -0.5422  4.3063
  10023SM  H21G13653   0.280   7.019   4.582  0.2708  0.8035  0.1580
  10023SM  C22F13654   0.272   6.944   4.782  0.0820 -0.2335 -0.9322
  10023SM  H22F13655   0.217   6.851   4.754 -1.2226  0.0842  0.4408
  10023SM  H22G13656   0.235   6.979   4.881 -1.1129 -0.0873 -1.4118
  10023SM  C23F13657   0.423   6.909   4.778 -0.1270 -0.3182  0.1140
  10023SM  H23F13658   0.455   6.819   4.836 -0.7668  0.2307  1.3587
  10023SM  H23G13659   0.476   6.986   4.837 -1.2527  1.6536 -1.3383
  10023SM  H23H13660   0.461   6.892   4.675 -3.0463  1.9115 -1.4886
  101CHL1    C313661   3.450   6.044   6.719  0.8256  0.4482 -0.3503
  101CHL1    H313662   3.503   5.947   6.730 -1.4746 -0.9526 -0.8722
  101CHL1    O313663   3.371   6.064   6.837  0.0396 -0.3054 -0.0380
  101CHL1   H3'13664   3.297   6.120   6.812 -0.2187  0.7406  2.7594
  101CHL1    C413665   3.563   6.153   6.729  0.4214  0.3207  0.5000
  101CHL1   H4A13666   3.509   6.248   6.746  0.3876  0.2486  0.8050
  101CHL1   H4B13667   3.621   6.130   6.821 -0.1995  0.4032  0.9166
  101CHL1    C513668   3.649   6.150   6.604  0.1257  0.0499  0.0918
  101CHL1    C613669   3.786   6.128   6.605  0.5994 -0.0799  0.2972
  101CHL1    H613670   3.834   6.130   6.704  2.0555  2.8281 -0.3541
  101CHL1    C713671   3.882   6.117   6.488  0.0117 -0.5987  0.0058
  101CHL1   H7A13672   3.966   6.190   6.502  0.7390 -1.1911 -1.1135
  101CHL1   H7B13673   3.922   6.014   6.482  2.6353  0.3715 -1.1113
  101CHL1    C813674   3.817   6.160   6.354  0.7149  0.3304  0.5214
  101CHL1    H813675   3.805   6.270   6.363 -1.4380  0.1138  0.6193
  101CHL1   C1413676   3.905   6.130   6.226 -0.3416 -0.7045 -0.3380
  101CHL1   H1413677   3.930   6.022   6.226  2.4862 -0.2422 -3.9364
  101CHL1   C1513678   4.045   6.204   6.211  0.4648  0.9066  0.5678
  101CHL1  H15A13679   4.037   6.306   6.256 -1.2886  0.7789  0.5926
  101CHL1  H15B13680   4.118   6.143   6.270  1.5445  1.0604 -0.5693
  101CHL1   C1613681   4.072   6.202   6.064  0.0348 -0.5060  0.4282
  101CHL1  H16A13682   4.067   6.308   6.031 -2.6814 -0.3313  1.1475
  101CHL1  H16B13683   4.165   6.150   6.034  0.7160  1.1399 -0.4578
  101CHL1   C1713684   3.947   6.135   5.991  0.1476  0.6242  0.3076
  101CHL1   H1713685   3.964   6.025   5.987 -1.0888  0.4523 -1.0954
  101CHL1   C1313686   3.832   6.154   6.092 -0.3456 -0.4955  0.4346
  101CHL1   C1813687   3.793   6.304   6.080 -0.1844  0.5648 -0.3426
  101CHL1  H18A13688   3.747   6.324   5.980  2.9250  0.7525 -1.8656
  101CHL1  H18B13689   3.732   6.340   6.166 -0.1464  0.3744 -0.2367
  101CHL1  H18C13690   3.882   6.368   6.064 -0.0276  0.2684 -0.6761
  101CHL1   C1213691   3.705   6.057   6.098  0.2519  0.5365  0.1275
  101CHL1  H12A13692   3.655   6.076   6.001 -1.3174 -2.2120  0.2913
  101CHL1  H12B13693   3.743   5.952   6.104  1.2006  0.8408 -0.3694
  101CHL1   C1113694   3.605   6.089   6.206 -0.0235  0.0284 -0.2732
  101CHL1  H11A13695   3.553   6.179   6.167 -0.7802 -1.2233 -2.2963
  101CHL1  H11B13696   3.534   6.004   6.206  0.9881 -0.8496  0.6943
  101CHL1    C913697   3.670   6.100   6.353  0.2124  0.1342  0.3746
  101CHL1    H913698   3.690   5.993   6.377 -0.2098 -0.3208 -1.1637
  101CHL1   C1013699   3.577   6.150   6.468  0.0246 -0.3240 -0.3666
  101CHL1   C1913700   3.538   6.304   6.454 -0.4880  0.8068  0.7024
  101CHL1  H19A13701   3.472   6.331   6.540  0.5322 -2.2353  2.6005
  101CHL1  H19B13702   3.631   6.364   6.450 -1.6546  2.6535 -1.1330
  101CHL1  H19C13703   3.481   6.319   6.360  0.6887  1.8840  0.1267
  101CHL1    C113704   3.453   6.062   6.468  0.5940 -0.0197  0.8189
  101CHL1   H1A13705   3.399   6.077   6.372 -0.7723 -0.1315  1.5419
  101CHL1   H1B13706   3.481   5.955   6.461 -2.1109 -0.8498  1.4183
  101CHL1    C213707   3.368   6.078   6.594  0.6084 -0.2249  0.1925
  101CHL1   H2A13708   3.275   6.017   6.592  0.1004  0.5386 -0.2953
  101CHL1   H2B13709   3.342   6.186   6.605 -0.4624 -0.5209  0.7085
  101CHL1   C2013710   3.927   6.185   5.849 -0.5338 -0.6821  0.1908
  101CHL1   H2013711   3.894   6.291   5.852  0.7016 -0.2819  0.3750
  101CHL1   C2113712   3.819   6.104   5.780 -0.4507 -0.0054  0.2166
  101CHL1  H21A13713   3.836   5.997   5.803 -1.3855 -0.5604 -1.5407
  101CHL1  H21B13714   3.819   6.123   5.671 -2.5818  0.9805  0.3424
  101CHL1  H21C13715   3.720   6.142   5.813 -0.1487  1.7364 -0.7832
  101CHL1   C2213716   4.056   6.189   5.764  0.2923  0.4984  0.4458
  101CHL1  H22A13717   4.034   6.237   5.667  0.0814 -1.1194 -0.3401
  101CHL1  H22B13718   4.136   6.256   5.804  0.6681  1.0502 -1.1598
  101CHL1   C2313719   4.121   6.049   5.743 -0.7783  0.0502  0.5067
  101CHL1  H23A13720   4.173   6.005   5.830  1.1844  1.1729 -0.0264
  101CHL1  H23B13721   4.042   5.980   5.707 -1.5263  0.0098  2.1340
  101CHL1   C2413722   4.234   6.071   5.633 -0.3728  0.3514 -0.1372
  101CHL1  H24A13723   4.212   6.164   5.577  0.6175  0.0715 -1.0440
  101CHL1  H24B13724   4.330   6.091   5.686 -0.2376 -2.2286  0.7559
  101CHL1   C2513725   4.255   5.959   5.534 -1.2403 -0.4575 -0.2066
  101CHL1   H2513726   4.167   5.942   5.467 -0.7483 -2.3003 -0.4524
  101CHL1   C2613727   4.379   5.995   5.448 -0.2926  0.1182  0.1396
  101CHL1  H26A13728   4.458   6.038   5.514 -1.4459  2.1277  0.2892
  101CHL1  H26B13729   4.422   5.913   5.387  2.0698 -0.3209  2.2180
  101CHL1  H26C13730   4.339   6.066   5.373  0.7562  0.3310 -0.2399
  101CHL1   C2713731   4.282   5.829   5.611 -0.6483  0.7588  0.2063
  101CHL1  H27A13732   4.364   5.849   5.683 -1.1473  2.2622  0.4023
  101CHL1  H27B13733   4.194   5.798   5.672  0.7575 -0.7787  1.5415
  101CHL1  H27C13734   4.312   5.749   5.541  1.9291  2.3649 -0.6708
  102CHL1    C313735   2.111   3.622   6.227 -0.7632  0.1055  0.0909
  102CHL1    H313736   2.191   3.546   6.219 -0.9312 -0.2175  1.2680
  102CHL1    O313737   2.111   3.670   6.360  0.3538 -0.4823 -0.8139
  102CHL1   H3'13738   2.056   3.603   6.401  0.2624  0.7448  1.1832
  102CHL1    C413739   2.147   3.739   6.138  0.2838  0.1976  0.1267
  102CHL1   H4A13740   2.066   3.811   6.162  1.8185  1.3348  2.2082
  102CHL1   H4B13741   2.240   3.788   6.174 -1.2969  0.8741  3.7369
  102CHL1    C513742   2.157   3.703   5.993  0.2183 -0.4497  0.3135
  102CHL1    C613743   2.265   3.731   5.916  0.1533  0.0374 -0.1247
  102CHL1    H613744   2.348   3.790   5.956 -0.0121  0.2178 -0.0470
  102CHL1    C713745   2.271   3.691   5.773 -0.0753 -0.3326 -0.2965
  102CHL1   H7A13746   2.299   3.785   5.720  0.6791  0.9237  2.1617
  102CHL1   H7B13747   2.347   3.610   5.766 -0.9329 -1.0222 -2.5755
  102CHL1    C813748   2.131   3.656   5.710  0.4802 -0.5472 -0.5798
  102CHL1    H813749   2.090   3.759   5.700 -1.2846 -1.0001  1.2266
  102CHL1   C1413750   2.148   3.584   5.569  0.2479 -0.7405 -0.0702
  102CHL1   H1413751   2.190   3.484   5.592  0.9467 -0.8744 -1.8213
  102CHL1   C1513752   2.245   3.646   5.461  0.6673  0.2431  0.2140
  102CHL1  H15A13753   2.240   3.756   5.467  0.8367  0.2130  0.9570
  102CHL1  H15B13754   2.344   3.602   5.486  0.1127 -0.8172  0.6151
  102CHL1   C1613755   2.190   3.591   5.330  0.4465  0.2494 -0.7253
  102CHL1  H16A13756   2.153   3.668   5.259 -1.4871 -1.3564 -1.5788
  102CHL1  H16B13757   2.269   3.534   5.276 -0.1072  0.2500 -1.5638
  102CHL1   C1713758   2.075   3.489   5.369 -0.2033  0.7447 -0.4528
  102CHL1   H1713759   2.122   3.396   5.408 -0.5487  0.6503 -0.2517
  102CHL1   C1313760   2.020   3.552   5.504  0.3544 -0.1322 -1.1549
  102CHL1   C1813761   1.947   3.685   5.466  0.5998 -0.5325  0.1829
  102CHL1  H18A13762   1.992   3.747   5.386  1.5397 -0.4614  0.7506
  102CHL1  H18B13763   1.843   3.653   5.442  1.3049 -0.4572 -3.5549
  102CHL1  H18C13764   1.937   3.750   5.556 -2.3604 -0.2349 -0.2506
  102CHL1   C1213765   1.940   3.455   5.593 -0.2427 -0.5398 -0.5658
  102CHL1  H12A13766   1.841   3.438   5.546 -0.9129  1.4059  0.0533
  102CHL1  H12B13767   1.997   3.360   5.609  1.4215  0.2869 -1.2978
  102CHL1   C1113768   1.919   3.517   5.731 -0.3953 -0.1112  0.3604
  102CHL1  H11A13769   1.852   3.601   5.703  0.7715 -0.5171 -4.6627
  102CHL1  H11B13770   1.865   3.453   5.804  0.3673  0.6373  1.5990
  102CHL1    C913771   2.048   3.566   5.801 -0.9693 -0.2659  0.0310
  102CHL1    H913772   2.109   3.475   5.815  0.5097  0.2133 -2.5973
  102CHL1   C1013773   2.023   3.634   5.941 -0.2505  0.8657 -0.2014
  102CHL1   C1913774   1.897   3.730   5.929  0.0157 -0.2694  0.3062
  102CHL1  H19A13775   1.920   3.808   5.853  0.8576  0.4402  1.2562
  102CHL1  H19B13776   1.803   3.682   5.893 -0.0420  1.4103 -2.0068
  102CHL1  H19C13777   1.870   3.795   6.015 -1.3449  0.3334 -0.5367
  102CHL1    C113778   1.984   3.520   6.039 -0.6610 -0.1729  0.7734
  102CHL1   H1A13779   1.881   3.488   6.013 -1.3292  1.2915  1.5143
  102CHL1   H1B13780   2.055   3.436   6.023 -0.4719  0.1663 -0.2247
  102CHL1    C213781   1.979   3.561   6.188 -0.3893 -0.6788  1.3406
  102CHL1   H2A13782   1.964   3.470   6.250 -0.2855 -1.5473  0.1273
  102CHL1   H2B13783   1.892   3.627   6.208  0.0225 -0.1614  1.4625
  102CHL1   C2013784   1.971   3.450   5.264 -0.0684 -0.3392 -0.0035
  102CHL1   H2013785   1.885   3.520   5.267  1.5558  1.7434  0.6121
  102CHL1   C2113786   1.908   3.316   5.300  0.1987  0.7685  0.8697
  102CHL1  H21A13787   1.907   3.292   5.408 -0.1570 -0.1971  0.6559
  102CHL1  H21B13788   1.968   3.238   5.248 -1.9591  1.5069 -3.1127
  102CHL1  H21C13789   1.810   3.314   5.247  1.2315 -0.4205 -1.1238
  102CHL1   C2213790   2.021   3.449   5.118  0.3681  0.1524 -0.4062
  102CHL1  H22A13791   2.069   3.544   5.088  1.5365 -0.4226 -0.4223
  102CHL1  H22B13792   2.106   3.378   5.110  0.9137  0.9475 -2.0562
  102CHL1   C2313793   1.925   3.396   5.014 -0.1391  0.2524 -0.8928
  102CHL1  H23A13794   1.899   3.288   5.023  0.6592 -0.0302 -1.8009
  102CHL1  H23B13795   1.828   3.448   5.013  0.1004  0.7065 -0.6318
  102CHL1   C2413796   1.998   3.412   4.872  0.4060  0.3203 -0.0994
  102CHL1  H24A13797   2.046   3.512   4.867  1.1141 -0.0549 -3.0273
  102CHL1  H24B13798   2.090   3.350   4.871  0.6800  0.7236 -0.0601
  102CHL1   C2513799   1.915   3.380   4.750  0.1067 -1.3457 -0.2090
  102CHL1   H2513800   1.841   3.462   4.745  0.8926 -0.3354  2.7353
  102CHL1   C2613801   2.009   3.385   4.626  0.9645  0.0934 -0.5883
  102CHL1  H26A13802   2.039   3.488   4.597  1.8996  0.0087  0.0462
  102CHL1  H26B13803   2.099   3.323   4.643  1.6005  1.3679  0.9058
  102CHL1  H26C13804   1.953   3.347   4.537 -1.0102  0.5321  0.4024
  102CHL1   C2713805   1.843   3.248   4.744  0.1654  0.0275 -0.1712
  102CHL1  H27A13806   1.801   3.213   4.841 -0.6334  2.0971  0.2725
  102CHL1  H27B13807   1.771   3.246   4.660 -1.0071 -0.1446  0.8039
  102CHL1  H27C13808   1.918   3.168   4.725 -0.9050 -1.3931  1.3001
  103CHL1    C313809   1.546   3.925   6.195 -0.0974  0.1619 -0.7658
  103CHL1    H313810   1.628   3.855   6.169 -1.6019 -1.1430 -2.3378
  103CHL1    O313811   1.524   3.941   6.332 -0.0072 -0.5810 -0.0573
  103CHL1   H3'13812   1.499   4.033   6.336 -1.5838 -1.0056  0.2763
  103CHL1    C413813   1.566   4.062   6.127  0.0766 -0.4841  0.2559
  103CHL1   H4A13814   1.473   4.121   6.141  0.8915  0.9366 -0.0721
  103CHL1   H4B13815   1.641   4.122   6.183  0.0419 -0.5082  0.3277
  103CHL1    C513816   1.597   4.048   5.979  0.5520  0.7199  0.2705
  103CHL1    C613817   1.706   4.093   5.918  1.0440  0.1252  0.1842
  103CHL1    H613818   1.772   4.160   5.976  0.7114  1.1782 -0.6286
  103CHL1    C713819   1.732   4.082   5.774  0.1222  0.1763 -0.3993
  103CHL1   H7A13820   1.761   4.182   5.734  0.4187 -0.0315 -0.7193
  103CHL1   H7B13821   1.814   4.007   5.770 -1.0502 -1.2999  1.6638
  103CHL1    C813822   1.611   4.031   5.690 -0.3206  0.4139  0.1243
  103CHL1    H813823   1.543   4.118   5.680  0.3042  1.1992  2.2183
  103CHL1   C1413824   1.666   3.991   5.554 -0.8715 -0.4489  0.2135
  103CHL1   H1413825   1.756   3.926   5.557  0.5870  1.4555 -0.1489
  103CHL1   C1513826   1.722   4.102   5.464 -0.0109 -0.1067 -0.7864
  103CHL1  H15A13827   1.661   4.194   5.475  0.5052  0.0144  1.6002
  103CHL1  H15B13828   1.823   4.135   5.494 -0.6897  1.0641  0.3060
  103CHL1   C1613829   1.721   4.046   5.322  0.2296 -0.1955 -0.0054
  103CHL1  H16A13830   1.657   4.109   5.257 -2.2563 -1.0423  1.4824
  103CHL1  H16B13831   1.826   4.025   5.292  0.5393  1.2306  0.0285
  103CHL1   C1713832   1.647   3.908   5.345  0.3554  0.0695  0.1881
  103CHL1   H1713833   1.721   3.833   5.381 -1.7587 -1.4088  1.7205
  103CHL1   C1313834   1.561   3.921   5.475 -0.5495  0.5447  0.0512
  103CHL1   C1813835   1.435   4.004   5.450 -0.3464  0.2574  0.0783
  103CHL1  H18A13836   1.377   4.038   5.538 -0.8902  0.8168 -0.4771
  103CHL1  H18B13837   1.452   4.098   5.394  0.5275  0.0067 -0.0848
  103CHL1  H18C13838   1.363   3.943   5.390  0.7983 -0.1974 -0.8869
  103CHL1   C1213839   1.516   3.792   5.542 -0.1288  0.2982 -0.7239
  103CHL1  H12A13840   1.440   3.743   5.477 -2.0347  1.6029  0.4229
  103CHL1  H12B13841   1.604   3.727   5.558  2.0380  2.3958 -3.0947
  103CHL1   C1113842   1.456   3.817   5.681  0.3499  0.4406 -0.2305
  103CHL1  H11A13843   1.362   3.873   5.661  1.0647  2.9388  2.7318
  103CHL1  H11B13844   1.428   3.724   5.735 -1.1411  0.6038 -0.6720
  103CHL1    C913845   1.548   3.908   5.768  0.1100 -0.3710 -0.4154
  103CHL1    H913846   1.634   3.842   5.792 -0.6004 -1.0335  0.3778
  103CHL1   C1013847   1.492   3.955   5.912  0.2959 -0.0638 -0.0197
  103CHL1   C1913848   1.362   4.033   5.886  0.1079 -0.0760 -0.4270
  103CHL1  H19A13849   1.315   4.078   5.976 -0.2336 -0.3224 -0.4813
  103CHL1  H19B13850   1.384   4.121   5.822  3.2235  1.1772  2.0802
  103CHL1  H19C13851   1.287   3.971   5.833  0.2839  0.1573 -0.9527
  103CHL1    C113852   1.461   3.831   5.994  0.3404 -0.3361  0.1281
  103CHL1   H1A13853   1.380   3.775   5.942  1.4698 -0.7948 -1.2265
  103CHL1   H1B13854   1.533   3.746   5.995 -0.2784 -0.8622  1.3845
  103CHL1    C213855   1.424   3.857   6.140  0.4667  0.2674 -0.0001
  103CHL1   H2A13856   1.400   3.759   6.187 -1.8296  1.3308  1.2220
  103CHL1   H2B13857   1.331   3.916   6.151  0.7024  0.5539  0.4733
  103CHL1   C2013858   1.571   3.849   5.230  0.0110  1.1735  0.9592
  103CHL1   H2013859   1.481   3.793   5.261 -1.3116  1.7197 -1.6627
  103CHL1   C2113860   1.673   3.747   5.172 -0.8058 -0.5739 -0.7348
  103CHL1  H21A13861   1.775   3.786   5.150 -1.4453  1.6779 -0.0175
  103CHL1  H21B13862   1.627   3.708   5.079 -0.4457 -0.7334 -0.8466
  103CHL1  H21C13863   1.675   3.656   5.237 -1.7193 -1.4246 -1.8536
  103CHL1   C2213864   1.513   3.938   5.122 -0.2905 -0.3149 -0.3415
  103CHL1  H22A13865   1.459   4.021   5.174 -1.9025 -1.7479  0.3751
  103CHL1  H22B13866   1.597   3.969   5.057  0.4014  0.2590  0.7958
  103CHL1   C2313867   1.415   3.867   5.031  0.0962 -0.0449  0.0511
  103CHL1  H23A13868   1.461   3.773   4.994  1.1335  0.9235 -1.2132
  103CHL1  H23B13869   1.313   3.862   5.074  0.0187 -2.2612 -0.2965
  103CHL1   C2413870   1.396   3.964   4.910 -0.4937  0.1198 -0.0754
  103CHL1  H24A13871   1.325   4.043   4.943 -2.3087 -0.6841 -1.8370
  103CHL1  H24B13872   1.495   4.006   4.883 -0.8564 -0.3754 -2.3717
  103CHL1   C2513873   1.349   3.901   4.777  0.4969 -0.7088  0.2452
  103CHL1   H2513874   1.407   3.806   4.773 -0.4079 -1.2634 -0.1749
  103CHL1   C2613875   1.201   3.852   4.769 -0.3045 -0.0189 -0.7219
  103CHL1  H26A13876   1.178   3.819   4.665  0.6741 -0.6356 -0.7542
  103CHL1  H26B13877   1.195   3.763   4.836  2.3782  0.4199  0.2215
  103CHL1  H26C13878   1.134   3.934   4.801  1.3841  0.6446  1.3592
  103CHL1   C2713879   1.392   3.989   4.665  0.0251 -0.1601  0.0956
  103CHL1  H27A13880   1.489   4.041   4.674  0.4145 -0.7583 -0.5023
  103CHL1  H27B13881   1.401   3.946   4.563  1.9924  0.7168 -0.1364
  103CHL1  H27C13882   1.316   4.069   4.651  3.4003  2.9090 -2.3407
  104CHL1    C313883   6.366   3.737   7.188 -0.5220  0.4247 -0.5941
  104CHL1    H313884   6.375   3.627   7.197  0.9140  0.5531 -0.1857
  104CHL1    O313885   6.357   3.800   7.314  0.7162 -0.6595 -0.0734
  104CHL1   H3'13886   6.293   3.747   7.362 -1.1183 -0.2796 -1.9920
  104CHL1    C413887   6.495   3.772   7.118  0.2601  0.3414 -0.8399
  104CHL1   H4A13888   6.498   3.883   7.123 -1.4285  0.4120 -0.7789
  104CHL1   H4B13889   6.582   3.729   7.172  0.1260  0.5871 -0.4277
  104CHL1    C513890   6.510   3.725   6.975 -0.0314 -0.4002  0.1652
  104CHL1    C613891   6.621   3.667   6.929 -0.5775  0.7473 -0.3231
  104CHL1    H613892   6.704   3.661   7.001 -0.2838  0.9589 -0.6411
  104CHL1    C713893   6.636   3.604   6.789 -0.3627  0.4153  0.2855
  104CHL1   H7A13894   6.738   3.631   6.755 -0.5577 -0.0053 -0.6716
  104CHL1   H7B13895   6.645   3.493   6.792 -0.5187  0.3677 -0.6483
  104CHL1    C813896   6.526   3.650   6.688  0.4277 -0.1682 -0.2966
  104CHL1    H813897   6.551   3.754   6.659  0.7154  0.1934  1.1657
  104CHL1   C1413898   6.518   3.563   6.565  0.2090 -0.1413  0.3410
  104CHL1   H1413899   6.473   3.468   6.600  2.4769 -0.7697  1.7001
  104CHL1   C1513900   6.649   3.530   6.493 -0.0272  0.2134  0.0701
  104CHL1  H15A13901   6.712   3.620   6.482 -0.4543  0.3220 -1.7454
  104CHL1  H15B13902   6.703   3.454   6.553 -1.4645 -1.7164 -0.9565
  104CHL1   C1613903   6.606   3.480   6.353  0.1993 -0.1855 -0.6253
  104CHL1  H16A13904   6.666   3.537   6.279 -1.2204  1.5751 -0.4713
  104CHL1  H16B13905   6.629   3.372   6.338  0.7651 -0.4178  1.6768
  104CHL1   C1713906   6.453   3.511   6.344 -0.5373 -0.2767  0.1551
  104CHL1   H1713907   6.408   3.413   6.371  2.1302 -1.5623  0.2974
  104CHL1   C1313908   6.425   3.610   6.454  0.1866 -0.7769  0.5076
  104CHL1   C1813909   6.465   3.754   6.406  0.7454 -0.4700 -0.0078
  104CHL1  H18A13910   6.563   3.754   6.352  0.6413  3.0080 -0.4602
  104CHL1  H18B13911   6.389   3.798   6.338 -0.9795 -0.4709  1.8526
  104CHL1  H18C13912   6.461   3.827   6.490 -0.4675 -1.3706  0.7344
  104CHL1   C1213913   6.289   3.611   6.516 -0.2679  0.4602  0.0384
  104CHL1  H12A13914   6.212   3.652   6.447 -0.5775  0.3810  0.3342
  104CHL1  H12B13915   6.264   3.505   6.537  1.5010  0.1528  0.6923
  104CHL1   C1113916   6.282   3.697   6.646  0.0257 -0.7755 -0.0553
  104CHL1  H11A13917   6.308   3.800   6.616 -0.3892  0.0039  2.0953
  104CHL1  H11B13918   6.177   3.698   6.682  0.7412 -0.7767  2.1827
  104CHL1    C913919   6.385   3.660   6.755 -0.2470  0.5065 -0.6137
  104CHL1    H913920   6.359   3.555   6.778 -1.3696  0.8208 -0.4046
  104CHL1   C1013921   6.386   3.752   6.890 -0.0794  0.4899  0.4291
  104CHL1   C1913922   6.366   3.901   6.847  0.6706  0.1392 -0.4489
  104CHL1  H19A13923   6.265   3.908   6.801 -0.5684 -2.8934  1.4571
  104CHL1  H19B13924   6.363   3.964   6.939 -0.8298 -0.3318 -0.1550
  104CHL1  H19C13925   6.444   3.941   6.779  0.5554  0.8499 -0.1706
  104CHL1    C113926   6.254   3.706   6.967  0.3708 -0.5833  0.5953
  104CHL1   H1A13927   6.165   3.711   6.900  0.0377  0.5491  1.1019
  104CHL1   H1B13928   6.267   3.596   6.975  2.0630 -0.7303 -2.3805
  104CHL1    C213929   6.237   3.761   7.102 -0.3370 -0.0359  0.0162
  104CHL1   H2A13930   6.150   3.708   7.145 -1.7738  0.1245 -2.5189
  104CHL1   H2B13931   6.225   3.871   7.094 -1.7838  0.1884  3.4269
  104CHL1   C2013932   6.403   3.532   6.199  0.2347 -0.4785  0.1500
  104CHL1   H2013933   6.457   3.617   6.152 -0.3500 -0.2226 -0.0782
  104CHL1   C2113934   6.255   3.554   6.190  0.4477  0.2882  0.4167
  104CHL1  H21A13935   6.232   3.649   6.242  2.0859 -0.1494  2.0201
  104CHL1  H21B13936   6.207   3.478   6.255 -0.4866  2.8342  2.9245
  104CHL1  H21C13937   6.210   3.538   6.089  0.3721 -2.9253  0.8733
  104CHL1   C2213938   6.430   3.412   6.107 -0.1405  0.7285 -0.0187
  104CHL1  H22A13939   6.532   3.374   6.129 -0.9321 -2.3644 -1.1542
  104CHL1  H22B13940   6.363   3.330   6.140 -0.4229  0.9869  0.0478
  104CHL1   C2313941   6.413   3.438   5.960  0.2051  0.4752  0.2443
  104CHL1  H23A13942   6.308   3.435   5.924 -0.0056  1.0999  0.7977
  104CHL1  H23B13943   6.445   3.543   5.940 -2.3569  1.1477 -0.6883
  104CHL1   C2413944   6.501   3.342   5.876  0.2865  0.2231 -0.1582
  104CHL1  H24A13945   6.606   3.346   5.912 -1.2638  0.5730  5.3814
  104CHL1  H24B13946   6.460   3.242   5.902  0.4435  1.0118  3.7165
  104CHL1   C2513947   6.502   3.372   5.725  0.6511 -0.3617 -0.3181
  104CHL1   H2513948   6.508   3.479   5.698 -0.4481 -0.3510 -0.5963
  104CHL1   C2613949   6.630   3.317   5.655  0.4558  0.4041  0.1982
  104CHL1  H26A13950   6.621   3.324   5.545  0.7879  1.7323  0.2427
  104CHL1  H26B13951   6.718   3.378   5.685  1.7598 -0.8308 -0.9368
  104CHL1  H26C13952   6.633   3.208   5.681  0.3492  0.3863  0.1327
  104CHL1   C2713953   6.375   3.302   5.658 -0.6406  0.2679 -0.1262
  104CHL1  H27A13954   6.278   3.341   5.696  0.4171  0.7557  2.2748
  104CHL1  H27B13955   6.384   3.305   5.548 -0.4284  0.9866 -0.0950
  104CHL1  H27C13956   6.381   3.193   5.678 -1.5000  0.1275 -0.6137
  105CHL1    C313957   0.037   3.611   7.003 -0.0896 -0.2343  0.1939
  105CHL1    H313958  -0.049   3.541   7.001 -0.0317 -0.3683  1.5825
  105CHL1    O313959   0.061   3.668   7.131 -0.1978  0.4207 -0.0968
  105CHL1   H3'13960   0.142   3.720   7.129 -1.2276  2.1438  0.6867
  105CHL1    C413961   0.162   3.531   6.959 -0.0529  0.3027 -0.1817
  105CHL1   H4A13962   0.251   3.596   6.977  0.6879 -0.5184 -0.7569
  105CHL1   H4B13963   0.170   3.447   7.032 -0.9493  0.7130  0.4122
  105CHL1    C513964   0.160   3.492   6.810  0.4241 -0.4693 -0.2100
  105CHL1    C613965   0.177   3.367   6.769  0.1912 -0.1221  0.0026
  105CHL1    H613966   0.188   3.287   6.843  2.2469  0.2762  0.1837
  105CHL1    C713967   0.198   3.320   6.625  0.4160  0.4482 -0.6612
  105CHL1   H7A13968   0.289   3.258   6.609  0.3186  0.4245 -1.1428
  105CHL1   H7B13969   0.117   3.251   6.594 -0.8065 -0.1284  3.2222
  105CHL1    C813970   0.213   3.439   6.532  0.0704 -0.1875 -0.6458
  105CHL1    H813971   0.320   3.469   6.537  0.3087 -0.6753 -2.1380
  105CHL1   C1413972   0.189   3.395   6.389 -0.2259  0.2630 -0.4819
  105CHL1   H1413973   0.084   3.364   6.377 -0.1927  0.1607 -0.5071
  105CHL1   C1513974   0.267   3.269   6.338  0.9595 -0.0165 -0.0307
  105CHL1  H15A13975   0.376   3.280   6.358  1.1386  2.0967 -1.7463
  105CHL1  H15B13976   0.223   3.179   6.386 -0.3448  0.3298 -0.5172
  105CHL1   C1613977   0.255   3.279   6.182 -0.6130  0.4775  0.7843
  105CHL1  H16A13978   0.347   3.274   6.120 -0.5074  0.5611  0.9345
  105CHL1  H16B13979   0.189   3.199   6.141  0.5773  0.8780 -2.2170
  105CHL1   C1713980   0.180   3.416   6.153  0.5947 -0.3788 -0.9951
  105CHL1   H1713981   0.070   3.398   6.159  0.6349 -1.3588 -2.4954
  105CHL1   C1313982   0.202   3.500   6.278 -0.5274 -0.2424  0.3595
  105CHL1   C1813983   0.342   3.552   6.274  0.4380 -0.8553 -0.0164
  105CHL1  H18A13984   0.372   3.614   6.361 -0.0190  2.1269 -1.8539
  105CHL1  H18B13985   0.424   3.477   6.272  0.6178 -0.6782  0.5020
  105CHL1  H18C13986   0.357   3.629   6.195 -1.5571 -0.9795 -0.5495
  105CHL1   C1213987   0.094   3.615   6.318 -0.6155  0.3127  0.1595
  105CHL1  H12A13988   0.102   3.699   6.246 -0.2587  0.6303  0.5629
  105CHL1  H12B13989  -0.009   3.572   6.310 -0.6927  0.2953  1.1315
  105CHL1   C1113990   0.116   3.671   6.464 -0.2147  0.4695  0.5323
  105CHL1  H11A13991   0.207   3.734   6.465 -0.3200  0.6303  0.2036
  105CHL1  H11B13992   0.036   3.744   6.485 -0.3574  0.6884 -0.6741
  105CHL1    C913993   0.119   3.556   6.568 -0.7530 -0.0126  0.4766
  105CHL1    H913994   0.022   3.503   6.562 -0.5241 -0.3599 -0.2372
  105CHL1   C1013995   0.136   3.602   6.713  1.4193  0.3193 -1.0324
  105CHL1   C1913996   0.253   3.701   6.730  0.5649 -0.0127 -0.3586
  105CHL1  H19A13997   0.281   3.735   6.832 -0.7257  0.0580  0.0005
  105CHL1  H19B13998   0.344   3.657   6.685  1.6121  0.8794  0.8097
  105CHL1  H19C13999   0.240   3.798   6.677  1.1257 -0.9694 -2.3006
  105CHL1    C114000   0.002   3.668   6.762  0.4375  0.3227  1.1429
  105CHL1   H1A14001  -0.015   3.739   6.679 -1.7547 -0.7262  0.6215
  105CHL1   H1B14002  -0.094   3.613   6.752 -0.7710  2.2961  1.2875
  105CHL1    C214003  -0.001   3.718   6.907 -0.1658  0.1131  0.6712
  105CHL1   H2A14004  -0.090   3.783   6.923 -0.3285  0.0176  0.1791
  105CHL1   H2B14005   0.081   3.792   6.907  0.7681 -0.7069 -3.0313
  105CHL1   C2014006   0.205   3.468   6.011 -0.1785 -0.1521 -0.2728
  105CHL1   H2014007   0.314   3.481   5.993  0.1273 -1.0287  0.7955
  105CHL1   C2114008   0.132   3.607   5.996  0.4233 -0.2441  0.6940
  105CHL1  H21A14009   0.194   3.682   6.050  0.2753  0.7433 -0.4756
  105CHL1  H21B14010   0.025   3.601   6.027 -0.2938  1.6465 -1.2306
  105CHL1  H21C14011   0.125   3.630   5.888  0.4232 -0.6562  0.6050
  105CHL1   C2214012   0.157   3.370   5.901  0.2096 -0.0642  0.4078
  105CHL1  H22A14013   0.221   3.280   5.908  1.1126  0.6300  1.5072
  105CHL1  H22B14014   0.048   3.356   5.912  0.3967 -1.5840  0.5212
  105CHL1   C2314015   0.182   3.412   5.753  0.4982 -0.1147 -0.3637
  105CHL1  H23A14016   0.121   3.501   5.730  1.0333  0.1433 -0.8156
  105CHL1  H23B14017   0.286   3.449   5.742  1.0156 -0.9748  1.2868
  105CHL1   C2414018   0.160   3.293   5.660 -0.3224  0.8204  0.9852
  105CHL1  H24A14019   0.250   3.228   5.659 -0.2613  0.9122  0.2695
  105CHL1  H24B14020   0.067   3.234   5.674 -0.0864  0.2557  0.2163
  105CHL1   C2514021   0.157   3.342   5.506 -0.5320  0.1689 -0.6431
  105CHL1   H2514022   0.080   3.422   5.507 -0.1189  0.6398  2.3297
  105CHL1   C2614023   0.294   3.403   5.472 -0.4841  0.1409 -0.1475
  105CHL1  H26A14024   0.366   3.319   5.458 -2.1612 -1.3555 -0.2282
  105CHL1  H26B14025   0.280   3.449   5.371  2.3876  1.1956 -0.1342
  105CHL1  H26C14026   0.326   3.486   5.538  0.1901  0.2016 -0.5432
  105CHL1   C2714027   0.124   3.232   5.403 -0.1411  0.1261  0.6706
  105CHL1  H27A14028   0.118   3.287   5.307 -0.0103 -0.8107  0.1107
  105CHL1  H27B14029   0.208   3.159   5.399  0.7278  1.1310  0.1601
  105CHL1  H27C14030   0.033   3.184   5.446  0.7424  0.3962  2.9558
  106CHL1    C314031   1.255   2.584   6.633 -0.0321 -0.2200  0.0688
  106CHL1    H314032   1.260   2.658   6.550  1.5756 -0.0957  0.2515
  106CHL1    O314033   1.299   2.652   6.747 -0.1902  0.1268  0.2874
  106CHL1   H3'14034   1.333   2.586   6.808 -0.2729 -0.3794 -0.2065
  106CHL1    C414035   1.110   2.525   6.641  0.2395  0.2217  0.1936
  106CHL1   H4A14036   1.112   2.456   6.728  3.6190 -1.1776 -0.8231
  106CHL1   H4B14037   1.044   2.613   6.661  1.6879  2.0668 -2.5312
  106CHL1    C514038   1.074   2.457   6.509 -0.3494 -0.8772  0.0255
  106CHL1    C614039   0.972   2.508   6.434 -0.4400 -0.0719 -0.2916
  106CHL1    H614040   0.910   2.588   6.477 -1.4847 -1.1287  0.2311
  106CHL1    C714041   0.926   2.437   6.310  0.5639 -0.2898 -0.0643
  106CHL1   H7A14042   0.818   2.419   6.293  0.8596 -0.9852 -1.3341
  106CHL1   H7B14043   0.961   2.501   6.225  0.3045  0.2605  0.2338
  106CHL1    C814044   0.992   2.298   6.284 -0.3961 -0.0610 -0.0846
  106CHL1    H814045   0.929   2.232   6.346 -1.7057 -0.1992 -1.5013
  106CHL1   C1414046   0.978   2.268   6.139 -0.6637 -0.5284 -0.0651
  106CHL1   H1414047   1.041   2.342   6.085 -1.7948  0.0150 -0.6911
  106CHL1   C1514048   0.844   2.267   6.061  0.3880 -0.2871 -0.9176
  106CHL1  H15A14049   0.756   2.224   6.114 -1.5261  3.3670 -0.8358
  106CHL1  H15B14050   0.807   2.364   6.021  2.4780  0.6091 -0.7653
  106CHL1   C1614051   0.882   2.187   5.934  0.3046 -0.0922  0.4848
  106CHL1  H16A14052   0.803   2.112   5.911 -0.1296  0.2331  0.8797
  106CHL1  H16B14053   0.896   2.241   5.839 -1.8417 -2.4389 -1.3115
  106CHL1   C1714054   1.023   2.125   5.958 -0.0245 -0.5843 -0.0643
  106CHL1   H1714055   1.087   2.205   5.914 -1.5350 -0.0752 -1.4890
  106CHL1   C1314056   1.038   2.128   6.113 -0.1413 -0.1714 -0.0157
  106CHL1   C1814057   0.949   2.020   6.175  0.0388  0.5867 -0.0607
  106CHL1  H18A14058   0.849   2.025   6.126  0.6077 -3.4834 -2.1349
  106CHL1  H18B14059   0.985   1.917   6.152 -1.7591  0.0995 -0.8995
  106CHL1  H18C14060   0.929   2.040   6.282 -1.7200 -1.6077  0.0978
  106CHL1   C1214061   1.186   2.110   6.156 -0.3172  0.5355  0.2473
  106CHL1  H12A14062   1.220   2.005   6.154  1.6704  1.1364 -0.7426
  106CHL1  H12B14063   1.256   2.177   6.102 -2.6950  2.1929 -0.9689
  106CHL1   C1114064   1.191   2.147   6.306 -0.1854  0.1473  0.2664
  106CHL1  H11A14065   1.146   2.066   6.368 -0.5288 -0.2211 -0.4473
  106CHL1  H11B14066   1.297   2.151   6.338 -0.6970  0.8269  1.9647
  106CHL1    C914067   1.138   2.289   6.327 -0.0169  0.3875 -0.0118
  106CHL1    H914068   1.197   2.354   6.258  2.7605 -1.6602  0.2442
  106CHL1   C1014069   1.171   2.340   6.470  0.2234 -1.0477 -0.0116
  106CHL1   C1914070   1.156   2.229   6.572  0.2691 -0.1177 -0.3706
  106CHL1  H19A14071   1.167   2.258   6.679  0.8954  1.4169 -0.8227
  106CHL1  H19B14072   1.056   2.182   6.560  0.6880 -0.4310 -3.0544
  106CHL1  H19C14073   1.236   2.152   6.562 -0.4698 -1.1985  1.5536
  106CHL1    C114074   1.320   2.394   6.476 -0.1493 -0.0914  0.0136
  106CHL1   H1A14075   1.390   2.308   6.469 -0.9373 -0.6170 -2.7824
  106CHL1   H1B14076   1.337   2.446   6.380 -2.1650 -2.3186 -1.6741
  106CHL1    C214077   1.360   2.474   6.601 -0.1726 -0.2907  1.0527
  106CHL1   H2A14078   1.454   2.526   6.572  0.1911 -0.5931  1.6685
  106CHL1   H2B14079   1.377   2.397   6.679 -1.1402 -2.0056 -0.3705
  106CHL1   C2014080   1.052   1.999   5.874  0.1160 -0.2031 -0.2379
  106CHL1   H2014081   1.136   1.958   5.934 -0.4366  2.0198  2.2629
  106CHL1   C2114082   1.099   2.038   5.734  0.2566  0.2896 -0.0614
  106CHL1  H21A14083   1.156   2.133   5.736 -0.0710  0.5047 -0.6388
  106CHL1  H21B14084   1.004   2.057   5.680  0.1681  1.2774  0.4296
  106CHL1  H21C14085   1.155   1.967   5.669 -0.1534  2.1226 -2.6106
  106CHL1   C2214086   0.937   1.903   5.853 -0.4846  0.2121  0.3706
  106CHL1  H22A14087   0.894   1.866   5.949  0.6612 -1.2725  0.3574
  106CHL1  H22B14088   0.858   1.951   5.793  0.0342 -0.3584 -0.8107
  106CHL1   C2314089   0.981   1.762   5.801 -0.2566 -0.1629  0.2181
  106CHL1  H23A14090   1.023   1.772   5.699  2.3702  1.9910  1.4087
  106CHL1  H23B14091   1.057   1.716   5.868 -0.1872 -1.6917 -0.8472
  106CHL1   C2414092   0.875   1.653   5.804 -0.2698 -0.3757  0.4425
  106CHL1  H24A14093   0.931   1.556   5.806  1.9921  0.8589  0.8632
  106CHL1  H24B14094   0.818   1.669   5.897 -0.9419 -1.9601  0.3360
  106CHL1   C2514095   0.789   1.647   5.679  0.1477  0.4059  0.4735
  106CHL1   H2514096   0.733   1.742   5.669  0.8869  0.6304 -2.1968
  106CHL1   C2614097   0.873   1.621   5.550 -0.2625 -0.0751 -0.0936
  106CHL1  H26A14098   0.811   1.597   5.461 -0.9984  1.6383 -0.0698
  106CHL1  H26B14099   0.931   1.710   5.517 -3.0707  1.6949 -0.5386
  106CHL1  H26C14100   0.940   1.532   5.561  1.3263  0.9465 -1.0313
  106CHL1   C2714101   0.690   1.527   5.688 -0.5286 -0.1381  0.5424
  106CHL1  H27A14102   0.756   1.438   5.680  0.8484  0.8760  0.4270
  106CHL1  H27B14103   0.639   1.526   5.787  0.1295  1.3880  0.9267
  106CHL1  H27C14104   0.611   1.538   5.610  0.9932  1.5621 -0.8382
  107CHL1    C314105   2.794   6.717   6.478  0.6774  0.4896  0.2098
  107CHL1    H314106   2.770   6.612   6.450  0.9848  0.5232 -0.1870
  107CHL1    O314107   2.808   6.735   6.619 -0.3173 -0.6667  0.0566
  107CHL1   H3'14108   2.835   6.827   6.629  0.0328 -0.3572 -2.9310
  107CHL1    C414109   2.930   6.764   6.421  0.3168 -0.3023  0.7568
  107CHL1   H4A14110   2.938   6.872   6.445  0.1396 -0.0938 -0.0949
  107CHL1   H4B14111   3.017   6.713   6.469 -0.2852 -2.5958 -0.4277
  107CHL1    C514112   2.930   6.739   6.271 -0.4170 -0.0538 -0.2523
  107CHL1    C614113   3.026   6.658   6.222  0.1235 -0.4922  0.2332
  107CHL1    H614114   3.101   6.608   6.287  2.7563 -0.2019 -2.3929
  107CHL1    C714115   3.031   6.618   6.075  1.1265  0.6455  0.1996
  107CHL1   H7A14116   3.141   6.614   6.060  1.1355 -2.4197  0.5925
  107CHL1   H7B14117   3.000   6.515   6.048 -1.0834  1.0064  1.0877
  107CHL1    C814118   2.955   6.719   5.993  0.4673 -0.0493 -0.9010
  107CHL1    H814119   3.002   6.819   6.003  0.0413 -0.0432  1.5600
  107CHL1   C1414120   2.947   6.673   5.851  0.4933  0.9634  0.7065
  107CHL1   H1414121   2.887   6.580   5.852  1.0065  0.6284  0.4410
  107CHL1   C1514122   3.077   6.621   5.783  0.7150  0.3212 -0.3745
  107CHL1  H15A14123   3.165   6.685   5.803  0.2015  0.8826  0.1156
  107CHL1  H15B14124   3.098   6.519   5.820  0.1045  0.6091  0.8061
  107CHL1   C1614125   3.037   6.624   5.637  0.6182 -0.4081  0.2422
  107CHL1  H16A14126   3.117   6.686   5.593 -1.0544  2.2916  0.7623
  107CHL1  H16B14127   3.050   6.523   5.591  2.9434  0.4188 -1.0685
  107CHL1   C1714128   2.893   6.674   5.618  0.5969 -0.2296 -0.5596
  107CHL1   H1714129   2.821   6.589   5.627 -1.4203  1.1164 -2.5933
  107CHL1   C1314130   2.865   6.757   5.750  0.9206 -0.0270  0.2211
  107CHL1   C1814131   2.914   6.904   5.734  0.0596 -0.5170  0.1617
  107CHL1  H18A14132   2.852   6.963   5.664 -0.8465 -1.1814  0.3936
  107CHL1  H18B14133   2.916   6.959   5.831 -0.1071  0.1067 -0.1865
  107CHL1  H18C14134   3.016   6.902   5.691 -0.7027 -0.7057 -1.7146
  107CHL1   C1214135   2.722   6.753   5.807 -0.4467 -0.3561 -0.0609
  107CHL1  H12A14136   2.665   6.826   5.745  2.5543  1.3197 -1.0194
  107CHL1  H12B14137   2.681   6.650   5.798  2.2037 -1.8035  2.5878
  107CHL1   C1114138   2.706   6.796   5.956 -0.8457 -0.2572 -0.2326
  107CHL1  H11A14139   2.731   6.903   5.941  0.3076 -0.4139  0.4827
  107CHL1  H11B14140   2.599   6.788   5.987 -0.4500 -2.1725  0.8211
  107CHL1    C914141   2.810   6.734   6.050 -0.7023 -0.4471  0.4555
  107CHL1    H914142   2.781   6.627   6.050 -1.5656 -0.2382 -0.9114
  107CHL1   C1014143   2.808   6.799   6.193  0.6962  0.0126  0.8139
  107CHL1   C1914144   2.817   6.953   6.186  0.1949  0.6716 -0.3213
  107CHL1  H19A14145   2.736   7.004   6.130  0.6000  1.3119 -0.3314
  107CHL1  H19B14146   2.813   6.992   6.290  0.5322  0.9693 -0.4177
  107CHL1  H19C14147   2.910   6.989   6.136 -1.3851  4.4406 -0.8580
  107CHL1    C114148   2.675   6.771   6.263 -0.4198 -0.0127  0.5675
  107CHL1   H1A14149   2.585   6.818   6.219 -1.0968 -0.8184  1.0812
  107CHL1   H1B14150   2.650   6.664   6.249 -3.4334  0.9144 -2.5303
  107CHL1    C214151   2.676   6.801   6.417 -0.4989  0.2980 -0.5168
  107CHL1   H2A14152   2.583   6.768   6.469 -0.0460  1.7718  1.3098
  107CHL1   H2B14153   2.670   6.909   6.441  0.8072  0.5286 -1.1433
  107CHL1   C2014154   2.862   6.743   5.483 -0.4039 -0.5460 -0.4161
  107CHL1   H2014155   2.923   6.835   5.473 -2.2669  0.5797 -2.2210
  107CHL1   C2114156   2.709   6.770   5.479 -0.4353 -0.3834  0.5596
  107CHL1  H21A14157   2.683   6.801   5.376  0.5139  1.1291  0.7337
  107CHL1  H21B14158   2.670   6.849   5.547  0.2462  1.1678 -0.7664
  107CHL1  H21C14159   2.658   6.672   5.492  0.4436 -1.2202 -1.8868
  107CHL1   C2214160   2.916   6.647   5.369  0.0316 -0.8030 -0.2325
  107CHL1  H22A14161   3.027   6.640   5.365  0.1873  1.4013 -1.3355
  107CHL1  H22B14162   2.869   6.547   5.379 -0.4076 -0.5097  0.7342
  107CHL1   C2314163   2.878   6.696   5.217 -0.5009  0.0286  0.2871
  107CHL1  H23A14164   2.901   6.621   5.138 -0.1111  1.1418 -0.6808
  107CHL1  H23B14165   2.768   6.711   5.218 -0.3672  1.3132 -1.0930
  107CHL1   C2414166   2.955   6.821   5.175  0.0813  0.4591 -0.4108
  107CHL1  H24A14167   2.935   6.910   5.240 -0.6597  0.0595 -0.0768
  107CHL1  H24B14168   3.063   6.797   5.174  0.7092  2.9583 -0.1583
  107CHL1   C2514169   2.918   6.868   5.039 -0.4081  0.5237 -0.0876
  107CHL1   H2514170   2.918   6.777   4.975 -0.8373  1.1410 -1.0012
  107CHL1   C2614171   2.789   6.944   5.029 -0.0482 -0.1291  1.1025
  107CHL1  H26A14172   2.703   6.889   5.073 -0.6796 -0.0705 -0.0182
  107CHL1  H26B14173   2.791   7.042   5.081  1.8075  1.0654 -1.0509
  107CHL1  H26C14174   2.752   6.963   4.926 -0.4947 -2.7533  0.7102
  107CHL1   C2714175   3.031   6.952   4.965 -0.0387  0.3874 -0.2226
  107CHL1  H27A14176   3.040   7.056   5.002 -1.9472  0.2821  0.6550
  107CHL1  H27B14177   3.121   6.888   4.984  0.8735  1.5563 -0.5301
  107CHL1  H27C14178   3.004   6.954   4.857  0.2256  2.8466 -0.2971
  108CHL1    C314179   5.832   2.130   7.543 -0.3058  0.7687 -0.2961
  108CHL1    H314180   5.736   2.079   7.566  0.2977  0.1558  0.9749
  108CHL1    O314181   5.875   2.182   7.668 -0.2116 -0.0855  0.0256
  108CHL1   H3'14182   5.890   2.101   7.718  0.0124  0.5925  1.0795
  108CHL1    C414183   5.947   2.049   7.491 -0.5895  0.2468 -0.2926
  108CHL1   H4A14184   6.036   2.115   7.489 -2.0509  2.3189 -0.2066
  108CHL1   H4B14185   5.984   1.966   7.556  1.6795 -0.3263 -2.1904
  108CHL1    C514186   5.909   1.995   7.356 -0.6406 -0.0350 -0.1870
  108CHL1    C614187   5.911   1.863   7.331 -0.1121  0.1516  0.3687
  108CHL1    H614188   5.952   1.789   7.401  5.6815 -0.7098 -3.2695
  108CHL1    C714189   5.870   1.805   7.202 -0.7568  0.0607 -0.2207
  108CHL1   H7A14190   5.937   1.722   7.173  0.7215  0.9327  0.5843
  108CHL1   H7B14191   5.767   1.769   7.223 -0.0507 -1.4352  0.8418
  108CHL1    C814192   5.857   1.907   7.083 -0.9883 -0.5663  0.3413
  108CHL1    H814193   5.958   1.942   7.054 -0.5299 -1.6738  0.5164
  108CHL1   C1414194   5.777   1.848   6.973 -0.4900  0.7651 -0.3892
  108CHL1   H1414195   5.678   1.838   7.022 -0.6674  3.3205 -0.1116
  108CHL1   C1514196   5.826   1.713   6.921 -0.3211 -0.3822  0.2237
  108CHL1  H15A14197   5.930   1.711   6.881  0.6860 -2.3800  2.6968
  108CHL1  H15B14198   5.809   1.636   6.999 -2.5093 -0.9732 -0.7534
  108CHL1   C1614199   5.745   1.693   6.796  0.3462  0.0951  0.7420
  108CHL1  H16A14200   5.797   1.675   6.700 -1.5283  2.1489 -0.7328
  108CHL1  H16B14201   5.676   1.606   6.804  0.3012 -0.2264 -2.1801
  108CHL1   C1714202   5.671   1.822   6.774  0.2315 -0.0849  0.1867
  108CHL1   H1714203   5.572   1.811   6.824  0.5535  1.0129  1.1137
  108CHL1   C1314204   5.746   1.931   6.856 -0.1751  0.4255  0.2769
  108CHL1   C1814205   5.872   1.963   6.769  0.3604 -0.4073 -0.2486
  108CHL1  H18A14206   5.844   2.046   6.702 -3.0845  0.7056  2.2420
  108CHL1  H18B14207   5.952   2.005   6.833 -0.5664  1.7769 -0.4297
  108CHL1  H18C14208   5.902   1.867   6.721 -0.9635 -0.5103 -0.9308
  108CHL1   C1214209   5.676   2.058   6.908  0.7782 -0.5803  0.3028
  108CHL1  H12A14210   5.661   2.132   6.826 -1.8510 -0.0202  1.1855
  108CHL1  H12B14211   5.574   2.039   6.946  0.8053 -0.9874  0.1669
  108CHL1   C1114212   5.767   2.131   7.011 -0.5556  0.7336  0.0731
  108CHL1  H11A14213   5.862   2.162   6.961  1.9949 -2.0175  2.7923
  108CHL1  H11B14214   5.721   2.225   7.047 -1.1887  0.4796 -0.0647
  108CHL1    C914215   5.795   2.035   7.130  0.6103 -0.4080  0.4793
  108CHL1    H914216   5.695   2.006   7.170 -0.4110  0.9587 -0.9431
  108CHL1   C1014217   5.862   2.099   7.253 -0.1717  0.7633  0.2589
  108CHL1   C1914218   5.996   2.165   7.204  0.4740 -0.4276 -0.2034
  108CHL1  H19A14219   6.053   2.085   7.152 -0.4414 -2.7071  2.1428
  108CHL1  H19B14220   5.976   2.253   7.138  0.4695 -0.2423  0.0443
  108CHL1  H19C14221   6.051   2.209   7.290  2.0096  1.4024 -1.9856
  108CHL1    C114222   5.769   2.204   7.315  0.3484 -0.1787 -0.2498
  108CHL1   H1A14223   5.764   2.294   7.251 -1.6157  0.6985  1.0480
  108CHL1   H1B14224   5.666   2.163   7.307  0.7010 -1.3294  0.7276
  108CHL1    C214225   5.805   2.255   7.455 -0.8397 -0.3903  0.1801
  108CHL1   H2A14226   5.722   2.317   7.495  0.1619  1.9561 -1.2084
  108CHL1   H2B14227   5.892   2.322   7.440 -0.6767 -0.7685 -0.6679
  108CHL1   C2014228   5.641   1.850   6.629  0.2662 -0.1728 -0.3312
  108CHL1   H2014229   5.732   1.851   6.566  0.6746  2.2875  0.1807
  108CHL1   C2114230   5.571   1.991   6.611 -0.3743 -0.2086 -0.4075
  108CHL1  H21A14231   5.474   2.000   6.664 -0.5293 -1.2927 -0.4860
  108CHL1  H21B14232   5.549   2.005   6.503 -1.0672 -0.9056 -0.3632
  108CHL1  H21C14233   5.642   2.073   6.634 -0.7679  0.4685 -1.5096
  108CHL1   C2214234   5.539   1.737   6.587  0.3046  0.4540  0.0919
  108CHL1  H22A14235   5.572   1.641   6.631 -3.0813 -0.2923  1.3170
  108CHL1  H22B14236   5.446   1.772   6.637 -0.1742  1.1592 -1.2522
  108CHL1   C2314237   5.498   1.722   6.442 -0.2136 -0.2622 -0.0781
  108CHL1  H23A14238   5.479   1.826   6.408 -0.3113 -0.3806 -0.3880
  108CHL1  H23B14239   5.576   1.683   6.374  0.8092  0.3070  0.7337
  108CHL1   C2414240   5.373   1.637   6.427 -0.5643 -0.5841  0.1890
  108CHL1  H24A14241   5.401   1.533   6.456  1.1598 -0.9219 -2.3559
  108CHL1  H24B14242   5.293   1.677   6.492 -1.2350 -1.2513 -0.2092
  108CHL1   C2514243   5.301   1.623   6.290  0.4977  0.4625  0.0133
  108CHL1   H2514244   5.306   1.722   6.239  3.2101 -0.5237 -1.8524
  108CHL1   C2614245   5.377   1.527   6.198 -0.0568 -0.0187  0.4508
  108CHL1  H26A14246   5.388   1.420   6.227  3.1258  0.0514 -0.1113
  108CHL1  H26B14247   5.328   1.530   6.098  2.3058  3.9720 -0.8463
  108CHL1  H26C14248   5.472   1.576   6.167 -0.1116  1.1262  1.9736
  108CHL1   C2714249   5.153   1.578   6.303  0.3339 -0.5057  0.0677
  108CHL1  H27A14250   5.148   1.479   6.353  0.5183 -0.2632  0.5757
  108CHL1  H27B14251   5.112   1.647   6.379  1.6776 -0.6959  0.9981
  108CHL1  H27C14252   5.100   1.581   6.205  0.0415  1.9009  0.2522
  109CHL1    C314253   2.243   6.574   6.669  0.1079  0.2428 -0.7041
  109CHL1    H314254   2.188   6.477   6.676  1.3902 -0.5293 -1.0668
  109CHL1    O314255   2.274   6.618   6.800 -0.0981  0.7127  0.3168
  109CHL1   H3'14256   2.191   6.646   6.839 -0.5542  0.7050 -0.6352
  109CHL1    C414257   2.374   6.559   6.587  0.6359 -0.5661 -0.2777
  109CHL1   H4A14258   2.437   6.647   6.608  0.7615 -0.1692 -2.2213
  109CHL1   H4B14259   2.435   6.475   6.628  0.3758 -0.0846  1.1722
  109CHL1    C514260   2.373   6.541   6.439  0.8003 -0.2211  0.2179
  109CHL1    C614261   2.447   6.449   6.379 -0.3674 -0.0332  0.5731
  109CHL1    H614262   2.518   6.389   6.437 -0.0069  0.1397  0.3167
  109CHL1    C714263   2.453   6.415   6.231  0.0686 -0.4509  0.4277
  109CHL1   H7A14264   2.554   6.435   6.189 -0.5986  0.8655 -0.6095
  109CHL1   H7B14265   2.412   6.313   6.211 -0.9774 -0.1263  0.8532
  109CHL1    C814266   2.350   6.513   6.154  0.0650 -0.5620 -0.0455
  109CHL1    H814267   2.412   6.604   6.139  0.0359 -0.1689  1.9412
  109CHL1   C1414268   2.323   6.469   6.013  0.0227  0.4635  0.5538
  109CHL1   H1414269   2.266   6.375   6.029 -0.6806  0.9973  1.2818
  109CHL1   C1514270   2.447   6.434   5.920  0.5572  0.3284 -0.0448
  109CHL1  H15A14271   2.514   6.523   5.925  0.3705  0.7123 -2.8827
  109CHL1  H15B14272   2.491   6.339   5.958 -1.2817  0.1620  1.8147
  109CHL1   C1614273   2.384   6.423   5.782 -0.4295  0.5985  0.2917
  109CHL1  H16A14274   2.448   6.492   5.723  1.9951  0.2546  2.3235
  109CHL1  H16B14275   2.394   6.318   5.747 -0.0446  0.0610  1.9082
  109CHL1   C1714276   2.236   6.481   5.786 -0.2720 -0.5907 -0.1099
  109CHL1   H1714277   2.168   6.396   5.809 -2.6750  0.4439 -2.7643
  109CHL1   C1314278   2.235   6.563   5.929 -0.6199 -0.5950  0.6361
  109CHL1   C1814279   2.311   6.698   5.905 -0.0145 -0.6466  0.0235
  109CHL1  H18A14280   2.409   6.679   5.855  1.0422 -3.9508  2.9507
  109CHL1  H18B14281   2.253   6.768   5.841  2.5108  0.4092 -1.2808
  109CHL1  H18C14282   2.339   6.748   6.000 -0.7901  1.9287 -1.0265
  109CHL1   C1214283   2.108   6.582   5.999 -0.0448 -0.0543 -0.8860
  109CHL1  H12A14284   2.040   6.654   5.948  0.4316  1.8484  1.0328
  109CHL1  H12B14285   2.051   6.487   6.000  0.5977 -0.4470 -0.0227
  109CHL1   C1114286   2.115   6.632   6.144  0.0686 -0.1032  0.0479
  109CHL1  H11A14287   2.155   6.735   6.142 -2.1587  0.8082 -1.3980
  109CHL1  H11B14288   2.018   6.634   6.199 -0.1149  0.6152 -0.2907
  109CHL1    C914289   2.221   6.552   6.227 -0.2422 -0.2610 -0.3051
  109CHL1    H914290   2.173   6.455   6.251  0.9619 -0.4480  1.5328
  109CHL1   C1014291   2.257   6.616   6.370  0.2900 -0.2519  0.3393
  109CHL1   C1914292   2.303   6.761   6.346  0.0357 -0.5448  0.1309
  109CHL1  H19A14293   2.222   6.830   6.312  0.8014 -0.7554 -2.3305
  109CHL1  H19B14294   2.354   6.785   6.441  0.0425 -1.1595  0.2846
  109CHL1  H19C14295   2.387   6.766   6.274  1.4033  1.1694  1.7630
  109CHL1    C114296   2.124   6.621   6.455 -0.1273  0.1573 -1.1253
  109CHL1   H1A14297   2.045   6.679   6.403  0.3051  1.0713 -0.7918
  109CHL1   H1B14298   2.103   6.512   6.455  0.6743 -0.0084 -0.4649
  109CHL1    C214299   2.138   6.668   6.606  0.8742  0.3730  0.0147
  109CHL1   H2A14300   2.037   6.683   6.650  0.0760 -0.5942 -1.3668
  109CHL1   H2B14301   2.186   6.768   6.606  3.6631 -0.8839 -0.5938
  109CHL1   C2014302   2.191   6.551   5.661 -0.4887  0.5405  0.1269
  109CHL1   H2014303   2.217   6.658   5.650 -1.0270  0.4831 -2.2867
  109CHL1   C2114304   2.036   6.549   5.669 -0.6384  0.2639  0.8281
  109CHL1  H21A14305   2.011   6.613   5.581  3.2808 -1.0403 -1.5014
  109CHL1  H21B14306   1.997   6.592   5.764  1.4724  0.8498  1.4834
  109CHL1  H21C14307   1.986   6.454   5.643  2.9061 -1.5633  0.0888
  109CHL1   C2214308   2.240   6.482   5.524  0.0203  0.0804 -0.2016
  109CHL1  H22A14309   2.343   6.443   5.540 -0.3122 -0.9812 -0.5555
  109CHL1  H22B14310   2.172   6.399   5.496 -0.5930  0.5437 -0.1237
  109CHL1   C2314311   2.236   6.584   5.407  0.1570  0.4560 -0.0510
  109CHL1  H23A14312   2.139   6.635   5.392 -0.5910 -0.8452  0.2242
  109CHL1  H23B14313   2.308   6.663   5.436  1.5368 -0.3808 -1.0690
  109CHL1   C2414314   2.300   6.517   5.285  0.2273  0.6048  0.3448
  109CHL1  H24A14315   2.331   6.602   5.221 -0.2541 -0.7630 -1.7739
  109CHL1  H24B14316   2.390   6.465   5.325 -1.0331 -1.0052  1.2270
  109CHL1   C2514317   2.217   6.412   5.206  0.3384 -0.1539  0.3045
  109CHL1   H2514318   2.240   6.310   5.244  0.0190 -0.8945 -1.4256
  109CHL1   C2614319   2.065   6.439   5.211 -0.4361 -0.5238 -0.0684
  109CHL1  H26A14320   2.025   6.418   5.313 -0.2464  0.7314  0.2759
  109CHL1  H26B14321   2.032   6.540   5.179 -1.8088 -1.2643 -1.1272
  109CHL1  H26C14322   2.015   6.381   5.131  0.6164 -2.3100  0.5191
  109CHL1   C2714323   2.259   6.423   5.058  0.0335 -0.5149 -0.0631
  109CHL1  H27A14324   2.362   6.388   5.034 -0.4971 -1.0368 -1.7144
  109CHL1  H27B14325   2.198   6.355   4.994  0.7274 -1.3468  0.1303
  109CHL1  H27C14326   2.246   6.529   5.027 -1.1038 -0.1909  1.4097
  110CHL1    C314327   1.187   5.690   6.258  0.3420 -0.1495 -0.2256
  110CHL1    H314328   1.266   5.627   6.213 -0.2822 -0.4741 -0.8782
  110CHL1    O314329   1.207   5.675   6.398 -0.4770  0.6876 -0.2208
  110CHL1   H3'14330   1.209   5.766   6.430 -3.4473  1.4123 -1.6477
  110CHL1    C414331   1.196   5.840   6.214  0.6684 -0.5946  0.1778
  110CHL1   H4A14332   1.124   5.889   6.283  2.4886 -0.0189  1.7325
  110CHL1   H4B14333   1.294   5.883   6.241 -0.2195  2.7193 -1.3543
  110CHL1    C514334   1.169   5.851   6.067  0.0026 -0.0032 -0.2177
  110CHL1    C614335   1.272   5.885   5.995  0.8166 -0.2576 -0.5098
  110CHL1    H614336   1.371   5.914   6.035  0.4036  1.1174 -0.4586
  110CHL1    C714337   1.255   5.908   5.845  0.5420  0.1085  0.0989
  110CHL1   H7A14338   1.297   6.007   5.817 -0.3579  0.0091 -1.7561
  110CHL1   H7B14339   1.304   5.824   5.792  2.9927 -0.0534  2.4212
  110CHL1    C814340   1.107   5.914   5.799 -0.0495  0.1049  0.5342
  110CHL1    H814341   1.078   6.013   5.839  3.0470  0.4479  2.1613
  110CHL1   C1414342   1.106   5.914   5.644  0.4744 -0.7568  0.5952
  110CHL1   H1414343   1.158   5.822   5.609  0.6926 -0.7085  0.7845
  110CHL1   C1514344   1.186   6.028   5.565 -0.0615 -0.4033 -0.5696
  110CHL1  H15A14345   1.160   6.119   5.624 -0.1498 -0.8384  0.0592
  110CHL1  H15B14346   1.296   6.016   5.558  0.0172  0.2744 -0.6042
  110CHL1   C1614347   1.129   6.026   5.424 -0.1447 -0.3388  0.2632
  110CHL1  H16A14348   1.089   6.126   5.397  1.3373  0.6197  1.4418
  110CHL1  H16B14349   1.193   5.981   5.345  0.8186  2.1605 -0.4776
  110CHL1   C1714350   1.008   5.922   5.425  0.1266 -0.2508 -0.4846
  110CHL1   H1714351   1.053   5.825   5.397 -0.1992 -0.0989 -1.5886
  110CHL1   C1314352   0.969   5.919   5.581 -0.3395  0.7719  0.3870
  110CHL1   C1814353   0.890   6.047   5.615  0.0621 -0.2509  0.0377
  110CHL1  H18A14354   0.786   6.038   5.578  0.1345 -1.9345  0.1911
  110CHL1  H18B14355   0.884   6.053   5.726 -0.3945  2.6468 -0.0563
  110CHL1  H18C14356   0.933   6.141   5.573  0.8683 -0.0005  1.3535
  110CHL1   C1214357   0.898   5.790   5.628 -0.7676 -0.2137  0.1968
  110CHL1  H12A14358   0.802   5.771   5.575 -0.4040  2.3948 -1.6152
  110CHL1  H12B14359   0.971   5.712   5.597  1.6804  1.6248  0.9890
  110CHL1   C1114360   0.896   5.783   5.786 -0.6458 -0.1044  0.5859
  110CHL1  H11A14361   0.833   5.867   5.824 -0.9846  0.9026 -2.0148
  110CHL1  H11B14362   0.863   5.681   5.813 -0.1770 -0.3927  0.0916
  110CHL1    C914363   1.030   5.800   5.853 -0.3998  0.0495 -0.3959
  110CHL1    H914364   1.082   5.707   5.820 -2.3833 -0.5652 -2.0108
  110CHL1   C1014365   1.037   5.800   6.010  0.1138 -0.3487 -0.6204
  110CHL1   C1914366   0.920   5.887   6.059 -0.1845  0.1930 -0.0091
  110CHL1  H19A14367   0.908   5.969   5.985 -2.2076 -1.9867 -2.3120
  110CHL1  H19B14368   0.817   5.845   6.054  0.1686 -1.0345  2.0217
  110CHL1  H19C14369   0.931   5.919   6.165 -0.6435 -1.5815  0.6006
  110CHL1    C114370   1.021   5.652   6.072 -0.0133  0.5632 -0.5870
  110CHL1   H1A14371   0.912   5.631   6.069 -0.3181  1.1067  3.0391
  110CHL1   H1B14372   1.073   5.568   6.022  0.7706 -1.2552  2.9688
  110CHL1    C214373   1.050   5.636   6.217 -0.5409  0.0947  0.4571
  110CHL1   H2A14374   1.053   5.525   6.223  1.2389  0.0755 -0.0350
  110CHL1   H2B14375   0.970   5.665   6.287  1.7166  3.1128  1.9974
  110CHL1   C2014376   0.899   5.954   5.330 -0.0625  0.2983 -0.2453
  110CHL1   H2014377   0.828   6.029   5.372 -2.1137 -1.1482 -0.9353
  110CHL1   C2114378   0.799   5.836   5.303 -0.1779 -0.2271  0.1660
  110CHL1  H21A14379   0.750   5.799   5.395 -1.4562 -3.1237 -1.5413
  110CHL1  H21B14380   0.849   5.754   5.247 -1.1530 -0.1954 -0.7891
  110CHL1  H21C14381   0.732   5.878   5.225  1.7479  0.5246 -1.1555
  110CHL1   C2214382   0.960   6.011   5.199 -0.0787 -0.1570 -0.4237
  110CHL1  H22A14383   1.024   6.102   5.207 -1.3212  0.6262  1.0871
  110CHL1  H22B14384   1.033   5.938   5.157 -0.8204  0.0606 -2.1776
  110CHL1   C2314385   0.859   6.067   5.089 -0.1235 -0.0403  0.7409
  110CHL1  H23A14386   0.784   5.992   5.055  0.8051 -0.7693  0.2896
  110CHL1  H23B14387   0.803   6.156   5.127  0.4015  0.6808 -0.1302
  110CHL1   C2414388   0.923   6.117   4.955 -0.1370  0.3701 -0.8485
  110CHL1  H24A14389   1.015   6.177   4.973  0.8670 -1.8074  1.9960
  110CHL1  H24B14390   0.962   6.029   4.900  1.2381  1.9591 -2.5796
  110CHL1   C2514391   0.827   6.196   4.865  0.6376  0.2424 -0.2255
  110CHL1   H2514392   0.779   6.275   4.928  0.1339 -0.7998  0.7241
  110CHL1   C2614393   0.902   6.253   4.749 -0.0327 -0.5120  0.1621
  110CHL1  H26A14394   0.834   6.295   4.672  0.3407  2.5911  1.3385
  110CHL1  H26B14395   0.971   6.336   4.776  0.7278 -0.3758 -2.0403
  110CHL1  H26C14396   0.961   6.176   4.696 -0.0859  0.7931 -1.9138
  110CHL1   C2714397   0.705   6.109   4.811  0.7707  0.2375 -0.8744
  110CHL1  H27A14398   0.631   6.168   4.753 -1.7064 -1.3635  0.5037
  110CHL1  H27B14399   0.739   6.018   4.758  1.1012 -0.8322  1.0907
  110CHL1  H27C14400   0.644   6.079   4.899 -1.0356  0.2282 -2.0876
  111CHL1    C314401   4.174   1.629   6.998  0.2911 -0.2125  0.5726
  111CHL1    H314402   4.072   1.664   7.022 -0.1071 -0.9783  0.0392
  111CHL1    O314403   4.230   1.583   7.122  0.1561 -0.3944 -0.3930
  111CHL1   H3'14404   4.323   1.566   7.105 -0.1639 -0.5324 -2.3030
  111CHL1    C414405   4.158   1.501   6.909  0.2593  0.1252 -0.2257
  111CHL1   H4A14406   4.259   1.456   6.906 -0.1486 -0.7330 -1.6947
  111CHL1   H4B14407   4.094   1.426   6.960  0.3493 -0.3622 -0.8285
  111CHL1    C514408   4.104   1.529   6.772 -0.1971 -0.1234  0.2307
  111CHL1    C614409   4.002   1.464   6.716 -0.0957 -0.0450  0.2331
  111CHL1    H614410   3.938   1.386   6.761 -2.5938  0.1584 -2.6259
  111CHL1    C714411   3.966   1.502   6.575  0.1001 -0.1360  0.1245
  111CHL1   H7A14412   3.911   1.419   6.525 -0.8585  0.5862 -0.0477
  111CHL1   H7B14413   3.883   1.574   6.588 -0.1884 -0.5543  0.6561
  111CHL1    C814414   4.074   1.555   6.483 -0.7063 -0.4986 -0.6023
  111CHL1    H814415   4.154   1.484   6.451  0.2006 -0.0710  0.6470
  111CHL1   C1414416   4.015   1.608   6.342 -0.0934  0.3251 -0.4400
  111CHL1   H1414417   3.933   1.680   6.363 -1.9137 -1.7819  0.1035
  111CHL1   C1514418   3.942   1.497   6.256  0.4086 -0.5377  0.5540
  111CHL1  H15A14419   3.990   1.398   6.243  0.2716 -0.9456  2.8224
  111CHL1  H15B14420   3.842   1.487   6.302 -0.3371  0.8914 -0.6707
  111CHL1   C1614421   3.933   1.568   6.117  1.0253 -0.6209 -0.8270
  111CHL1  H16A14422   3.972   1.501   6.038  0.9412  0.4007 -1.7698
  111CHL1  H16B14423   3.830   1.606   6.100  0.9118 -0.0624  0.8788
  111CHL1   C1714424   4.028   1.698   6.125 -0.4627  0.4732 -0.6630
  111CHL1   H1714425   3.965   1.786   6.148  1.1634  1.4990  0.0499
  111CHL1   C1314426   4.112   1.675   6.253 -0.0908  0.1006 -0.4773
  111CHL1   C1814427   4.238   1.589   6.221  0.3663  0.1436 -0.5758
  111CHL1  H18A14428   4.317   1.641   6.163  1.2779 -1.6398 -1.0016
  111CHL1  H18B14429   4.281   1.548   6.315 -0.9738 -0.7045 -0.3039
  111CHL1  H18C14430   4.216   1.506   6.151 -1.8165  1.1728 -1.1983
  111CHL1   C1214431   4.163   1.801   6.328 -0.0053  0.0245  0.0499
  111CHL1  H12A14432   4.243   1.857   6.275 -0.1128  0.8514  0.7402
  111CHL1  H12B14433   4.078   1.873   6.337  0.2124  0.3554 -0.4563
  111CHL1   C1114434   4.222   1.772   6.470  0.2901  0.3410 -0.2834
  111CHL1  H11A14435   4.319   1.727   6.439 -0.2833 -2.5069  1.7097
  111CHL1  H11B14436   4.237   1.871   6.518  2.4968  0.3974 -0.9830
  111CHL1    C914437   4.130   1.677   6.560  0.5426  0.3028  0.1231
  111CHL1    H914438   4.044   1.746   6.575 -0.2413  0.0551 -2.6210
  111CHL1   C1014439   4.190   1.634   6.695  0.0379  0.0139 -0.2428
  111CHL1   C1914440   4.328   1.571   6.667  0.5165  0.1042 -0.0021
  111CHL1  H19A14441   4.387   1.648   6.614 -0.4978 -0.9053 -2.8036
  111CHL1  H19B14442   4.380   1.537   6.759  0.5625 -0.6392 -0.2957
  111CHL1  H19C14443   4.312   1.486   6.597  1.0871 -0.0914  0.0977
  111CHL1    C114444   4.206   1.762   6.784  0.6503  0.1564 -0.2619
  111CHL1   H1A14445   4.264   1.840   6.730  0.9344  0.2576  0.1843
  111CHL1   H1B14446   4.100   1.797   6.788  0.7885  0.4738  0.9355
  111CHL1    C214447   4.252   1.745   6.934  0.6606 -0.1867 -0.2010
  111CHL1   H2A14448   4.239   1.839   6.992  2.2787 -0.5951  0.8869
  111CHL1   H2B14449   4.361   1.727   6.924  1.0215  2.1774 -0.9907
  111CHL1   C2014450   4.102   1.723   5.993 -0.4705  0.3137 -0.1967
  111CHL1   H2014451   4.162   1.631   5.978  0.7455  0.7359  1.6808
  111CHL1   C2114452   4.186   1.852   5.995  0.3910 -0.6145 -0.0116
  111CHL1  H21A14453   4.128   1.939   6.030 -0.0583 -0.7527 -0.4017
  111CHL1  H21B14454   4.231   1.873   5.895 -0.7071  2.3884  0.0518
  111CHL1  H21C14455   4.272   1.842   6.065 -0.7948  2.7425  2.1257
  111CHL1   C2214456   3.997   1.735   5.880 -0.2138 -0.2878 -0.0304
  111CHL1  H22A14457   3.950   1.634   5.872 -1.5161  0.2196  0.8380
  111CHL1  H22B14458   3.917   1.807   5.907  0.7211  0.5780  0.5353
  111CHL1   C2314459   4.048   1.758   5.738 -1.0295 -0.8038 -0.7514
  111CHL1  H23A14460   4.096   1.859   5.740 -1.7919 -0.4406 -0.2338
  111CHL1  H23B14461   4.126   1.680   5.724 -0.9481 -0.6305 -1.2759
  111CHL1   C2414462   3.945   1.747   5.630  0.1388  0.2402  0.2536
  111CHL1  H24A14463   3.879   1.660   5.651  1.4393 -0.9146 -0.3378
  111CHL1  H24B14464   3.882   1.838   5.627  1.1927  0.9649 -1.0260
  111CHL1   C2514465   4.020   1.714   5.496  0.5599 -0.3084  0.4013
  111CHL1   H2514466   4.121   1.760   5.506  1.1788 -1.2130 -1.2824
  111CHL1   C2614467   4.039   1.566   5.472 -0.0413 -0.0288  0.1861
  111CHL1  H26A14468   3.932   1.533   5.475  0.4276 -1.6008  0.7427
  111CHL1  H26B14469   4.090   1.534   5.379 -1.7137 -2.3401 -0.0244
  111CHL1  H26C14470   4.077   1.517   5.564 -1.7271  0.4745  1.2096
  111CHL1   C2714471   3.948   1.791   5.376  0.3018  0.0421 -0.7596
  111CHL1  H27A14472   3.943   1.896   5.413 -2.0935 -1.0010  2.3600
  111CHL1  H27B14473   4.016   1.780   5.289  1.5711 -0.6235  0.2835
  111CHL1  H27C14474   3.841   1.761   5.367  0.4953 -0.8146 -0.3427
  112CHL1    C314475   4.826   2.587   7.083 -0.1407 -0.2912  0.1427
  112CHL1    H314476   4.717   2.579   7.062  0.0880  0.7808 -1.6515
  112CHL1    O314477   4.852   2.587   7.222 -0.3066  0.3712  0.3431
  112CHL1   H3'14478   4.946   2.604   7.222  0.3308 -1.6981 -4.2299
  112CHL1    C414479   4.911   2.483   7.015  0.6298  0.1467  0.5597
  112CHL1   H4A14480   5.009   2.474   7.066  0.9031 -1.0710 -0.1434
  112CHL1   H4B14481   4.850   2.390   7.025 -1.9974  1.8088  1.0142
  112CHL1    C514482   4.939   2.504   6.871  0.9348 -0.4334 -0.2994
  112CHL1    C614483   4.936   2.409   6.784  0.1907  0.9937 -0.0526
  112CHL1    H614484   4.921   2.310   6.828 -3.2705  0.8461 -1.2314
  112CHL1    C714485   4.970   2.412   6.640  0.4362 -0.6157 -0.6450
  112CHL1   H7A14486   5.051   2.340   6.618  1.3720  0.0818  0.4174
  112CHL1   H7B14487   4.880   2.388   6.580  0.3930  0.7074 -1.1400
  112CHL1    C814488   5.007   2.551   6.601  0.2939 -0.6566 -0.5730
  112CHL1    H814489   5.116   2.564   6.613  0.3373 -2.4855  1.6438
  112CHL1   C1414490   4.967   2.568   6.454  0.4251  0.1193  0.2740
  112CHL1   H1414491   4.858   2.590   6.459  0.5281  0.7684 -0.1524
  112CHL1   C1514492   4.983   2.452   6.349 -0.2383 -0.3894 -0.0801
  112CHL1  H15A14493   5.089   2.418   6.345 -0.3135 -0.4765 -2.5592
  112CHL1  H15B14494   4.922   2.360   6.357  0.6812 -0.8902  1.7106
  112CHL1   C1614495   4.957   2.527   6.214 -0.4105  0.1043 -0.0883
  112CHL1  H16A14496   5.035   2.498   6.140 -1.4335 -0.1765 -1.0688
  112CHL1  H16B14497   4.861   2.492   6.172  0.9075 -2.0248 -1.5281
  112CHL1   C1714498   4.963   2.680   6.233  0.0054 -0.1024  0.0149
  112CHL1   H1714499   4.855   2.707   6.233 -0.3950 -1.5325 -1.5467
  112CHL1   C1314500   5.018   2.698   6.381 -0.4076 -0.2943  1.6154
  112CHL1   C1814501   5.175   2.715   6.386 -0.3150  0.6411  0.4435
  112CHL1  H18A14502   5.204   2.813   6.341 -2.2233  1.0702  0.0579
  112CHL1  H18B14503   5.214   2.717   6.490 -0.3674  1.7048  0.4568
  112CHL1  H18C14504   5.220   2.636   6.323 -0.2734 -1.1870  2.6609
  112CHL1   C1214505   4.949   2.815   6.463  0.2121 -0.5304  0.3174
  112CHL1  H12A14506   4.972   2.920   6.434 -0.9176  0.8430  3.8521
  112CHL1  H12B14507   4.841   2.792   6.452 -0.0325  0.6456  0.1894
  112CHL1   C1114508   4.978   2.800   6.613  0.1205  0.0017 -0.4074
  112CHL1  H11A14509   5.087   2.823   6.616  0.2008 -0.4407  1.9707
  112CHL1  H11B14510   4.924   2.880   6.667  1.0672  0.1269  0.3842
  112CHL1    C914511   4.939   2.666   6.680  0.6989  0.2052 -0.3606
  112CHL1    H914512   4.831   2.647   6.667  0.4925 -0.2803  1.7252
  112CHL1   C1014513   4.953   2.653   6.824 -0.1193 -0.0343  0.3824
  112CHL1   C1914514   5.094   2.704   6.861 -0.1049  1.0828  0.2323
  112CHL1  H19A14515   5.120   2.668   6.963  0.9004  0.0773 -0.3495
  112CHL1  H19B14516   5.175   2.661   6.797 -1.8340 -0.3365 -1.0964
  112CHL1  H19C14517   5.093   2.814   6.871  2.3332  1.3121 -1.0965
  112CHL1    C114518   4.843   2.737   6.891  0.4145  0.1116  0.1961
  112CHL1   H1A14519   4.867   2.844   6.874 -0.6478  0.4310  0.5722
  112CHL1   H1B14520   4.740   2.716   6.855  0.4448 -1.4901  0.9441
  112CHL1    C214521   4.857   2.725   7.041 -0.3492 -0.3663  0.8362
  112CHL1   H2A14522   4.782   2.795   7.083 -1.3153 -0.7820 -0.1534
  112CHL1   H2B14523   4.955   2.769   7.071 -0.7670  0.9774  0.3337
  112CHL1   C2014524   5.027   2.752   6.115  0.3577  0.0783  0.8827
  112CHL1   H2014525   5.133   2.718   6.110  0.7406  1.0593  1.8314
  112CHL1   C2114526   5.023   2.906   6.148  0.3564  0.1178  0.2257
  112CHL1  H21A14527   5.053   2.953   6.051 -0.4704 -0.0342 -0.1058
  112CHL1  H21B14528   5.089   2.932   6.234 -1.0845  0.3307  1.2959
  112CHL1  H21C14529   4.918   2.937   6.164 -0.0543  0.5542 -2.7745
  112CHL1   C2214530   4.955   2.736   5.978  0.0605 -0.4144  0.2746
  112CHL1  H22A14531   4.925   2.630   5.961 -0.9380 -0.2487  0.9251
  112CHL1  H22B14532   4.860   2.791   5.964 -0.1979 -0.7775  0.5617
  112CHL1   C2314533   5.043   2.766   5.854 -0.3003 -0.3439 -0.6222
  112CHL1  H23A14534   5.086   2.867   5.870 -0.7102 -0.2652  0.0089
  112CHL1  H23B14535   5.133   2.700   5.853 -1.2217 -1.7202  0.9574
  112CHL1   C2414536   4.959   2.766   5.725  0.2048  0.7646 -0.1619
  112CHL1  H24A14537   4.902   2.670   5.721  1.1075  0.2098  0.0696
  112CHL1  H24B14538   4.885   2.848   5.726 -0.6417  0.0578 -1.3392
  112CHL1   C2514539   5.045   2.770   5.599 -0.4292 -0.2376  0.0504
  112CHL1   H2514540   5.130   2.700   5.616  0.1443  0.1471 -1.1577
  112CHL1   C2614541   4.974   2.715   5.477 -0.5744  0.7248  0.0720
  112CHL1  H26A14542   4.944   2.609   5.489  0.1518  0.5642  0.5216
  112CHL1  H26B14543   4.886   2.776   5.448 -0.0573  0.5059 -2.1033
  112CHL1  H26C14544   5.042   2.712   5.390  0.0682  0.3448  0.5775
  112CHL1   C2714545   5.106   2.909   5.569 -0.1091 -0.1591  0.0041
  112CHL1  H27A14546   5.193   2.925   5.636 -0.9187  1.3312  0.7394
  112CHL1  H27B14547   5.141   2.912   5.464  0.2108  1.1300  0.1355
  112CHL1  H27C14548   5.027   2.986   5.584  0.1461  0.1506 -0.2261
  113CHL1    C314549   7.043   4.628   7.343 -0.4338 -0.1187  0.5827
  113CHL1    H314550   6.947   4.683   7.331  0.5994  1.6756  0.0707
  113CHL1    O314551   7.050   4.539   7.451  0.1125  0.4874 -0.1811
  113CHL1   H3'14552   7.141   4.510   7.464 -0.7356 -1.8293  1.2481
  113CHL1    C414553   7.078   4.551   7.213 -0.3442  0.3040 -0.5295
  113CHL1   H4A14554   7.178   4.502   7.216 -1.2517 -1.6609 -0.8600
  113CHL1   H4B14555   7.006   4.467   7.213  0.3755 -0.3240 -0.4674
  113CHL1    C514556   7.060   4.651   7.098 -0.1244  0.4380  0.8916
  113CHL1    C614557   6.977   4.627   6.999 -0.5786  0.5292 -0.4888
  113CHL1    H614558   6.918   4.534   6.994  0.9393 -0.4574 -0.5323
  113CHL1    C714559   6.973   4.712   6.873 -0.9761  0.2078  0.4493
  113CHL1   H7A14560   6.978   4.659   6.776 -0.7071  0.5700  0.2616
  113CHL1   H7B14561   6.880   4.772   6.863 -1.2712 -0.4121 -0.6849
  113CHL1    C814562   7.091   4.815   6.861 -0.8047  0.0255  0.1553
  113CHL1    H814563   7.181   4.760   6.827 -0.5969  0.2588  0.3357
  113CHL1   C1414564   7.054   4.928   6.768  0.1622 -0.8100  0.2321
  113CHL1   H1414565   6.970   4.990   6.807  0.0628  0.0287 -1.2330
  113CHL1   C1514566   7.005   4.887   6.627 -0.1971 -0.2423  0.1663
  113CHL1  H15A14567   7.061   4.795   6.600  2.3953  0.6399  2.0793
  113CHL1  H15B14568   6.897   4.862   6.622  0.0158 -1.3600  0.8889
  113CHL1   C1614569   7.032   5.011   6.537  0.3922  0.0610  0.1641
  113CHL1  H16A14570   7.108   4.985   6.460  0.7901  1.5697  0.0192
  113CHL1  H16B14571   6.935   5.052   6.499 -1.9639 -1.1479  4.2193
  113CHL1   C1714572   7.106   5.117   6.632 -0.4438  0.7712  0.3594
  113CHL1   H1714573   7.027   5.177   6.684 -0.7744  0.0723  0.6705
  113CHL1   C1314574   7.167   5.027   6.738  0.2273 -0.4079  0.0338
  113CHL1   C1814575   7.294   4.961   6.672 -0.0778 -0.3419 -0.0620
  113CHL1  H18A14576   7.335   4.884   6.741 -0.2468  1.5876  2.3162
  113CHL1  H18B14577   7.274   4.920   6.571 -2.3092  1.9757 -0.6696
  113CHL1  H18C14578   7.378   5.030   6.648 -0.3155 -0.1532 -0.3639
  113CHL1   C1214579   7.204   5.087   6.869  0.3787  0.0390  0.4242
  113CHL1  H12A14580   7.294   5.150   6.852  0.0848  1.0196  2.2507
  113CHL1  H12B14581   7.113   5.138   6.906 -0.2847 -0.7998 -0.0266
  113CHL1   C1114582   7.242   4.989   6.985 -0.0053  0.4394 -0.4877
  113CHL1  H11A14583   7.343   4.944   6.969 -1.7893 -3.4048 -2.1541
  113CHL1  H11B14584   7.240   5.039   7.084  1.8802  0.7592 -0.5551
  113CHL1    C914585   7.132   4.876   6.993  0.0076  0.3046 -0.3404
  113CHL1    H914586   7.038   4.930   7.019 -1.6777 -2.5742  0.0077
  113CHL1   C1014587   7.156   4.773   7.114 -0.0396 -0.3664 -0.0116
  113CHL1   C1914588   7.303   4.720   7.112 -0.6412 -0.2321 -0.4525
  113CHL1  H19A14589   7.324   4.676   7.012 -0.3523 -0.9723 -0.0699
  113CHL1  H19B14590   7.376   4.804   7.120 -0.0825 -0.7374 -0.2142
  113CHL1  H19C14591   7.330   4.650   7.194  2.4176  3.7910  2.4257
  113CHL1    C114592   7.133   4.842   7.252  0.6178  0.8741 -0.2578
  113CHL1   H1A14593   7.202   4.927   7.270  2.0273  0.4131 -2.9723
  113CHL1   H1B14594   7.033   4.890   7.254 -0.1723 -0.7082  0.0668
  113CHL1    C214595   7.142   4.742   7.373 -0.5952 -0.4813  0.0812
  113CHL1   H2A14596   7.114   4.797   7.465 -1.2912  0.4528 -0.6706
  113CHL1   H2B14597   7.249   4.712   7.376 -0.9626 -1.7724  1.4099
  113CHL1   C2014598   7.194   5.213   6.554  0.2734  0.4893  0.3260
  113CHL1   H2014599   7.287   5.160   6.526  0.8099  1.4408  0.2340
  113CHL1   C2114600   7.238   5.335   6.640  0.6748  0.0325 -0.3306
  113CHL1  H21A14601   7.320   5.310   6.710 -0.1943  3.0605  2.0183
  113CHL1  H21B14602   7.150   5.371   6.699  2.7593  0.0108  3.0712
  113CHL1  H21C14603   7.283   5.416   6.578 -0.2537  0.1595 -0.8596
  113CHL1   C2214604   7.130   5.264   6.428 -0.0628 -0.5841 -0.0968
  113CHL1  H22A14605   7.116   5.183   6.353  1.2817 -0.5054 -0.4617
  113CHL1  H22B14606   7.036   5.322   6.439  0.1699 -0.5426  2.0519
  113CHL1   C2314607   7.220   5.358   6.350  0.1393 -0.1561  0.7375
  113CHL1  H23A14608   7.229   5.457   6.400  0.1030 -0.3721  1.1788
  113CHL1  H23B14609   7.320   5.310   6.339  0.1049 -0.3687  1.3257
  113CHL1   C2414610   7.179   5.397   6.205 -0.3017  0.7808 -0.5003
  113CHL1  H24A14611   7.194   5.309   6.139 -0.7462 -0.0668  0.5067
  113CHL1  H24B14612   7.075   5.434   6.196 -1.2811 -1.3260  1.2933
  113CHL1   C2514613   7.258   5.522   6.154 -0.0546 -0.0251 -0.1477
  113CHL1   H2514614   7.218   5.596   6.227 -0.0621 -0.4134  0.2505
  113CHL1   C2614615   7.403   5.511   6.163 -0.6158  0.2114  0.2345
  113CHL1  H26A14616   7.464   5.599   6.134  1.8284 -2.3063 -2.9308
  113CHL1  H26B14617   7.442   5.481   6.263 -3.2000  0.0047  1.2601
  113CHL1  H26C14618   7.433   5.444   6.081 -1.2438  1.2325 -0.8619
  113CHL1   C2714619   7.206   5.563   6.017 -0.4277 -0.2163  0.6930
  113CHL1  H27A14620   7.096   5.550   6.010 -0.5787  0.9882  0.5037
  113CHL1  H27B14621   7.205   5.675   6.015 -1.2326 -0.2096 -1.7622
  113CHL1  H27C14622   7.266   5.517   5.935  0.4323 -1.5880  2.0352
  114CHL1    C314623   4.443   2.203   6.877  0.5749  0.3024  0.5451
  114CHL1    H314624   4.387   2.108   6.869 -1.4210  1.3189  1.8073
  114CHL1    O314625   4.466   2.235   7.019  0.3675  0.0616 -0.3533
  114CHL1   H3'14626   4.475   2.330   7.019  0.1273  0.0858  0.2639
  114CHL1    C414627   4.585   2.183   6.816 -0.5643  0.1705  0.4415
  114CHL1   H4A14628   4.651   2.266   6.847 -1.1342  0.1665  1.7112
  114CHL1   H4B14629   4.614   2.089   6.868 -1.2338  0.0318  0.5701
  114CHL1    C514630   4.587   2.160   6.662  0.4261 -0.1066  0.1344
  114CHL1    C614631   4.657   2.065   6.609  0.4498 -0.7606  0.2391
  114CHL1    H614632   4.731   2.011   6.670 -0.6990 -1.2899  1.2269
  114CHL1    C714633   4.663   2.046   6.462  0.2388 -0.2883  0.5339
  114CHL1   H7A14634   4.769   2.029   6.433  0.3713 -0.6732  1.2242
  114CHL1   H7B14635   4.607   1.956   6.429 -0.3207 -0.0021  0.6865
  114CHL1    C814636   4.601   2.162   6.386  0.8509 -0.9189  0.5251
  114CHL1    H814637   4.671   2.248   6.391  1.3932 -1.3502  0.4152
  114CHL1   C1414638   4.575   2.120   6.237  0.6847  0.3695  1.0775
  114CHL1   H1414639   4.502   2.038   6.221  1.5313  0.3468 -4.3382
  114CHL1   C1514640   4.705   2.069   6.167 -0.2703 -0.5991 -0.3010
  114CHL1  H15A14641   4.789   2.140   6.186 -1.1324  0.7565 -1.2933
  114CHL1  H15B14642   4.737   1.971   6.207  1.8863 -0.4683 -1.5698
  114CHL1   C1614643   4.668   2.064   6.021  0.5388  0.0417 -0.2761
  114CHL1  H16A14644   4.757   2.109   5.973  0.8541 -1.3436 -1.0437
  114CHL1  H16B14645   4.643   1.963   5.982  1.2921  0.1191 -0.9942
  114CHL1   C1714646   4.531   2.149   6.010 -0.3737 -0.4009  0.1006
  114CHL1   H1714647   4.444   2.080   6.016 -0.8100  0.2054  1.0261
  114CHL1   C1314648   4.522   2.230   6.142 -0.6529 -0.0205 -0.2969
  114CHL1   C1814649   4.613   2.354   6.137 -0.1516 -0.4163 -0.4131
  114CHL1  H18A14650   4.629   2.399   6.237  0.9788 -3.0611  0.6977
  114CHL1  H18B14651   4.706   2.332   6.080  0.1952  1.8716 -0.8142
  114CHL1  H18C14652   4.562   2.430   6.074 -0.0361 -1.2386 -1.5280
  114CHL1   C1214653   4.385   2.271   6.196  0.1805  0.1894  0.7110
  114CHL1  H12A14654   4.326   2.354   6.150 -0.9940 -0.5687  0.7890
  114CHL1  H12B14655   4.312   2.189   6.177  0.1069  0.4704 -0.2564
  114CHL1   C1114656   4.388   2.311   6.345  0.0816  0.2417  0.4731
  114CHL1  H11A14657   4.432   2.413   6.350 -0.4077  0.4281  1.2527
  114CHL1  H11B14658   4.285   2.318   6.387  0.6802  2.1939  1.7932
  114CHL1    C914659   4.468   2.209   6.439 -0.0430 -0.8295 -0.7831
  114CHL1    H914660   4.400   2.121   6.444 -2.5799  1.0879  1.8848
  114CHL1   C1014661   4.493   2.255   6.583  0.3198  0.6929 -1.3518
  114CHL1   C1914662   4.572   2.381   6.586 -0.3515 -0.2989 -0.1907
  114CHL1  H19A14663   4.503   2.455   6.542 -1.8777  0.0792  2.6257
  114CHL1  H19B14664   4.596   2.407   6.691 -0.5538  2.6867 -0.7951
  114CHL1  H19C14665   4.667   2.387   6.529  0.9357 -2.0234  1.6095
  114CHL1    C114666   4.355   2.264   6.655  0.3662 -0.0646 -0.0769
  114CHL1   H1A14667   4.289   2.333   6.597  0.9644 -0.2481 -0.9874
  114CHL1   H1B14668   4.317   2.161   6.642  0.5738  0.0573 -1.8519
  114CHL1    C214669   4.363   2.311   6.803 -0.2469 -0.0999 -0.3196
  114CHL1   H2A14670   4.263   2.322   6.851  1.1119 -0.0012  2.7376
  114CHL1   H2B14671   4.417   2.407   6.818  0.5332 -0.6685  0.6227
  114CHL1   C2014672   4.512   2.223   5.879 -0.8093 -0.0827  0.2982
  114CHL1   H2014673   4.581   2.309   5.870 -1.5352  0.3211 -1.8761
  114CHL1   C2114674   4.375   2.297   5.874  0.5891  0.3294 -0.5003
  114CHL1  H21A14675   4.377   2.387   5.939  1.4855 -0.0332 -0.0046
  114CHL1  H21B14676   4.297   2.226   5.907 -1.2482  2.8628  0.9327
  114CHL1  H21C14677   4.357   2.333   5.770 -1.9579  0.6181 -0.0196
  114CHL1   C2214678   4.529   2.140   5.745 -0.5207 -0.4087  0.5169
  114CHL1  H22A14679   4.529   2.205   5.656  1.3791 -0.7283  0.2327
  114CHL1  H22B14680   4.633   2.101   5.751 -0.4114  0.0361  1.9331
  114CHL1   C2314681   4.440   2.020   5.729  0.0335  0.2899  0.3470
  114CHL1  H23A14682   4.478   1.951   5.807 -1.8171  0.9904  1.9428
  114CHL1  H23B14683   4.336   2.042   5.762 -0.2863 -0.0051 -0.4245
  114CHL1   C2414684   4.445   1.943   5.593 -0.1766  0.2045 -0.0267
  114CHL1  H24A14685   4.552   1.929   5.565 -0.3377 -0.0938 -0.5088
  114CHL1  H24B14686   4.407   1.842   5.620  0.3500 -0.1663 -0.6308
  114CHL1   C2514687   4.365   2.017   5.478 -0.0343  0.3652 -0.2588
  114CHL1   H2514688   4.419   2.113   5.467  1.4002 -0.2074  1.2969
  114CHL1   C2614689   4.366   1.925   5.355  0.1098 -0.1664  0.1863
  114CHL1  H26A14690   4.321   1.826   5.380  0.6269 -0.9499 -1.7957
  114CHL1  H26B14691   4.311   1.971   5.271 -0.7992  1.3222  1.5339
  114CHL1  H26C14692   4.470   1.905   5.322  0.2379 -0.4035  0.7178
  114CHL1   C2714693   4.219   2.056   5.514 -0.5013  0.9819  0.4592
  114CHL1  H27A14694   4.221   2.136   5.591 -5.3318  1.0820  0.8037
  114CHL1  H27B14695   4.166   2.098   5.425 -1.3901  1.3625  1.1539
  114CHL1  H27C14696   4.165   1.970   5.559 -2.0929  1.8667  0.3073
  115CHL1    C314697   1.912   1.233   6.309  0.0562 -0.1175  0.2226
  115CHL1    H314698   1.864   1.304   6.239  1.9147 -1.1210 -2.2365
  115CHL1    O314699   1.962   1.270   6.441  0.3616 -0.0437  0.0329
  115CHL1   H3'14700   2.039   1.214   6.453 -0.8132 -2.1416 -1.5988
  115CHL1    C414701   1.799   1.128   6.323 -0.3929  0.2849  0.3541
  115CHL1   H4A14702   1.848   1.049   6.384  0.5673  0.6791  0.1138
  115CHL1   H4B14703   1.719   1.171   6.386  0.3147 -1.5756  2.6647
  115CHL1    C514704   1.759   1.063   6.190 -0.2272  0.5592  0.5290
  115CHL1    C614705   1.626   1.058   6.146 -0.3627  0.8680 -0.5211
  115CHL1    H614706   1.547   1.095   6.213 -2.0368  0.4579 -2.1944
  115CHL1    C714707   1.580   1.017   6.011  0.0472 -0.7741 -0.2848
  115CHL1   H7A14708   1.482   0.967   6.029 -0.9757  1.1317 -0.2954
  115CHL1   H7B14709   1.568   1.099   5.938  0.8761  0.0653  0.4938
  115CHL1    C814710   1.690   0.930   5.958 -0.0938  0.2633 -0.0136
  115CHL1    H814711   1.688   0.836   6.017 -1.1002  1.5545  2.1209
  115CHL1   C1414712   1.660   0.906   5.808 -0.2816  0.0135 -0.2272
  115CHL1   H1414713   1.670   1.003   5.755 -0.6078  0.2464  0.1358
  115CHL1   C1514714   1.517   0.859   5.772  0.1277 -0.4639  0.2764
  115CHL1  H15A14715   1.513   0.778   5.849  2.7466  0.8052  1.8911
  115CHL1  H15B14716   1.439   0.933   5.800  0.8474  0.3941  0.0192
  115CHL1   C1614717   1.528   0.810   5.625  0.5929  0.6039 -0.6300
  115CHL1  H16A14718   1.463   0.721   5.614 -1.7568  2.3830 -2.6659
  115CHL1  H16B14719   1.474   0.877   5.554 -1.2676 -0.1177  0.0553
  115CHL1   C1714720   1.680   0.795   5.603 -0.3009 -0.0161 -0.1400
  115CHL1   H1714721   1.716   0.877   5.537  1.3475 -0.3862  0.2459
  115CHL1   C1314722   1.754   0.809   5.739  0.2128  0.3248  0.2319
  115CHL1   C1814723   1.761   0.677   5.812  0.1004 -0.0697 -0.2148
  115CHL1  H18A14724   1.833   0.609   5.762  1.0946 -0.7671  2.0079
  115CHL1  H18B14725   1.800   0.704   5.913  1.3789 -1.3973 -0.3223
  115CHL1  H18C14726   1.661   0.629   5.808  0.4582 -0.9409  0.6798
  115CHL1   C1214727   1.890   0.881   5.730  0.1091  0.1835  0.6848
  115CHL1  H12A14728   1.963   0.818   5.675  0.5870  0.6202  0.8105
  115CHL1  H12B14729   1.885   0.977   5.674  0.2975 -1.8049 -3.0614
  115CHL1   C1114730   1.940   0.913   5.876  0.0925  0.8272  0.0223
  115CHL1  H11A14731   1.987   0.821   5.916  2.4378  1.5585 -0.8428
  115CHL1  H11B14732   2.022   0.987   5.864  1.7222 -0.6156  1.5828
  115CHL1    C914733   1.831   0.991   5.959  0.0796 -0.1908 -0.4978
  115CHL1    H914734   1.811   1.091   5.916  0.1224 -0.4768 -1.1992
  115CHL1   C1014735   1.882   1.010   6.102  0.6547  0.4850 -0.2250
  115CHL1   C1914736   1.917   0.874   6.163 -0.4989  0.3539 -0.6818
  115CHL1  H19A14737   1.823   0.816   6.172 -0.8556  0.8371 -1.2612
  115CHL1  H19B14738   2.002   0.825   6.111 -0.7846 -0.7131 -0.1556
  115CHL1  H19C14739   1.951   0.876   6.269  0.0722  1.3700 -0.8686
  115CHL1    C114740   1.997   1.112   6.107 -0.7225  0.3208  0.8235
  115CHL1   H1A14741   2.088   1.077   6.054 -0.3839  1.9781  0.2808
  115CHL1   H1B14742   1.960   1.191   6.040 -0.1083  0.2749  0.4259
  115CHL1    C214743   2.037   1.176   6.238  0.3924  0.7673 -0.9654
  115CHL1   H2A14744   2.117   1.253   6.243  0.2161  0.9189 -0.3360
  115CHL1   H2B14745   2.064   1.093   6.307  0.5802  1.5074 -0.1283
  115CHL1   C2014746   1.717   0.672   5.515  0.1201  0.3282 -0.1396
  115CHL1   H2014747   1.713   0.583   5.581 -1.9278  0.9205  0.6245
  115CHL1   C2114748   1.864   0.679   5.475 -0.7527  0.0745 -0.1856
  115CHL1  H21A14749   1.882   0.617   5.384 -1.8335  0.0059 -0.3654
  115CHL1  H21B14750   1.926   0.644   5.560 -1.6231 -0.4644  0.2400
  115CHL1  H21C14751   1.897   0.782   5.450  1.1503 -1.0382 -2.7311
  115CHL1   C2214752   1.625   0.640   5.395 -0.1147 -0.6424 -0.5727
  115CHL1  H22A14753   1.667   0.548   5.349  1.6670 -1.2613  2.0476
  115CHL1  H22B14754   1.522   0.614   5.425 -0.2583 -0.9699 -1.3497
  115CHL1   C2314755   1.633   0.760   5.302 -0.4257  0.4702  0.6349
  115CHL1  H23A14756   1.602   0.862   5.335 -1.8407  1.0122 -2.0585
  115CHL1  H23B14757   1.730   0.760   5.248 -0.5694 -2.0137  0.3028
  115CHL1   C2414758   1.549   0.739   5.167 -0.0550  0.7237 -1.2488
  115CHL1  H24A14759   1.587   0.646   5.120 -0.3546  0.6941 -1.4380
  115CHL1  H24B14760   1.447   0.708   5.198  1.4646 -1.6720  1.9122
  115CHL1   C2514761   1.549   0.860   5.074  0.2570 -0.7206  0.0490
  115CHL1   H2514762   1.642   0.917   5.095 -0.5095  1.2640 -1.5688
  115CHL1   C2614763   1.553   0.824   4.928 -0.4650 -0.2027 -1.0026
  115CHL1  H26A14764   1.489   0.738   4.899  1.0624 -1.5236 -0.5953
  115CHL1  H26B14765   1.530   0.903   4.853 -1.5739 -0.0180 -0.4874
  115CHL1  H26C14766   1.653   0.782   4.904 -0.4376 -2.2841  2.1788
  115CHL1   C2714767   1.424   0.941   5.099 -0.7068 -0.0694 -0.5816
  115CHL1  H27A14768   1.328   0.897   5.065 -1.3471 -1.2516  2.4873
  115CHL1  H27B14769   1.427   0.966   5.207  1.5629 -2.4588 -0.0066
  115CHL1  H27C14770   1.426   1.043   5.054  0.6164  1.3376  2.3849
  116CHL1    C314771   3.545   2.668   6.564 -0.0379  0.4137  0.2037
  116CHL1    H314772   3.605   2.576   6.548 -1.2779 -0.5457  0.8724
  116CHL1    O314773   3.562   2.705   6.698  0.0989 -0.0008 -0.0739
  116CHL1   H3'14774   3.634   2.766   6.681 -0.1837  1.1295  2.3612
  116CHL1    C414775   3.586   2.784   6.468  0.5397 -0.5358 -0.4990
  116CHL1   H4A14776   3.513   2.864   6.493  0.7008 -0.1494 -1.2202
  116CHL1   H4B14777   3.688   2.817   6.496  0.2898 -1.2458  1.3414
  116CHL1    C514778   3.566   2.746   6.323 -0.4703  0.6174  0.7021
  116CHL1    C614779   3.669   2.752   6.240  0.3598 -0.0763 -0.2482
  116CHL1    H614780   3.762   2.801   6.270  0.5213  0.9264 -2.2407
  116CHL1    C714781   3.665   2.712   6.097 -0.1862 -0.4014  0.3581
  116CHL1   H7A14782   3.725   2.787   6.042  1.1888 -2.0624 -0.4773
  116CHL1   H7B14783   3.710   2.612   6.084 -1.5383 -1.0804  0.7502
  116CHL1    C814784   3.519   2.702   6.047  0.1267  0.2900  0.1246
  116CHL1    H814785   3.480   2.805   6.033 -0.9909 -0.2862 -1.3315
  116CHL1   C1414786   3.520   2.631   5.916 -0.4553 -0.5517 -0.4673
  116CHL1   H1414787   3.562   2.528   5.921 -1.0928 -0.7808  0.5127
  116CHL1   C1514788   3.611   2.695   5.808 -0.7598  0.5552 -0.7942
  116CHL1  H15A14789   3.597   2.805   5.817  0.3018  0.5388  2.2754
  116CHL1  H15B14790   3.721   2.687   5.824 -0.6494  2.7522 -0.1712
  116CHL1   C1614791   3.563   2.634   5.678  0.4496  0.1987  0.1257
  116CHL1  H16A14792   3.556   2.716   5.603 -1.2840 -1.4397 -1.6120
  116CHL1  H16B14793   3.649   2.571   5.645  0.7108  0.4803  0.2553
  116CHL1   C1714794   3.433   2.559   5.716  0.3524  0.0139 -0.2530
  116CHL1   H1714795   3.466   2.455   5.738  0.0252 -0.7255 -2.8581
  116CHL1   C1314796   3.389   2.617   5.852  0.5834  0.3026  0.1681
  116CHL1   C1814797   3.321   2.750   5.825  0.1676 -0.1146 -0.2222
  116CHL1  H18A14798   3.290   2.808   5.915 -0.1593 -2.1092  1.0140
  116CHL1  H18B14799   3.395   2.809   5.767  1.5863  1.4659  2.9282
  116CHL1  H18C14800   3.218   2.743   5.784  0.5842  1.5991 -1.7122
  116CHL1   C1214801   3.310   2.524   5.943  0.0606 -0.9774 -0.2709
  116CHL1  H12A14802   3.211   2.511   5.896 -0.3417  0.4791  0.1191
  116CHL1  H12B14803   3.358   2.425   5.931  3.0513  0.3830 -0.5755
  116CHL1   C1114804   3.300   2.577   6.084 -0.1466  0.6764 -0.1714
  116CHL1  H11A14805   3.246   2.674   6.080  2.0348  2.0796  1.7771
  116CHL1  H11B14806   3.242   2.508   6.149 -1.2756 -0.3517 -2.1678
  116CHL1    C914807   3.434   2.623   6.144 -0.0792 -0.2798  0.8538
  116CHL1    H914808   3.482   2.525   6.165  2.6743  0.8146 -0.0289
  116CHL1   C1014809   3.425   2.685   6.284 -0.4605 -0.4035 -0.5356
  116CHL1   C1914810   3.319   2.798   6.286  0.3736  0.1609 -0.6903
  116CHL1  H19A14811   3.216   2.755   6.283 -0.1449  1.2885  0.3520
  116CHL1  H19B14812   3.327   2.853   6.382  0.6107 -0.0123 -0.6093
  116CHL1  H19C14813   3.334   2.864   6.198 -0.1121  2.2851  0.7693
  116CHL1    C114814   3.391   2.578   6.388  0.4826 -0.1626 -0.8564
  116CHL1   H1A14815   3.284   2.556   6.368 -0.4414  4.0009 -1.3334
  116CHL1   H1B14816   3.442   2.482   6.366  0.6656 -0.2902  0.0607
  116CHL1    C214817   3.397   2.622   6.533  0.0016 -0.0264  0.9210
  116CHL1   H2A14818   3.370   2.534   6.595  0.7400 -0.9387 -0.0288
  116CHL1   H2B14819   3.321   2.701   6.551  0.5566  1.1221 -1.3662
  116CHL1   C2014820   3.335   2.545   5.601  0.6532  0.1176 -0.1925
  116CHL1   H2014821   3.315   2.649   5.567 -2.4105 -0.0202  0.9133
  116CHL1   C2114822   3.198   2.490   5.643 -0.3978  0.3018  0.4636
  116CHL1  H21A14823   3.192   2.390   5.689  2.5277  0.4939  1.4415
  116CHL1  H21B14824   3.127   2.489   5.558 -0.3583 -0.0851  0.4346
  116CHL1  H21C14825   3.152   2.565   5.712  2.0475  1.1255  1.2904
  116CHL1   C2214826   3.390   2.449   5.488  0.1370  0.0472  0.4670
  116CHL1  H22A14827   3.500   2.465   5.491  0.2999 -0.6917 -1.0024
  116CHL1  H22B14828   3.362   2.346   5.517  1.4690 -0.4555  0.0414
  116CHL1   C2314829   3.337   2.482   5.354  0.3371  0.7727  1.4593
  116CHL1  H23A14830   3.227   2.499   5.351  0.2959  0.5382 -1.6982
  116CHL1  H23B14831   3.371   2.583   5.323 -1.1215  0.6721 -0.7506
  116CHL1   C2414832   3.367   2.375   5.244 -0.1465  0.0936 -0.6714
  116CHL1  H24A14833   3.476   2.355   5.235 -0.4619 -1.8001 -0.8453
  116CHL1  H24B14834   3.323   2.279   5.280  1.5461  0.5074  2.8927
  116CHL1   C2514835   3.331   2.415   5.099  0.2333 -0.2936 -0.8720
  116CHL1   H2514836   3.220   2.421   5.091  0.0298  0.4550  1.5963
  116CHL1   C2614837   3.416   2.529   5.052  0.1032 -0.2665  0.4984
  116CHL1  H26A14838   3.524   2.506   5.055  0.6275  2.0178  1.4136
  116CHL1  H26B14839   3.384   2.543   4.946 -0.2154 -0.9506  0.4973
  116CHL1  H26C14840   3.398   2.621   5.112  0.1335  1.1097 -1.4879
  116CHL1   C2714841   3.360   2.302   4.988  0.6551  0.5450 -0.1551
  116CHL1  H27A14842   3.314   2.207   5.024  0.6308  0.9535  0.9430
  116CHL1  H27B14843   3.328   2.331   4.886  1.9460 -2.7507 -1.6423
  116CHL1  H27C14844   3.470   2.295   4.979  0.5605 -0.5781 -0.5791
  117CHL1    C314845   6.216   0.514   7.213  0.3988  0.6095 -0.0010
  117CHL1    H314846   6.316   0.471   7.239 -0.0498  0.8590  2.3824
  117CHL1    O314847   6.161   0.535   7.341 -1.1677 -0.0621 -0.0102
  117CHL1   H3'14848   6.132   0.446   7.365 -1.1588 -0.1525 -0.3257
  117CHL1    C414849   6.216   0.637   7.131 -1.0426  0.5216 -0.1127
  117CHL1   H4A14850   6.107   0.659   7.132 -0.9656  0.9256 -0.2828
  117CHL1   H4B14851   6.272   0.710   7.193  0.0272 -1.3359  1.1970
  117CHL1    C514852   6.290   0.604   7.000 -0.0015 -0.9499 -0.4726
  117CHL1    C614853   6.408   0.668   6.975  0.6210  0.0696 -0.3770
  117CHL1    H614854   6.440   0.747   7.045  1.4922  0.5458 -1.2840
  117CHL1    C714855   6.495   0.643   6.856 -0.3690 -0.6885  0.0054
  117CHL1   H7A14856   6.535   0.742   6.824 -1.7984 -0.4052 -0.9778
  117CHL1   H7B14857   6.590   0.589   6.875 -0.6890 -1.5223 -0.7353
  117CHL1    C814858   6.409   0.568   6.742  0.2113 -0.5259 -0.2438
  117CHL1    H814859   6.329   0.633   6.701 -1.1166 -1.7058  0.4219
  117CHL1   C1414860   6.502   0.521   6.641 -0.0105  0.6387  0.5797
  117CHL1   H1414861   6.577   0.454   6.687 -1.0744 -1.7278 -0.9287
  117CHL1   C1514862   6.596   0.619   6.562 -0.2069  0.0796 -0.4449
  117CHL1  H15A14863   6.542   0.715   6.545  0.9660  1.6109  3.4896
  117CHL1  H15B14864   6.682   0.652   6.624  0.6519  0.0807 -1.6064
  117CHL1   C1614865   6.633   0.554   6.429 -0.5016  0.2788 -0.2218
  117CHL1  H16A14866   6.605   0.622   6.345 -1.1179 -0.4611 -0.6274
  117CHL1  H16B14867   6.744   0.542   6.432 -0.3136  1.9756  2.0420
  117CHL1   C1714868   6.555   0.419   6.423 -0.2039 -0.5601 -0.0851
  117CHL1   H1714869   6.628   0.354   6.476 -0.7986  1.2355  3.1813
  117CHL1   C1314870   6.442   0.438   6.525  0.0579 -0.0516  0.2109
  117CHL1   C1814871   6.340   0.536   6.460  0.6737  0.7828 -0.1543
  117CHL1  H18A14872   6.300   0.479   6.373 -2.6560 -0.6272  2.0528
  117CHL1  H18B14873   6.251   0.535   6.528  0.6022 -1.9856 -0.1542
  117CHL1  H18C14874   6.376   0.639   6.441  1.8278  0.5517  0.6693
  117CHL1   C1214875   6.393   0.302   6.585  0.6112  0.2811  0.2763
  117CHL1  H12A14876   6.347   0.229   6.515  0.1926  0.4444  0.3759
  117CHL1  H12B14877   6.482   0.252   6.630  1.4329  0.3508 -1.2091
  117CHL1   C1114878   6.297   0.333   6.700 -0.5992 -0.2623 -0.2216
  117CHL1  H11A14879   6.202   0.365   6.653  0.7602  1.1598 -2.1821
  117CHL1  H11B14880   6.267   0.245   6.760 -0.1314  0.6332  1.3922
  117CHL1    C914881   6.346   0.443   6.803  0.2479 -0.3139  0.4591
  117CHL1    H914882   6.437   0.397   6.848  1.3022  0.5666 -0.7102
  117CHL1   C1014883   6.245   0.491   6.913 -0.0866 -0.3141  0.3962
  117CHL1   C1914884   6.118   0.543   6.835  0.3673 -0.1325  0.3208
  117CHL1  H19A14885   6.033   0.532   6.906  0.8387 -1.2715  0.7202
  117CHL1  H19B14886   6.135   0.640   6.784 -0.3009 -0.9600 -1.5499
  117CHL1  H19C14887   6.075   0.467   6.767 -0.3923 -0.1066  0.7503
  117CHL1    C114888   6.202   0.369   7.003 -0.3648 -0.3436 -0.4840
  117CHL1   H1A14889   6.141   0.291   6.952 -0.6784 -1.9379  2.1279
  117CHL1   H1B14890   6.304   0.332   7.028  0.8357  0.5652 -3.5750
  117CHL1    C214891   6.135   0.400   7.139  0.2390  0.6950  1.0372
  117CHL1   H2A14892   6.141   0.310   7.204  0.5593 -1.7089 -2.0860
  117CHL1   H2B14893   6.029   0.420   7.111 -0.0800 -0.0218  1.6744
  117CHL1   C2014894   6.537   0.373   6.282  0.0794 -0.3968 -0.3690
  117CHL1   H2014895   6.478   0.446   6.223  1.1193  0.1867 -0.7061
  117CHL1   C2114896   6.455   0.236   6.270  0.0792 -0.4551 -0.2805
  117CHL1  H21A14897   6.501   0.147   6.318  0.7525 -1.1172 -2.0695
  117CHL1  H21B14898   6.418   0.226   6.166 -1.5977  0.8213  0.1519
  117CHL1  H21C14899   6.360   0.266   6.318  1.0608 -1.4875  2.5405
  117CHL1   C2214900   6.673   0.353   6.218  0.0441 -0.0166  0.0414
  117CHL1  H22A14901   6.732   0.446   6.229  0.1535 -0.1458  0.5718
  117CHL1  H22B14902   6.730   0.269   6.263 -0.4367 -1.8366 -2.4630
  117CHL1   C2314903   6.669   0.319   6.065 -0.9194 -0.0937  0.6530
  117CHL1  H23A14904   6.775   0.315   6.031 -1.0113  0.8293  0.2192
  117CHL1  H23B14905   6.620   0.219   6.061  0.1335 -0.6362  1.0019
  117CHL1   C2414906   6.598   0.416   5.967 -0.2458  0.0962  0.0400
  117CHL1  H24A14907   6.496   0.373   5.959  0.9662 -3.7403  2.5727
  117CHL1  H24B14908   6.598   0.522   5.997 -1.0606  0.8647 -2.4315
  117CHL1   C2514909   6.662   0.406   5.826 -0.7364  0.9042  0.0267
  117CHL1   H2514910   6.770   0.432   5.828 -0.3166 -0.4794 -1.6823
  117CHL1   C2614911   6.642   0.261   5.762  0.0898 -0.3793 -0.2095
  117CHL1  H26A14912   6.700   0.193   5.828  0.5290 -0.6262 -0.8388
  117CHL1  H26B14913   6.535   0.239   5.744 -0.5014  2.5724 -0.8936
  117CHL1  H26C14914   6.690   0.259   5.662 -0.0647  0.7787 -0.3182
  117CHL1   C2714915   6.598   0.506   5.726  0.7010 -0.5055  0.3521
  117CHL1  H27A14916   6.487   0.512   5.733  0.7961  0.4994  1.3299
  117CHL1  H27B14917   6.622   0.608   5.762 -0.5859 -0.0508 -0.0283
  117CHL1  H27C14918   6.627   0.490   5.620  0.9484  1.8176  0.0117
  118CHL1    C314919   7.025   1.480   7.139 -0.2241  0.4645 -0.3123
  118CHL1    H314920   6.925   1.489   7.092 -0.0258  1.2582 -0.5960
  118CHL1    O314921   6.994   1.475   7.281  0.0961  0.1342  0.3335
  118CHL1   H3'14922   7.084   1.467   7.313 -0.9490  0.7026  3.8533
  118CHL1    C414923   7.103   1.351   7.098  0.1829  0.4187  0.2067
  118CHL1   H4A14924   7.186   1.356   7.171 -1.2939  0.9159  1.9372
  118CHL1   H4B14925   7.045   1.259   7.124  1.2475 -0.6860 -1.1619
  118CHL1    C514926   7.163   1.349   6.958  0.6644 -0.1556  0.0726
  118CHL1    C614927   7.138   1.246   6.875 -0.5310 -0.1118 -0.3643
  118CHL1    H614928   7.082   1.158   6.910 -1.0513  1.1639  2.2117
  118CHL1    C714929   7.195   1.237   6.735  0.5474 -0.2163  0.0665
  118CHL1   H7A14930   7.253   1.144   6.717 -0.0991 -0.5121 -0.5684
  118CHL1   H7B14931   7.113   1.247   6.660 -0.9566 -2.2939  1.3338
  118CHL1    C814932   7.293   1.347   6.703 -0.3473  0.5147  0.1593
  118CHL1    H814933   7.392   1.317   6.744 -1.1318 -0.3749  1.4543
  118CHL1   C1414934   7.308   1.368   6.554  0.4373 -0.6527  1.0439
  118CHL1   H1414935   7.207   1.406   6.531 -0.1428 -0.6281  3.4055
  118CHL1   C1514936   7.330   1.242   6.465 -0.1751  0.3146 -0.6629
  118CHL1  H15A14937   7.419   1.187   6.502  0.0110 -0.7028 -2.5551
  118CHL1  H15B14938   7.241   1.177   6.453 -1.9772  2.4744  0.1722
  118CHL1   C1614939   7.368   1.310   6.333 -0.0668  0.2230  0.5496
  118CHL1  H16A14940   7.464   1.261   6.303  0.5035  1.4574  0.3019
  118CHL1  H16B14941   7.293   1.301   6.252  0.4482  1.5442 -0.0949
  118CHL1   C1714942   7.389   1.462   6.360 -0.0045  0.0846 -0.1090
  118CHL1   H1714943   7.292   1.513   6.346  0.0615  0.0574 -0.7118
  118CHL1   C1314944   7.411   1.468   6.510 -0.5440 -0.2222 -0.1424
  118CHL1   C1814945   7.554   1.419   6.546 -0.1992  0.6254 -0.2014
  118CHL1  H18A14946   7.629   1.495   6.513  1.3278 -0.9353 -0.4744
  118CHL1  H18B14947   7.562   1.400   6.655  0.4477 -0.4210 -0.4105
  118CHL1  H18C14948   7.590   1.324   6.502  0.3112  0.6704  0.1150
  118CHL1   C1214949   7.382   1.608   6.575 -0.6318  0.2492  0.6099
  118CHL1  H12A14950   7.460   1.685   6.558  1.9896 -1.5738  3.4108
  118CHL1  H12B14951   7.282   1.636   6.535 -1.5167 -1.6897  1.3532
  118CHL1   C1114952   7.369   1.588   6.725 -0.6683  0.3553 -0.3590
  118CHL1  H11A14953   7.467   1.569   6.772  0.0162  0.3970 -1.7272
  118CHL1  H11B14954   7.336   1.687   6.761 -1.4312  1.2141 -3.1613
  118CHL1    C914955   7.268   1.480   6.767  0.7041 -0.4509  0.2665
  118CHL1    H914956   7.175   1.524   6.723  0.5380  1.3934  2.3023
  118CHL1   C1014957   7.240   1.476   6.921  0.0090  0.5648 -0.7734
  118CHL1   C1914958   7.374   1.451   6.999  0.3310  0.3947  0.1403
  118CHL1  H19A14959   7.376   1.441   7.109  1.0451 -0.5782  0.0547
  118CHL1  H19B14960   7.421   1.355   6.967  0.2701  0.2289  0.5364
  118CHL1  H19C14961   7.434   1.537   6.963  0.9044 -0.3972 -0.8630
  118CHL1    C114962   7.165   1.603   6.965  0.1718 -0.5258 -0.0280
  118CHL1   H1A14963   7.235   1.687   6.944  0.5551 -1.1073 -1.1948
  118CHL1   H1B14964   7.078   1.619   6.898 -0.8437  2.1102  1.7468
  118CHL1    C214965   7.117   1.603   7.117  0.6939  0.3618  0.3186
  118CHL1   H2A14966   7.079   1.704   7.143 -0.6810 -0.0382 -0.0548
  118CHL1   H2B14967   7.213   1.592   7.172  1.8700 -0.5122 -1.7988
  118CHL1   C2014968   7.495   1.529   6.267  0.2415  0.5026  0.4965
  118CHL1   H2014969   7.544   1.613   6.322  0.4528  0.2121  0.7549
  118CHL1   C2114970   7.411   1.584   6.144  0.1137 -0.4602  0.2883
  118CHL1  H21A14971   7.475   1.644   6.076  0.8562 -0.7998  0.6800
  118CHL1  H21B14972   7.328   1.647   6.183  1.5772  1.6471  0.1875
  118CHL1  H21C14973   7.371   1.498   6.086  0.4249 -0.5779  0.2457
  118CHL1   C2214974   7.603   1.435   6.208  0.1481 -0.1294 -0.3188
  118CHL1  H22A14975   7.650   1.371   6.285 -0.3364 -1.1331 -0.8381
  118CHL1  H22B14976   7.554   1.370   6.133 -0.5071 -0.0641  0.0442
  118CHL1   C2314977   7.710   1.509   6.133  0.1844 -0.2159  0.8451
  118CHL1  H23A14978   7.673   1.568   6.047  2.3035  0.2778  0.1957
  118CHL1  H23B14979   7.745   1.577   6.213 -1.1091 -0.1540  1.3749
  118CHL1   C2414980   7.826   1.411   6.112 -0.4697 -0.3882  0.6188
  118CHL1  H24A14981   7.855   1.370   6.211  2.5143  0.2580  0.1056
  118CHL1  H24B14982   7.793   1.329   6.045  0.2139 -0.8852  0.8753
  118CHL1   C2514983   7.951   1.480   6.061  0.8912  0.2482  0.4094
  118CHL1   H2514984   7.958   1.574   6.119 -1.2992  0.2307  0.7649
  118CHL1   C2614985   8.082   1.400   6.088 -0.9485 -0.3498  0.4853
  118CHL1  H26A14986   8.063   1.297   6.050 -2.8446 -0.1138  0.6727
  118CHL1  H26B14987   8.165   1.433   6.023 -0.8654  1.1341  1.2954
  118CHL1  H26C14988   8.118   1.397   6.193 -0.7516  0.3308  0.4392
  118CHL1   C2714989   7.935   1.512   5.914 -0.1053  0.7229  0.2346
  118CHL1  H27A14990   7.917   1.412   5.869 -2.6410  1.2303 -0.0015
  118CHL1  H27B14991   7.847   1.575   5.889  1.1046  2.1248 -0.6402
  118CHL1  H27C14992   8.016   1.574   5.869 -0.9067  2.8428  1.5539
  119CHL1    C314993   1.774   0.479   6.360  0.1223 -0.2880  0.1037
  119CHL1    H314994   1.728   0.571   6.317  1.0379  0.3195  0.3856
  119CHL1    O314995   1.747   0.492   6.500 -0.1764 -0.1802 -0.2648
  119CHL1   H3'14996   1.776   0.407   6.532 -1.2483 -0.4376  0.0540
  119CHL1    C414997   1.703   0.360   6.309  0.6132  0.1819 -0.6188
  119CHL1   H4A14998   1.736   0.273   6.371 -2.4390  0.0940  1.1018
  119CHL1   H4B14999   1.595   0.375   6.332  0.9554 -0.9662  2.1764
  119CHL1    C515000   1.729   0.346   6.161 -0.3156 -0.0523  0.2519
  119CHL1    C615001   1.634   0.339   6.075  0.1764 -0.5205 -0.0423
  119CHL1    H615002   1.530   0.350   6.107  0.2172  0.5467 -0.2517
  119CHL1    C715003   1.663   0.306   5.931  0.5634 -0.1864  0.2024
  119CHL1   H7A15004   1.598   0.225   5.893 -0.6160  0.1828  1.3506
  119CHL1   H7B15005   1.643   0.394   5.865 -0.3591 -0.9286 -0.5427
  119CHL1    C815006   1.809   0.267   5.900 -0.3697  0.1594  0.3634
  119CHL1    H815007   1.825   0.161   5.927  2.7378  0.9355  2.1518
  119CHL1   C1415008   1.840   0.285   5.755  0.5054 -0.1584 -0.1488
  119CHL1   H1415009   1.836   0.393   5.731 -0.7363 -0.5039 -1.7187
  119CHL1   C1515010   1.753   0.219   5.648  0.7159 -0.5816  0.1221
  119CHL1  H15A15011   1.721   0.115   5.666 -1.5933  0.2619  1.3434
  119CHL1  H15B15012   1.654   0.270   5.635  1.9269  1.8867 -0.1290
  119CHL1   C1615013   1.835   0.222   5.516 -0.4200 -0.0285  0.2802
  119CHL1  H16A15014   1.856   0.119   5.478  2.6678  0.0212  1.5333
  119CHL1  H16B15015   1.789   0.292   5.444  0.2162  0.7318  0.5906
  119CHL1   C1715016   1.973   0.272   5.561 -0.4627  0.1313  0.2821
  119CHL1   H1715017   1.963   0.382   5.548  0.0487  0.5398  2.8278
  119CHL1   C1315018   1.980   0.240   5.710 -0.5505  0.3953 -0.0882
  119CHL1   C1815019   2.002   0.085   5.725 -1.0878 -0.0032  0.0139
  119CHL1  H18A15020   1.938   0.030   5.652  0.5802  0.7668 -2.1557
  119CHL1  H18B15021   2.109   0.066   5.701 -1.3609 -0.7092 -0.7183
  119CHL1  H18C15022   1.985   0.058   5.831  0.7225  0.0733  0.3453
  119CHL1   C1215023   2.089   0.329   5.782 -0.6014 -0.1309 -0.9301
  119CHL1  H12A15024   2.185   0.285   5.748 -1.0134 -1.8470  0.0245
  119CHL1  H12B15025   2.071   0.435   5.753  0.0211  1.4134  3.4468
  119CHL1   C1115026   2.066   0.317   5.933  0.2751 -0.4562  0.1098
  119CHL1  H11A15027   2.085   0.213   5.968 -1.8705 -0.5046  1.3274
  119CHL1  H11B15028   2.143   0.377   5.987 -1.2732  1.2631  0.5103
  119CHL1    C915029   1.915   0.340   5.982  0.0412 -0.6026  0.6242
  119CHL1    H915030   1.905   0.446   5.950  2.1721 -0.2875  0.8389
  119CHL1   C1015031   1.883   0.335   6.133  0.2451 -0.0141  0.0904
  119CHL1   C1915032   1.942   0.204   6.191  0.5546  0.6036 -0.4356
  119CHL1  H19A15033   1.902   0.114   6.141 -1.3770  0.6756  0.8569
  119CHL1  H19B15034   2.052   0.208   6.173  0.6242  1.4537  0.0885
  119CHL1  H19C15035   1.926   0.184   6.299 -1.8265  0.5998 -0.7320
  119CHL1    C115036   1.945   0.459   6.197 -0.4452 -0.0812  0.6351
  119CHL1   H1A15037   2.054   0.440   6.191 -0.6854 -1.2197 -0.6628
  119CHL1   H1B15038   1.924   0.555   6.145  0.5877 -0.0797  0.1945
  119CHL1    C215039   1.924   0.478   6.342 -0.3612  0.6083 -0.0446
  119CHL1   H2A15040   1.981   0.557   6.396  2.5802 -0.5498 -1.2446
  119CHL1   H2B15041   1.952   0.385   6.396  0.8517  0.5350 -0.7712
  119CHL1   C2015042   2.083   0.214   5.471 -0.0100 -0.1976  0.1951
  119CHL1   H2015043   2.088   0.104   5.483 -0.7004 -0.2716 -0.1418
  119CHL1   C2115044   2.223   0.257   5.511  0.3455  0.1198 -0.6192
  119CHL1  H21A15045   2.222   0.360   5.553 -1.6660 -0.6736  1.4832
  119CHL1  H21B15046   2.301   0.251   5.431  3.5503  0.6928  2.2155
  119CHL1  H21C15047   2.263   0.196   5.595  0.9286  2.9369  1.3022
  119CHL1   C2215048   2.072   0.251   5.318  0.9649  0.6026  0.2012
  119CHL1  H22A15049   2.142   0.192   5.255  0.2479  0.2629 -0.2915
  119CHL1  H22B15050   1.968   0.221   5.291  1.1424  1.6671 -1.8604
  119CHL1   C2315051   2.074   0.399   5.285 -0.1139 -0.1081 -0.2355
  119CHL1  H23A15052   2.005   0.452   5.354  3.0168  1.9377  1.5611
  119CHL1  H23B15053   2.171   0.445   5.313 -0.6961  1.5646 -0.8101
  119CHL1   C2415054   2.031   0.432   5.142  0.4963 -0.0873 -0.0588
  119CHL1  H24A15055   2.101   0.388   5.068 -0.2077 -0.4773 -0.5050
  119CHL1  H24B15056   1.928   0.398   5.121  0.9286 -0.7718 -1.1585
  119CHL1   C2515057   2.012   0.581   5.121  0.9194  0.0600  0.6921
  119CHL1   H2515058   1.953   0.631   5.201  0.4136  0.9627 -0.2177
  119CHL1   C2615059   2.143   0.657   5.125 -0.3303  0.3864  0.2990
  119CHL1  H26A15060   2.118   0.761   5.095 -2.5094  0.1970  1.2500
  119CHL1  H26B15061   2.199   0.646   5.220 -1.4833  1.8890  1.1963
  119CHL1  H26C15062   2.207   0.617   5.044  1.7369 -0.2030  2.1427
  119CHL1   C2715063   1.942   0.588   4.985 -0.5235  0.3228 -0.3927
  119CHL1  H27A15064   1.932   0.695   4.955  0.8655  0.4325 -0.5245
  119CHL1  H27B15065   2.014   0.550   4.910 -0.0664  2.1327 -0.9300
  119CHL1  H27C15066   1.844   0.536   4.988 -0.0183 -0.6266  1.4653
  120CHL1    C315067   1.460   1.557   6.297 -0.0010 -0.3826 -0.5393
  120CHL1    H315068   1.356   1.573   6.334  0.2597 -0.2304  0.1362
  120CHL1    O315069   1.537   1.618   6.403 -0.2464 -0.3256 -0.7603
  120CHL1   H3'15070   1.620   1.646   6.364  1.2796  0.5330  2.7426
  120CHL1    C415071   1.492   1.410   6.280 -0.1213  0.1324  0.6980
  120CHL1   H4A15072   1.599   1.383   6.271 -0.1518  0.4904 -1.0272
  120CHL1   H4B15073   1.461   1.380   6.383  1.5410  0.1874  1.2448
  120CHL1    C515074   1.411   1.356   6.168  0.0031 -0.6336  0.3033
  120CHL1    C615075   1.320   1.257   6.177 -0.2628  0.0184  0.9525
  120CHL1    H615076   1.309   1.196   6.268 -0.5869 -1.4683 -0.0434
  120CHL1    C715077   1.236   1.201   6.062 -1.0609 -0.3775 -0.2197
  120CHL1   H7A15078   1.238   1.090   6.067  0.7567 -0.3374  1.6850
  120CHL1   H7B15079   1.130   1.232   6.068 -1.1670 -0.9798  2.9082
  120CHL1    C815080   1.289   1.245   5.920 -0.3155 -0.8021 -0.9055
  120CHL1    H815081   1.382   1.184   5.915 -0.2152 -0.6839 -0.5051
  120CHL1   C1415082   1.185   1.208   5.813 -0.3124 -0.4978  0.0454
  120CHL1   H1415083   1.095   1.269   5.838 -0.2178 -0.6475  0.7713
  120CHL1   C1515084   1.135   1.066   5.803 -0.6240  0.1766  1.0688
  120CHL1  H15A15085   1.207   0.986   5.832 -0.3190 -0.3256 -0.9264
  120CHL1  H15B15086   1.046   1.047   5.867  0.2721  1.3929  2.7463
  120CHL1   C1615087   1.099   1.049   5.652  0.1345 -0.6668  0.3206
  120CHL1  H16A15088   1.167   0.979   5.599  0.6704 -0.9641  1.3849
  120CHL1  H16B15089   0.994   1.013   5.640  0.4891 -2.9009  2.8608
  120CHL1   C1715090   1.122   1.184   5.585  0.4840  0.7632 -0.3181
  120CHL1   H1715091   1.038   1.257   5.595 -1.2443 -0.7163 -3.0663
  120CHL1   C1315092   1.232   1.251   5.672  0.7822  0.0261  0.6894
  120CHL1   C1815093   1.373   1.185   5.644  0.3824  0.4280  0.2179
  120CHL1  H18A15094   1.359   1.082   5.604 -0.1128  0.1841  0.9914
  120CHL1  H18B15095   1.423   1.240   5.561 -0.1554 -4.4021 -3.7709
  120CHL1  H18C15096   1.434   1.173   5.736  0.4249  0.0595  0.1424
  120CHL1   C1215097   1.240   1.403   5.670 -0.7684 -0.5746  0.3111
  120CHL1  H12A15098   1.274   1.445   5.573  1.5771 -1.8147  0.5242
  120CHL1  H12B15099   1.141   1.451   5.689  1.1500  3.8673  0.3037
  120CHL1   C1115100   1.338   1.456   5.777  0.2274 -0.6688  0.0708
  120CHL1  H11A15101   1.439   1.436   5.737  0.3877  0.6729 -0.2473
  120CHL1  H11B15102   1.338   1.564   5.802 -0.2222 -0.5499 -0.4259
  120CHL1    C915103   1.318   1.394   5.921 -0.4432 -0.9671  0.1589
  120CHL1    H915104   1.221   1.437   5.953 -0.5769 -0.3351 -1.0477
  120CHL1   C1015105   1.426   1.430   6.027  0.1382 -0.1936 -0.4204
  120CHL1   C1915106   1.562   1.394   5.959  0.2962  0.1089 -0.8874
  120CHL1  H19A15107   1.604   1.486   5.913  0.5950  1.3877  1.7295
  120CHL1  H19B15108   1.637   1.356   6.032  0.3997  0.5443 -0.7665
  120CHL1  H19C15109   1.548   1.303   5.897 -0.3631 -1.3710  1.3029
  120CHL1    C115110   1.416   1.580   6.052  0.5630  0.9155  0.3503
  120CHL1   H1A15111   1.458   1.642   5.970  0.1984  0.0460 -0.5110
  120CHL1   H1B15112   1.307   1.601   6.056  0.3680 -0.0635  0.3049
  120CHL1    C215113   1.486   1.638   6.173 -0.2180  0.1310  0.1484
  120CHL1   H2A15114   1.444   1.738   6.193 -0.7050  0.8311 -3.6638
  120CHL1   H2B15115   1.596   1.642   6.155 -0.4763  1.1230 -1.3044
  120CHL1   C2015116   1.135   1.170   5.426  0.6480  0.1543  0.1600
  120CHL1   H2015117   1.212   1.091   5.419  0.5836  0.1154 -0.1337
  120CHL1   C2115118   1.200   1.295   5.356  0.5165  0.1358 -0.7032
  120CHL1  H21A15119   1.130   1.379   5.377  0.0424 -0.9965  3.0119
  120CHL1  H21B15120   1.200   1.280   5.246 -0.2914 -1.7210 -0.4906
  120CHL1  H21C15121   1.301   1.305   5.400 -0.4067 -1.1669  1.9462
  120CHL1   C2215122   1.008   1.112   5.352  0.1355 -0.3665 -0.1055
  120CHL1  H22A15123   1.028   1.092   5.245 -0.7090  0.9960 -0.5451
  120CHL1  H22B15124   0.971   1.017   5.396  1.4369 -0.0533  1.7997
  120CHL1   C2315125   0.881   1.203   5.343 -0.1039  0.3989  0.5398
  120CHL1  H23A15126   0.840   1.216   5.445 -3.8597  0.6539 -0.8349
  120CHL1  H23B15127   0.917   1.304   5.315  0.4794 -0.0265 -0.3010
  120CHL1   C2415128   0.776   1.158   5.248 -0.4106  0.0626 -0.3310
  120CHL1  H24A15129   0.804   1.162   5.141 -2.6424 -1.1184 -1.0325
  120CHL1  H24B15130   0.776   1.048   5.266 -0.4683 -0.0979 -1.2397
  120CHL1   C2515131   0.639   1.223   5.259  0.1681  0.2664 -0.7633
  120CHL1   H2515132   0.601   1.199   5.360  2.9917  2.6560  1.0381
  120CHL1   C2615133   0.646   1.381   5.245  0.4359 -0.7030 -0.1387
  120CHL1  H26A15134   0.728   1.425   5.305 -0.1806  1.1153 -0.5617
  120CHL1  H26B15135   0.671   1.414   5.142  1.1764  1.7514  0.7677
  120CHL1  H26C15136   0.558   1.434   5.287  2.7064  3.6542 -0.3379
  120CHL1   C2715137   0.562   1.172   5.134 -0.3261  0.2722 -0.3786
  120CHL1  H27A15138   0.544   1.064   5.146  1.9894 -0.2609 -1.1688
  120CHL1  H27B15139   0.468   1.231   5.137 -0.5578 -0.0789  2.9218
  120CHL1  H27C15140   0.616   1.186   5.038  0.4859 -0.9935 -0.1297
  121CHL1    C315141   2.633   2.206   3.077  0.3538  0.0182  0.1142
  121CHL1    H315142   2.543   2.169   3.130  1.3588  0.3612  2.1446
  121CHL1    O315143   2.616   2.202   2.939  0.5870 -0.1974 -0.1882
  121CHL1   H3'15144   2.681   2.268   2.914  0.2984 -0.0074 -0.4483
  121CHL1    C415145   2.637   2.358   3.111 -0.5325  1.3539  0.2834
  121CHL1   H4A15146   2.727   2.396   3.058  0.3735 -0.0745  0.7481
  121CHL1   H4B15147   2.551   2.416   3.072  0.3965  2.3074 -0.4277
  121CHL1    C515148   2.649   2.362   3.264 -0.4870 -0.2350  0.0217
  121CHL1    C615149   2.567   2.441   3.339 -0.0819  0.5188 -0.0224
  121CHL1    H615150   2.494   2.500   3.281 -0.6257 -0.0424  0.0777
  121CHL1    C715151   2.574   2.465   3.485 -0.5996 -0.1513 -0.3938
  121CHL1   H7A15152   2.547   2.572   3.498  1.0729  0.0577  1.8470
  121CHL1   H7B15153   2.504   2.394   3.535 -0.1210 -1.5305 -1.6007
  121CHL1    C815154   2.715   2.434   3.541  0.1701  0.3078  0.1947
  121CHL1    H815155   2.783   2.513   3.501  0.9377 -1.0073 -1.1757
  121CHL1   C1415156   2.713   2.439   3.693  0.4370 -0.2789  0.1067
  121CHL1   H1415157   2.646   2.354   3.719  1.4584 -1.0126  0.4253
  121CHL1   C1515158   2.641   2.556   3.768 -0.2099  0.1593 -0.8222
  121CHL1  H15A15159   2.661   2.651   3.715  0.0868 -0.2607 -1.4817
  121CHL1  H15B15160   2.532   2.536   3.772  0.0404 -1.4376  3.2256
  121CHL1   C1615161   2.697   2.543   3.912 -0.5133 -0.7969  0.1135
  121CHL1  H16A15162   2.745   2.642   3.924 -3.1130  0.8870 -2.3105
  121CHL1  H16B15163   2.615   2.529   3.985  1.4880  0.0099  2.6458
  121CHL1   C1715164   2.800   2.429   3.914 -0.7171  0.7781 -0.1796
  121CHL1   H1715165   2.742   2.342   3.950  0.2466  0.8142  1.5647
  121CHL1   C1315166   2.843   2.411   3.762 -0.0022 -0.1157 -1.2696
  121CHL1   C1815167   2.948   2.525   3.718  0.3249 -0.1573  0.5394
  121CHL1  H18A15168   2.971   2.513   3.610 -2.1464 -5.0291  0.2301
  121CHL1  H18B15169   2.903   2.625   3.732 -0.8358 -0.7038  0.8616
  121CHL1  H18C15170   3.047   2.532   3.766  0.6351  0.8799 -0.2239
  121CHL1   C1215171   2.884   2.272   3.723 -0.4247  0.3327  0.4706
  121CHL1  H12A15172   2.983   2.236   3.757 -0.2253  0.1926 -0.2334
  121CHL1  H12B15173   2.808   2.196   3.750  1.0070 -1.8722 -1.3325
  121CHL1   C1115174   2.893   2.258   3.563  0.3513 -0.1405 -0.3505
  121CHL1  H11A15175   2.967   2.331   3.523 -0.6780  0.2211 -1.6618
  121CHL1  H11B15176   2.909   2.150   3.541  2.3051 -0.2571  1.3331
  121CHL1    C915177   2.763   2.295   3.491  0.0407  0.4959  0.2749
  121CHL1    H915178   2.681   2.228   3.523 -0.7971  0.5560 -1.6030
  121CHL1   C1015179   2.770   2.286   3.331 -0.3235 -0.2735 -0.0931
  121CHL1   C1915180   2.892   2.361   3.291  0.9496  0.5024 -0.0504
  121CHL1  H19A15181   2.985   2.301   3.307 -0.4036 -1.5782  0.3311
  121CHL1  H19B15182   2.897   2.377   3.181 -1.3058 -3.0054 -0.8231
  121CHL1  H19C15183   2.902   2.456   3.347  1.6222 -0.6329  1.8429
  121CHL1    C115184   2.784   2.144   3.273  0.2635 -0.0260 -0.6707
  121CHL1   H1A15185   2.877   2.092   3.305  0.2342  0.2044 -0.1986
  121CHL1   H1B15186   2.700   2.085   3.315 -0.0870  0.5023 -0.6139
  121CHL1    C215187   2.762   2.132   3.125  0.2710  0.0042 -0.4970
  121CHL1   H2A15188   2.757   2.028   3.087 -2.8981  0.7641 -2.5850
  121CHL1   H2B15189   2.852   2.168   3.072  1.6467 -2.0584  0.3192
  121CHL1   C2015190   2.905   2.449   4.023  0.0098  0.3441  0.2340
  121CHL1   H2015191   2.960   2.536   3.983 -1.2860  0.7600 -0.7065
  121CHL1   C2115192   2.991   2.320   4.024 -0.5679 -0.2786 -0.7704
  121CHL1  H21A15193   2.931   2.227   4.018  0.3695 -0.9964  0.4887
  121CHL1  H21B15194   3.063   2.322   4.109  1.0312  1.0356 -2.0945
  121CHL1  H21C15195   3.061   2.319   3.938  1.1678 -0.7884  0.5758
  121CHL1   C2215196   2.853   2.489   4.161 -0.0575 -0.1797  0.2763
  121CHL1  H22A15197   2.769   2.561   4.150 -1.3375 -1.8938 -1.9905
  121CHL1  H22B15198   2.828   2.394   4.211 -0.2957 -0.0385  0.4278
  121CHL1   C2315199   2.956   2.551   4.255 -0.2386 -0.3999 -0.0426
  121CHL1  H23A15200   3.025   2.470   4.288  2.2903  1.7038  0.2043
  121CHL1  H23B15201   3.021   2.629   4.209 -1.1838  0.4890  0.0702
  121CHL1   C2415202   2.897   2.607   4.389 -0.1386  0.0119 -0.0703
  121CHL1  H24A15203   2.827   2.689   4.364  0.2841  0.0473 -1.2057
  121CHL1  H24B15204   2.846   2.515   4.423  1.1924 -1.5721 -2.0711
  121CHL1   C2515205   3.004   2.667   4.486 -0.1943 -0.3205 -0.0752
  121CHL1   H2515206   3.046   2.751   4.428  0.2067 -1.3721 -1.3779
  121CHL1   C2615207   2.942   2.725   4.618 -0.5836  0.4734 -0.1955
  121CHL1  H26A15208   2.893   2.639   4.668 -0.3912  0.2120 -0.4511
  121CHL1  H26B15209   3.014   2.768   4.691 -2.4733  2.1940  0.7637
  121CHL1  H26C15210   2.863   2.801   4.604 -1.0401  0.8133  3.2953
  121CHL1   C2715211   3.106   2.561   4.520 -0.0390 -0.7462 -0.1106
  121CHL1  H27A15212   3.189   2.611   4.575  1.0145  0.2246 -2.4380
  121CHL1  H27B15213   3.055   2.498   4.596  0.4099  0.5323  1.2885
  121CHL1  H27C15214   3.160   2.512   4.436  0.1166  1.0792 -1.1263
  122CHL1    C315215   1.943   4.753   2.978  0.1611  0.1935  0.6249
  122CHL1    H315216   1.868   4.834   2.993 -0.9268 -0.7479  0.3364
  122CHL1    O315217   2.000   4.776   2.850  0.2550 -0.0927 -0.0631
  122CHL1   H3'15218   2.057   4.700   2.839  2.0443  1.2553 -0.5216
  122CHL1    C415219   2.049   4.769   3.090  0.2681 -0.0534  0.5702
  122CHL1   H4A15220   2.134   4.703   3.066  0.4818 -0.5472  2.4838
  122CHL1   H4B15221   2.097   4.869   3.084  0.2037 -0.0888 -0.8314
  122CHL1    C515222   1.996   4.735   3.227  0.8813  0.2381 -0.2211
  122CHL1    C615223   1.989   4.822   3.329  0.0966 -0.8621 -0.3730
  122CHL1    H615224   2.017   4.926   3.305  2.3656 -1.1837  0.6760
  122CHL1    C715225   1.944   4.794   3.469  0.0072 -0.5867  0.3673
  122CHL1   H7A15226   2.014   4.846   3.537 -0.4054 -0.3117  0.5917
  122CHL1   H7B15227   1.841   4.833   3.488  0.1599 -1.1760  2.7982
  122CHL1    C815228   1.945   4.636   3.489 -0.0893 -0.2378 -0.1107
  122CHL1    H815229   2.053   4.610   3.493  0.0110 -0.0287 -1.1288
  122CHL1   C1415230   1.864   4.603   3.616  0.0892  0.1123 -0.5541
  122CHL1   H1415231   1.763   4.645   3.593  0.0176 -0.0306 -0.5038
  122CHL1   C1515232   1.905   4.674   3.742  0.3091 -1.0003 -0.6397
  122CHL1  H15A15233   2.014   4.666   3.762  0.0601 -1.0350  0.7826
  122CHL1  H15B15234   1.876   4.781   3.751 -0.8536 -1.3644  0.1874
  122CHL1   C1615235   1.829   4.596   3.847 -0.5982  0.3427 -0.1730
  122CHL1  H16A15236   1.905   4.551   3.914  0.7879 -0.7708 -2.3729
  122CHL1  H16B15237   1.767   4.665   3.909  2.5447  0.2075  3.4989
  122CHL1   C1715238   1.758   4.470   3.780 -0.6176 -0.0098 -0.3340
  122CHL1   H1715239   1.657   4.510   3.755  0.2503  1.8269 -1.1469
  122CHL1   C1315240   1.829   4.454   3.646 -0.3376 -0.2839  0.1976
  122CHL1   C1815241   1.962   4.382   3.666 -0.1073  0.6265 -0.6153
  122CHL1  H18A15242   1.993   4.399   3.772 -0.9360 -1.8006  0.1066
  122CHL1  H18B15243   1.944   4.272   3.660  0.7350  0.5503 -2.3451
  122CHL1  H18C15244   2.040   4.416   3.596 -1.8063  0.8856 -2.4784
  122CHL1   C1215245   1.748   4.406   3.523 -0.4323  0.4047  0.3714
  122CHL1  H12A15246   1.709   4.302   3.526 -0.5796  0.3191 -2.2770
  122CHL1  H12B15247   1.658   4.471   3.520 -1.2820 -0.7486  0.2423
  122CHL1   C1115248   1.834   4.421   3.395  0.1735 -0.1547  1.0598
  122CHL1  H11A15249   1.921   4.353   3.393 -0.2655 -0.7351 -0.5768
  122CHL1  H11B15250   1.761   4.395   3.315  0.3008 -0.5940  1.0854
  122CHL1    C915251   1.869   4.571   3.369  0.1465 -0.3845  0.2920
  122CHL1    H915252   1.769   4.621   3.368  1.4919  2.4607 -0.5363
  122CHL1   C1015253   1.930   4.600   3.232 -0.5959 -0.3629  0.1638
  122CHL1   C1915254   2.040   4.494   3.197  0.4723 -0.2689  0.1096
  122CHL1  H19A15255   2.117   4.500   3.278  0.3367 -0.1940  0.2339
  122CHL1  H19B15256   1.983   4.399   3.195 -2.0955  1.1506  1.4343
  122CHL1  H19C15257   2.083   4.502   3.095 -1.7777 -0.3074 -0.8892
  122CHL1    C115258   1.819   4.600   3.125  0.0103 -0.2290 -0.4962
  122CHL1   H1A15259   1.766   4.502   3.121  0.0139 -0.3865  1.8380
  122CHL1   H1B15260   1.740   4.676   3.144  0.3456  0.0992 -0.4140
  122CHL1    C215261   1.874   4.621   2.988  0.5929  0.4058  0.6130
  122CHL1   H2A15262   1.786   4.627   2.920 -0.3881 -0.1228  1.7873
  122CHL1   H2B15263   1.943   4.540   2.957  0.7821  0.8213 -0.0781
  122CHL1   C2015264   1.749   4.354   3.882 -0.1338 -0.2796  0.4132
  122CHL1   H2015265   1.850   4.310   3.891 -0.4069 -0.6471  2.0443
  122CHL1   C2115266   1.650   4.246   3.825 -0.1978  0.3303 -1.0341
  122CHL1  H21A15267   1.653   4.156   3.890  0.1840  1.2699  0.2923
  122CHL1  H21B15268   1.683   4.211   3.725  1.2862  0.5247 -0.6357
  122CHL1  H21C15269   1.547   4.288   3.825 -0.2484  0.3861 -3.6459
  122CHL1   C2215270   1.710   4.399   4.028 -0.0179  0.7880  0.0830
  122CHL1  H22A15271   1.794   4.459   4.069  0.4277 -2.1073  4.0075
  122CHL1  H22B15272   1.616   4.457   4.022  0.4665  1.5416 -0.3212
  122CHL1   C2315273   1.698   4.288   4.140 -0.0427 -0.4610  0.4372
  122CHL1  H23A15274   1.609   4.227   4.115 -1.1654  1.4836 -0.5796
  122CHL1  H23B15275   1.791   4.228   4.149 -0.1029 -0.5248  0.6301
  122CHL1   C2415276   1.672   4.357   4.273  0.0135  0.1611 -0.1591
  122CHL1  H24A15277   1.765   4.400   4.315  0.9277 -3.4212  1.8473
  122CHL1  H24B15278   1.614   4.452   4.270  0.6208  0.6134  1.4689
  122CHL1   C2515279   1.631   4.265   4.386  0.0017  0.4001  0.1778
  122CHL1   H2515280   1.557   4.195   4.342  0.7978 -0.6140  0.4189
  122CHL1   C2615281   1.753   4.186   4.441  0.6501 -0.0094  0.4827
  122CHL1  H26A15282   1.807   4.127   4.364 -2.5862  0.3875 -2.3241
  122CHL1  H26B15283   1.825   4.255   4.491  0.7283  0.9702 -0.9252
  122CHL1  H26C15284   1.716   4.113   4.516  3.8945 -2.2460  0.1112
  122CHL1   C2715285   1.550   4.342   4.500 -0.3491  0.6447 -0.2634
  122CHL1  H27A15286   1.626   4.410   4.544 -0.1205  0.3339 -0.1724
  122CHL1  H27B15287   1.469   4.395   4.447  2.4703  3.7017 -1.8585
  122CHL1  H27C15288   1.512   4.283   4.586 -1.1323  1.3256 -0.1387
  123CHL1    C315289   5.147   3.562   2.758  0.1691  0.2545  0.1836
  123CHL1    H315290   5.233   3.505   2.799  0.9288  1.0642 -0.2397
  123CHL1    O315291   5.150   3.544   2.615 -0.5857 -0.1442  0.1682
  123CHL1   H3'15292   5.237   3.575   2.592 -0.8116  1.3639  1.1736
  123CHL1    C415293   5.010   3.513   2.803 -0.0414  0.0655 -0.9745
  123CHL1   H4A15294   4.929   3.564   2.746 -0.5390 -1.1085 -1.3486
  123CHL1   H4B15295   5.019   3.407   2.769  1.2285  0.1201 -0.8550
  123CHL1    C515296   4.993   3.528   2.954 -0.5096  0.0245  0.4934
  123CHL1    C615297   4.973   3.426   3.039 -0.7137  0.0656 -0.8710
  123CHL1    H615298   4.949   3.328   2.994 -0.1878 -0.3797 -0.2022
  123CHL1    C715299   4.964   3.447   3.190 -0.2103 -0.8642 -0.8749
  123CHL1   H7A15300   4.879   3.401   3.245  0.1970 -0.1271  0.4179
  123CHL1   H7B15301   5.053   3.393   3.226  0.7520  0.7298 -0.7591
  123CHL1    C815302   4.964   3.594   3.246  0.9897  0.1539 -0.1603
  123CHL1    H815303   4.860   3.634   3.247  0.6028 -0.8360  0.6998
  123CHL1   C1415304   5.012   3.601   3.394  0.0985 -0.2310  0.0682
  123CHL1   H1415305   5.122   3.588   3.383  0.0855 -1.5334  1.1581
  123CHL1   C1515306   4.956   3.503   3.494 -0.1996  0.1235 -0.3149
  123CHL1  H15A15307   4.846   3.508   3.476 -0.2983  3.3570  0.5079
  123CHL1  H15B15308   4.995   3.399   3.489  1.7914  0.8309 -0.1674
  123CHL1   C1615309   4.983   3.572   3.630 -0.4453  0.2721 -0.2285
  123CHL1  H16A15310   4.881   3.578   3.674 -0.6061  0.6573 -0.6434
  123CHL1  H16B15311   5.043   3.509   3.699 -0.3407 -2.9583 -3.0260
  123CHL1   C1715312   5.040   3.710   3.603 -0.2193 -0.4021  0.0879
  123CHL1   H1715313   5.149   3.688   3.599  0.1557  0.5355  2.7371
  123CHL1   C1315314   4.998   3.739   3.457 -0.1842 -0.0360 -0.5291
  123CHL1   C1815315   4.854   3.801   3.459 -0.1522 -0.3007  0.5400
  123CHL1  H18A15316   4.783   3.722   3.493  0.5607  0.0705  3.1094
  123CHL1  H18B15317   4.849   3.893   3.521  0.6153  1.2419 -1.5665
  123CHL1  H18C15318   4.815   3.830   3.359  0.5349 -0.8994  0.0868
  123CHL1   C1215319   5.101   3.831   3.376  0.4827  0.3344  0.0929
  123CHL1  H12A15320   5.092   3.936   3.410  2.9423  0.6918 -0.1595
  123CHL1  H12B15321   5.204   3.793   3.395  0.6920 -0.5165 -2.3931
  123CHL1   C1115322   5.076   3.822   3.221  0.4048 -0.2245  0.4522
  123CHL1  H11A15323   4.984   3.881   3.198 -0.2959 -1.5450 -0.2420
  123CHL1  H11B15324   5.167   3.860   3.172  0.9043 -0.3517  1.2598
  123CHL1    C915325   5.058   3.679   3.163 -0.6349  0.0934 -0.1541
  123CHL1    H915326   5.157   3.631   3.177 -0.4129  0.2386 -1.1325
  123CHL1   C1015327   5.024   3.673   3.009  0.6430 -0.3080 -0.4953
  123CHL1   C1915328   4.895   3.751   2.986 -0.5079 -0.2067 -0.1633
  123CHL1  H19A15329   4.862   3.735   2.881  1.0542 -0.4602 -0.6417
  123CHL1  H19B15330   4.823   3.713   3.063  0.8993  2.2747  2.5770
  123CHL1  H19C15331   4.912   3.859   3.005  1.3571 -0.5766  0.4251
  123CHL1    C115332   5.145   3.748   2.936  0.4500  0.3385 -0.0843
  123CHL1   H1A15333   5.140   3.858   2.953  0.7008  0.3345  0.0097
  123CHL1   H1B15334   5.239   3.718   2.987 -0.0894 -3.4380 -1.0437
  123CHL1    C215335   5.161   3.717   2.784  1.1632 -0.3087  0.6652
  123CHL1   H2A15336   5.254   3.764   2.744  0.8368 -0.1567  0.0793
  123CHL1   H2B15337   5.068   3.749   2.733  1.5242 -0.0337  0.1735
  123CHL1   C2015338   5.014   3.805   3.717  0.1762 -1.3163 -0.1693
  123CHL1   H2015339   4.905   3.827   3.719  0.2730 -0.8325  1.1084
  123CHL1   C2115340   5.082   3.946   3.702  0.6425  0.3896 -0.3741
  123CHL1  H21A15341   5.080   3.996   3.801 -0.0777  1.9516 -1.1461
  123CHL1  H21B15342   5.018   4.012   3.639 -0.9859 -1.3160 -0.6042
  123CHL1  H21C15343   5.187   3.945   3.668  0.4143  0.5875 -1.0969
  123CHL1   C2215344   5.057   3.746   3.859  0.7913 -0.2422 -0.0461
  123CHL1  H22A15345   5.024   3.827   3.928  0.0444  0.4254 -1.1668
  123CHL1  H22B15346   4.991   3.663   3.891 -0.8852  1.4705  1.1824
  123CHL1   C2315347   5.200   3.712   3.868 -0.4041  0.1628 -0.3121
  123CHL1  H23A15348   5.223   3.620   3.811 -0.4904 -0.5201  0.7226
  123CHL1  H23B15349   5.246   3.802   3.823 -3.3903  0.8945 -2.2324
  123CHL1   C2415350   5.258   3.693   4.014  0.1212 -0.1613 -0.2946
  123CHL1  H24A15351   5.236   3.776   4.084 -0.4633 -0.3973 -0.1925
  123CHL1  H24B15352   5.228   3.593   4.053  2.4794 -0.2814  1.3677
  123CHL1   C2515353   5.418   3.695   4.024  0.4357 -0.0890  0.1297
  123CHL1   H2515354   5.455   3.605   3.970 -1.8451 -1.1506  0.2112
  123CHL1   C2615355   5.476   3.821   3.962  0.0101 -0.1942 -0.9046
  123CHL1  H26A15356   5.466   3.822   3.851 -1.3646  0.1119 -0.7920
  123CHL1  H26B15357   5.431   3.914   4.000 -0.8343 -1.6341  1.8772
  123CHL1  H26C15358   5.586   3.828   3.981 -0.2954  1.2706  0.5464
  123CHL1   C2715359   5.466   3.678   4.167 -0.2463 -0.1403  0.0587
  123CHL1  H27A15360   5.437   3.581   4.212  1.2680 -0.1744  1.0274
  123CHL1  H27B15361   5.577   3.671   4.167 -0.3042 -1.1342 -0.2960
  123CHL1  H27C15362   5.435   3.771   4.218 -0.8629  0.2661 -1.0144
  124CHL1    C315363   3.340   5.071   3.434  0.4060  0.3474  0.7736
  124CHL1    H315364   3.386   4.974   3.462 -0.7545  0.0433  1.6916
  124CHL1    O315365   3.327   5.096   3.293 -0.3428  0.1317 -0.6046
  124CHL1   H3'15366   3.234   5.111   3.276 -0.1372  1.3539 -0.7292
  124CHL1    C415367   3.199   5.084   3.492 -0.5509 -0.3949  0.9390
  124CHL1   H4A15368   3.150   5.181   3.469  0.2004  0.0634  1.2324
  124CHL1   H4B15369   3.147   5.006   3.433  0.4784 -0.4504  0.0584
  124CHL1    C515370   3.187   5.077   3.643 -0.1916  0.9607  0.4270
  124CHL1    C615371   3.095   5.000   3.706  0.2753 -0.0347  0.1464
  124CHL1    H615372   3.038   4.936   3.638  2.1625 -0.2019 -1.3645
  124CHL1    C715373   3.077   5.003   3.860 -0.3497  0.0253  0.0236
  124CHL1   H7A15374   2.972   4.992   3.896  0.2239 -0.5628  1.6036
  124CHL1   H7B15375   3.127   4.913   3.902 -0.1691  1.3520  2.9531
  124CHL1    C815376   3.154   5.119   3.932 -0.4928  0.5804 -0.5394
  124CHL1    H815377   3.109   5.220   3.921 -1.5456  0.1450 -0.3021
  124CHL1   C1415378   3.170   5.089   4.080 -0.6081  0.1219  0.5193
  124CHL1   H1415379   3.236   5.000   4.080  0.9880  1.2712 -0.2936
  124CHL1   C1515380   3.049   5.055   4.171 -0.4405 -0.6148 -0.5042
  124CHL1  H15A15381   2.972   5.134   4.151  1.4647  0.9368 -2.1195
  124CHL1  H15B15382   2.994   4.959   4.165 -0.6439 -0.5206 -0.1605
  124CHL1   C1615383   3.098   5.069   4.314  0.0050  0.4231 -0.0479
  124CHL1  H16A15384   3.040   5.121   4.393 -0.8702 -0.2024 -0.2575
  124CHL1  H16B15385   3.095   4.965   4.354 -1.7560  0.3379 -0.2944
  124CHL1   C1715386   3.240   5.127   4.303 -0.5608  0.0707 -0.9219
  124CHL1   H1715387   3.314   5.043   4.302 -0.4611  0.1603 -1.7841
  124CHL1   C1315388   3.259   5.181   4.160 -0.2747 -0.9394  0.1163
  124CHL1   C1815389   3.205   5.325   4.151 -0.1452  0.9027  0.1683
  124CHL1  H18A15390   3.193   5.358   4.046 -2.8570 -4.3680 -1.5162
  124CHL1  H18B15391   3.102   5.328   4.192  0.8505  2.3939  2.8827
  124CHL1  H18C15392   3.256   5.402   4.213  0.4263  0.1034  0.7134
  124CHL1   C1215393   3.405   5.183   4.104  0.5041  0.0162  0.6327
  124CHL1  H12A15394   3.472   5.249   4.163 -0.8949  1.5331  0.6054
  124CHL1  H12B15395   3.453   5.083   4.102  2.2004  0.7644  1.4606
  124CHL1   C1115396   3.403   5.214   3.953  0.5374  0.0914  0.3165
  124CHL1  H11A15397   3.375   5.320   3.933 -0.8287 -0.4412 -0.8366
  124CHL1  H11B15398   3.498   5.190   3.902  0.7634  0.6847  0.4541
  124CHL1    C915399   3.295   5.133   3.867 -0.5652 -0.0909  0.0483
  124CHL1    H915400   3.332   5.030   3.887  0.4047  0.4581  1.2403
  124CHL1   C1015401   3.291   5.171   3.718  0.4338  0.2304 -0.4775
  124CHL1   C1915402   3.256   5.325   3.708 -0.2553  0.1678  0.4864
  124CHL1  H19A15403   3.190   5.362   3.790 -2.0332 -2.6711  0.4823
  124CHL1  H19B15404   3.350   5.382   3.719 -0.2940 -0.0829  2.4503
  124CHL1  H19C15405   3.213   5.357   3.610 -0.0203 -1.0883 -0.0448
  124CHL1    C115406   3.434   5.149   3.653 -0.3620 -0.1791  0.1515
  124CHL1   H1A15407   3.495   5.234   3.690 -2.1436  1.0167  0.4252
  124CHL1   H1B15408   3.478   5.050   3.679 -0.5660 -0.3948 -0.3236
  124CHL1    C215409   3.440   5.165   3.500  0.3170 -0.9491  0.9181
  124CHL1   H2A15410   3.542   5.148   3.459 -0.4069 -0.1928 -1.4015
  124CHL1   H2B15411   3.415   5.271   3.479 -0.8171 -1.6389 -1.6736
  124CHL1   C2015412   3.296   5.214   4.414  0.2425  1.0307 -0.1919
  124CHL1   H2015413   3.384   5.264   4.369  0.9303  1.2407  1.3354
  124CHL1   C2115414   3.354   5.125   4.531 -0.2728 -0.1645 -0.1157
  124CHL1  H21A15415   3.419   5.048   4.483  0.2423  1.1584 -1.6547
  124CHL1  H21B15416   3.264   5.079   4.578 -2.3903  3.4882 -0.2684
  124CHL1  H21C15417   3.408   5.191   4.602  0.0898 -1.9753  1.3991
  124CHL1   C2215418   3.199   5.308   4.482 -0.0240 -0.4563  1.1797
  124CHL1  H22A15419   3.138   5.360   4.404 -0.0114  0.5150  1.7973
  124CHL1  H22B15420   3.120   5.253   4.536  0.3864  0.4379  2.7404
  124CHL1   C2315421   3.266   5.426   4.552 -0.1450  0.7244  0.3042
  124CHL1  H23A15422   3.310   5.379   4.643 -1.0827  0.1697  0.4802
  124CHL1  H23B15423   3.342   5.466   4.481 -1.1967 -0.9566 -1.8754
  124CHL1   C2415424   3.159   5.530   4.568  0.1438 -0.3228  0.5455
  124CHL1  H24A15425   3.125   5.584   4.477 -0.0456 -0.6055  0.4495
  124CHL1  H24B15426   3.067   5.481   4.605 -0.1713 -0.1285  0.0264
  124CHL1   C2515427   3.188   5.638   4.679 -0.5285  0.4126  0.4618
  124CHL1   H2515428   3.291   5.671   4.655 -0.7649  0.1374 -0.9848
  124CHL1   C2615429   3.095   5.759   4.662 -0.4803 -0.6038  0.1045
  124CHL1  H26A15430   3.106   5.836   4.741 -1.1312  0.1604 -0.5242
  124CHL1  H26B15431   3.121   5.802   4.563  0.8795 -1.6780 -0.0400
  124CHL1  H26C15432   2.989   5.726   4.664  0.0455 -2.4684 -0.3123
  124CHL1   C2715433   3.177   5.577   4.812 -0.4363 -0.3514  0.1445
  124CHL1  H27A15434   3.073   5.550   4.839 -0.0204 -2.5957 -0.3536
  124CHL1  H27B15435   3.255   5.498   4.821  1.9023  1.8043 -0.0052
  124CHL1  H27C15436   3.203   5.659   4.883  0.7335  0.5283 -1.2316
  125CHL1    C315437   5.295   6.738   2.584  0.1221 -0.0152 -1.2778
  125CHL1    H315438   5.233   6.830   2.594 -1.0814 -0.5511 -3.2964
  125CHL1    O315439   5.314   6.711   2.447  0.8480  0.1328  0.0123
  125CHL1   H3'15440   5.386   6.648   2.439  1.0422  0.5145 -1.8292
  125CHL1    C415441   5.429   6.753   2.658 -0.2608 -0.1315 -0.1425
  125CHL1   H4A15442   5.494   6.668   2.628  2.0094  0.9654  1.3881
  125CHL1   H4B15443   5.484   6.839   2.616 -0.9976  1.2466  1.5982
  125CHL1    C515444   5.428   6.756   2.811  0.2606 -0.6210  0.6261
  125CHL1    C615445   5.473   6.857   2.885 -1.0286 -0.6051  0.3132
  125CHL1    H615446   5.526   6.939   2.835  0.7828 -2.2062 -0.5575
  125CHL1    C715447   5.462   6.871   3.029  0.3573 -0.4980  0.1019
  125CHL1   H7A15448   5.556   6.912   3.070  0.9328 -1.9967  0.3708
  125CHL1   H7B15449   5.377   6.939   3.051  0.9860  0.0064  1.0105
  125CHL1    C815450   5.442   6.730   3.094  1.0354  0.3247 -0.1195
  125CHL1    H815451   5.537   6.672   3.088  0.3720 -0.6171 -2.6504
  125CHL1   C1415452   5.407   6.749   3.240  0.4593 -0.2992  0.0785
  125CHL1   H1415453   5.319   6.816   3.239  0.6219 -0.0811 -1.5252
  125CHL1   C1515454   5.509   6.819   3.340 -0.1325  0.4931 -0.0733
  125CHL1  H15A15455   5.599   6.757   3.322 -1.1420 -0.8600 -0.6357
  125CHL1  H15B15456   5.531   6.926   3.324 -1.0991  0.7033 -0.0123
  125CHL1   C1615457   5.463   6.780   3.481 -0.2150 -0.2453 -0.4027
  125CHL1  H16A15458   5.547   6.734   3.538  0.9634 -0.1484 -2.0183
  125CHL1  H16B15459   5.433   6.859   3.554 -0.5568  0.8485 -1.6960
  125CHL1   C1715460   5.339   6.681   3.458 -0.6694 -1.0093  0.2493
  125CHL1   H1715461   5.258   6.755   3.444  1.2289  0.9395 -0.9735
  125CHL1   C1315462   5.362   6.625   3.314  0.0531  0.4804  0.3574
  125CHL1   C1815463   5.484   6.523   3.318 -0.5719 -0.3808 -0.7281
  125CHL1  H18A15464   5.568   6.563   3.377 -0.8921  1.2870 -1.3640
  125CHL1  H18B15465   5.439   6.431   3.362 -0.4101  0.0935  0.4575
  125CHL1  H18C15466   5.520   6.491   3.218  2.2423  3.1513 -1.0036
  125CHL1   C1215467   5.230   6.562   3.250  0.9403 -0.2758 -0.0962
  125CHL1  H12A15468   5.195   6.466   3.294  0.8816  0.1307  0.7536
  125CHL1  H12B15469   5.154   6.642   3.259  0.2161 -0.8670 -0.7420
  125CHL1   C1115470   5.257   6.547   3.106  0.1910 -0.1482 -0.0757
  125CHL1  H11A15471   5.311   6.451   3.094  0.1910  0.0531 -2.0705
  125CHL1  H11B15472   5.159   6.533   3.055 -0.5062  0.5699  1.0400
  125CHL1    C915473   5.317   6.666   3.026 -0.5754 -0.3288 -0.2212
  125CHL1    H915474   5.240   6.746   3.029 -0.8314 -0.5197 -1.1749
  125CHL1   C1015475   5.347   6.639   2.875  1.2785 -0.2477 -0.5500
  125CHL1   C1915476   5.438   6.513   2.867 -0.3342 -0.0554 -0.2878
  125CHL1  H19A15477   5.467   6.495   2.761  0.4863  0.6056 -0.1816
  125CHL1  H19B15478   5.527   6.525   2.932  1.8869  0.9338 -3.2774
  125CHL1  H19C15479   5.388   6.418   2.895  1.1436 -0.1723  2.2189
  125CHL1    C115480   5.209   6.628   2.793  0.0389 -0.3213 -0.5762
  125CHL1   H1A15481   5.162   6.538   2.838 -0.3104 -0.3184 -0.9375
  125CHL1   H1B15482   5.142   6.714   2.813 -0.1774 -0.6748  0.2485
  125CHL1    C215483   5.218   6.618   2.640  0.3267  0.4938 -0.2330
  125CHL1   H2A15484   5.115   6.619   2.600 -0.3560 -2.0574  1.2563
  125CHL1   H2B15485   5.261   6.518   2.616 -0.6248  0.4422 -1.8445
  125CHL1   C2015486   5.296   6.575   3.567  0.3203 -0.3064 -0.2068
  125CHL1   H2015487   5.232   6.495   3.523  1.8124 -1.7761  0.2238
  125CHL1   C2115488   5.206   6.650   3.673  0.6326  0.0433 -0.4738
  125CHL1  H21A15489   5.108   6.685   3.634  1.6002  2.8270 -0.6138
  125CHL1  H21B15490   5.255   6.733   3.729 -1.3291  1.2294 -0.4217
  125CHL1  H21C15491   5.173   6.576   3.749  1.1162  1.5668  1.2904
  125CHL1   C2215492   5.413   6.508   3.645  0.2694 -0.4581 -0.3350
  125CHL1  H22A15493   5.483   6.459   3.574 -1.1462 -1.2491 -1.2272
  125CHL1  H22B15494   5.466   6.576   3.715 -0.4649  0.4414 -0.6327
  125CHL1   C2315495   5.366   6.391   3.726  0.1783  0.5026  0.1399
  125CHL1  H23A15496   5.320   6.433   3.818  0.5006  1.0379  0.0593
  125CHL1  H23B15497   5.282   6.344   3.671 -2.0755  3.8360  0.4544
  125CHL1   C2415498   5.476   6.288   3.756  0.5428  0.1442 -0.2760
  125CHL1  H24A15499   5.512   6.256   3.656  0.3808  2.7481 -1.2537
  125CHL1  H24B15500   5.545   6.346   3.821  0.3994  0.5087 -0.4477
  125CHL1   C2515501   5.413   6.170   3.829  0.0170 -0.1088  0.1010
  125CHL1   H2515502   5.344   6.119   3.759 -0.5235  0.6724  0.0544
  125CHL1   C2615503   5.532   6.078   3.861  0.3943 -0.1181 -0.2184
  125CHL1  H26A15504   5.497   5.994   3.924 -0.1278 -0.0006 -0.3517
  125CHL1  H26B15505   5.579   6.039   3.768  0.3389 -0.8631  0.0630
  125CHL1  H26C15506   5.612   6.136   3.912 -0.8277  1.2743  0.1932
  125CHL1   C2715507   5.331   6.185   3.952  0.7292 -0.4038 -0.0310
  125CHL1  H27A15508   5.225   6.200   3.920  0.8945  0.8870 -0.0507
  125CHL1  H27B15509   5.322   6.092   4.013  0.2071 -0.4847 -0.2227
  125CHL1  H27C15510   5.366   6.274   4.010 -1.2012  1.4963 -1.6051
  126CHL1    C315511   2.743   6.765   3.472 -0.1079  0.9421  0.3995
  126CHL1    H315512   2.632   6.768   3.481 -0.2909 -0.7339 -0.7880
  126CHL1    O315513   2.761   6.689   3.354  0.1843 -0.2040 -0.5593
  126CHL1   H3'15514   2.852   6.660   3.340 -0.6916 -2.4842 -2.0428
  126CHL1    C415515   2.813   6.904   3.464  0.3577  0.2859  0.5427
  126CHL1   H4A15516   2.921   6.891   3.442  0.2347  0.4046 -0.1923
  126CHL1   H4B15517   2.785   6.951   3.367  0.1710 -1.3591 -0.2311
  126CHL1    C515518   2.779   6.983   3.590 -0.7539 -0.1081 -1.1007
  126CHL1    C615519   2.720   7.102   3.593 -0.5405 -0.1146 -0.0686
  126CHL1    H615520   2.694   7.148   3.497 -1.0632 -4.2060 -2.0788
  126CHL1    C715521   2.695   7.185   3.722  0.3723  0.0899  0.3366
  126CHL1   H7A15522   2.728   7.289   3.705  0.6357  0.4025  2.4527
  126CHL1   H7B15523   2.587   7.185   3.749  0.1497  0.6026 -0.5140
  126CHL1    C815524   2.780   7.135   3.845 -0.3136 -0.0494  0.2002
  126CHL1    H815525   2.884   7.174   3.837 -0.4589  0.0266 -1.9674
  126CHL1   C1415526   2.703   7.190   3.960  0.1725  0.2271 -0.9005
  126CHL1   H1415527   2.605   7.137   3.964 -0.7132  1.8273  1.3559
  126CHL1   C1515528   2.664   7.338   3.967  0.3682  0.0768 -0.4091
  126CHL1  H15A15529   2.755   7.396   3.941 -0.3809  1.1468 -0.7099
  126CHL1  H15B15530   2.574   7.360   3.907  1.5027  0.5999 -1.9838
  126CHL1   C1615531   2.635   7.366   4.116  0.6843 -0.3147 -0.9408
  126CHL1  H16A15532   2.670   7.463   4.157 -2.0840 -0.2220  1.5170
  126CHL1  H16B15533   2.524   7.372   4.128  1.0112  1.1889  2.8662
  126CHL1   C1715534   2.682   7.240   4.187 -0.1680  0.5584 -0.3918
  126CHL1   H1715535   2.597   7.169   4.198  1.2113 -0.8839  1.8061
  126CHL1   C1315536   2.772   7.160   4.088 -0.9483 -0.8103 -0.2503
  126CHL1   C1815537   2.915   7.233   4.094  0.7073  0.5155  0.0617
  126CHL1  H18A15538   2.983   7.200   4.013  0.1949  0.4245 -0.3400
  126CHL1  H18B15539   2.920   7.344   4.094  2.2657  0.4852 -1.4110
  126CHL1  H18C15540   2.961   7.191   4.185 -1.1576 -1.0996  0.3186
  126CHL1   C1215541   2.784   7.006   4.104 -0.1678 -0.2351  0.1379
  126CHL1  H12A15542   2.843   6.992   4.197  0.7560  0.9552 -0.2469
  126CHL1  H12B15543   2.682   6.964   4.113  0.6074 -2.3618 -0.3887
  126CHL1   C1115544   2.853   6.940   3.982 -0.0316  1.3855 -0.1914
  126CHL1  H11A15545   2.961   6.964   3.987  0.9869 -2.3715 -0.9216
  126CHL1  H11B15546   2.847   6.830   4.000  2.2278  1.4293  1.2032
  126CHL1    C915547   2.787   6.985   3.853 -0.5526  0.4757 -0.2123
  126CHL1    H915548   2.681   6.950   3.856 -0.3754 -0.4476 -2.4718
  126CHL1   C1015549   2.835   6.912   3.720  0.9424 -0.1578 -0.4146
  126CHL1   C1915550   2.988   6.925   3.708  0.2853  0.2856 -0.1316
  126CHL1  H19A15551   3.044   6.879   3.624  0.9253  0.2411  0.3104
  126CHL1  H19B15552   3.007   7.033   3.690  0.1445  0.5147  1.0389
  126CHL1  H19C15553   3.027   6.898   3.808  2.2740  0.7124 -0.7425
  126CHL1    C115554   2.800   6.764   3.728 -0.1517 -0.4389  0.0189
  126CHL1   H1A15555   2.853   6.719   3.814 -1.5539 -0.1364  1.0819
  126CHL1   H1B15556   2.691   6.756   3.748 -0.3070 -0.2068 -0.7049
  126CHL1    C215557   2.816   6.691   3.592 -0.5286  0.0584 -0.3365
  126CHL1   H2A15558   2.786   6.584   3.597 -0.5011  0.0165 -0.9607
  126CHL1   H2B15559   2.925   6.680   3.574 -0.5916 -2.0349  0.2949
  126CHL1   C2015560   2.725   7.270   4.335 -0.1465  0.1492  0.8646
  126CHL1   H2015561   2.823   7.321   4.323  0.2310 -1.0217 -1.9304
  126CHL1   C2115562   2.748   7.142   4.415  0.0421  0.2035  0.2907
  126CHL1  H21A15563   2.843   7.095   4.382  0.5134 -0.3795  2.3117
  126CHL1  H21B15564   2.659   7.075   4.418  0.3767 -0.2320  0.6586
  126CHL1  H21C15565   2.767   7.175   4.520 -0.4854 -0.0976  0.4887
  126CHL1   C2215566   2.624   7.355   4.412 -0.2594 -0.3496  0.0569
  126CHL1  H22A15567   2.566   7.431   4.355 -0.9105 -0.4805  0.5369
  126CHL1  H22B15568   2.562   7.278   4.462  0.4933 -0.6113  0.6169
  126CHL1   C2315569   2.690   7.440   4.517 -0.4671 -0.0669  0.5386
  126CHL1  H23A15570   2.747   7.386   4.596 -1.0772 -1.1297  0.2602
  126CHL1  H23B15571   2.777   7.485   4.465 -0.4507 -0.3521  0.3193
  126CHL1   C2415572   2.596   7.549   4.572 -0.1225 -0.0838 -0.2714
  126CHL1  H24A15573   2.547   7.595   4.483 -1.7667 -2.3454 -0.6318
  126CHL1  H24B15574   2.518   7.489   4.623 -0.3863  0.7564  0.3414
  126CHL1   C2515575   2.651   7.656   4.668  0.2820 -0.2940 -0.2963
  126CHL1   H2515576   2.697   7.601   4.753 -0.1087  0.4354  0.3990
  126CHL1   C2615577   2.756   7.753   4.614  0.4223  0.6364  0.2890
  126CHL1  H26A15578   2.792   7.822   4.693  2.5938  0.3036 -0.3554
  126CHL1  H26B15579   2.842   7.695   4.576  0.2198  0.4396  0.1237
  126CHL1  H26C15580   2.711   7.811   4.531 -0.2617 -0.7459 -0.3438
  126CHL1   C2715581   2.533   7.741   4.730  0.2052  0.6826 -0.0270
  126CHL1  H27A15582   2.451   7.675   4.765  0.2909  0.9479  0.7043
  126CHL1  H27B15583   2.563   7.801   4.819 -1.0083 -1.0461  1.6495
  126CHL1  H27C15584   2.483   7.802   4.653 -1.0425  0.5019  0.6045
  127CHL1    C315585   4.206   6.035   3.064 -0.4359 -0.3103 -0.4105
  127CHL1    H315586   4.126   5.962   3.091 -0.2632 -0.1400  0.5998
  127CHL1    O315587   4.191   6.075   2.929 -0.7022 -0.2607 -0.2533
  127CHL1   H3'15588   4.282   6.089   2.904 -0.4773 -0.9238  0.1581
  127CHL1    C415589   4.190   6.149   3.169  0.3583 -0.3892 -0.7453
  127CHL1   H4A15590   4.257   6.229   3.131 -0.2066  0.7894  0.6260
  127CHL1   H4B15591   4.091   6.198   3.154 -0.7290 -3.1413 -3.8689
  127CHL1    C515592   4.215   6.112   3.317  0.0891 -0.0760 -0.8397
  127CHL1    C615593   4.128   6.143   3.419  0.0490  0.0600 -0.2475
  127CHL1    H615594   4.035   6.196   3.395 -0.2814 -0.1174  0.6068
  127CHL1    C715595   4.147   6.120   3.566  0.3733  0.3771 -0.6063
  127CHL1   H7A15596   4.117   6.212   3.620 -0.4790  0.6308 -1.4793
  127CHL1   H7B15597   4.073   6.043   3.597  2.3218 -0.6785  1.6804
  127CHL1    C815598   4.296   6.078   3.593 -0.5385 -0.0846  0.2876
  127CHL1    H815599   4.341   6.179   3.597  1.7232 -0.9919 -0.7168
  127CHL1   C1415600   4.313   6.014   3.733 -0.2391  0.0124 -0.2140
  127CHL1   H1415601   4.259   5.917   3.725 -1.0546  0.3971  0.3615
  127CHL1   C1515602   4.266   6.094   3.852  0.2405 -0.0248 -0.0453
  127CHL1  H15A15603   4.290   6.196   3.816 -0.2814  0.8620  2.0052
  127CHL1  H15B15604   4.156   6.082   3.854  0.3470 -1.6620 -1.1537
  127CHL1   C1615605   4.334   6.025   3.977  0.6961 -0.5140  0.0448
  127CHL1  H16A15606   4.389   6.099   4.040  0.3347  0.2015 -0.4628
  127CHL1  H16B15607   4.267   5.970   4.046  1.9787  0.5025  2.2264
  127CHL1   C1715608   4.431   5.922   3.913 -0.4471  0.7098 -0.4489
  127CHL1   H1715609   4.367   5.831   3.904 -3.3362  2.6779 -0.9996
  127CHL1   C1315610   4.449   5.961   3.765  0.6109  0.0684  0.4621
  127CHL1   C1815611   4.560   6.068   3.755 -0.2276  0.0302  0.5940
  127CHL1  H18A15612   4.657   6.019   3.780 -0.0630 -0.2296 -0.5125
  127CHL1  H18B15613   4.564   6.106   3.651  2.2815 -2.2673 -0.2507
  127CHL1  H18C15614   4.541   6.150   3.828  0.2167 -0.0304  0.7791
  127CHL1   C1215615   4.481   5.849   3.660  0.0679  0.4883 -0.0909
  127CHL1  H12A15616   4.579   5.802   3.681  0.6508  0.8579 -1.8641
  127CHL1  H12B15617   4.400   5.773   3.670  1.3016 -0.8978 -0.3551
  127CHL1   C1115618   4.482   5.905   3.518  0.1026  0.1860  0.4793
  127CHL1  H11A15619   4.570   5.970   3.499 -0.1912  0.5875  0.4821
  127CHL1  H11B15620   4.480   5.818   3.449 -2.9428 -0.2533  0.9911
  127CHL1    C915621   4.351   5.983   3.483 -0.4316  0.1653  1.0886
  127CHL1    H915622   4.276   5.901   3.482  0.6457 -0.8647 -0.3576
  127CHL1   C1015623   4.347   6.042   3.334 -0.6035  0.0041 -0.7458
  127CHL1   C1915624   4.471   6.140   3.311  0.6229  0.7049  0.0284
  127CHL1  H19A15625   4.480   6.214   3.393 -0.6823  0.4889  0.3768
  127CHL1  H19B15626   4.558   6.070   3.307 -1.7310 -2.4191 -1.6367
  127CHL1  H19C15627   4.452   6.182   3.210  1.1890  0.4837 -0.1739
  127CHL1    C115628   4.362   5.928   3.236 -0.1376  0.7071 -0.1675
  127CHL1   H1A15629   4.458   5.874   3.225  0.6979  1.5521  2.2786
  127CHL1   H1B15630   4.292   5.844   3.257  0.1061  0.5814  0.1555
  127CHL1    C215631   4.340   5.960   3.085 -0.4956  0.2939 -0.8755
  127CHL1   H2A15632   4.352   5.872   3.018  1.6025 -0.5272  0.4788
  127CHL1   H2B15633   4.425   6.029   3.065 -0.6157  1.1531  1.2684
  127CHL1   C2015634   4.555   5.896   3.992  0.0046  0.0579 -0.4179
  127CHL1   H2015635   4.625   5.855   3.916 -0.2526 -0.4262 -0.3963
  127CHL1   C2115636   4.530   5.767   4.086 -0.1925  0.2015  0.7147
  127CHL1  H21A15637   4.451   5.789   4.161 -4.0055 -2.6439 -2.0248
  127CHL1  H21B15638   4.623   5.754   4.144  0.5876  0.5485 -0.4203
  127CHL1  H21C15639   4.505   5.675   4.028 -1.4053  0.5686  0.6106
  127CHL1   C2215640   4.625   6.007   4.079 -0.3937 -0.0678  0.3444
  127CHL1  H22A15641   4.619   6.102   4.022  1.8951 -0.8642 -1.3723
  127CHL1  H22B15642   4.566   6.017   4.173 -0.6857 -2.7700  0.5195
  127CHL1   C2315643   4.768   5.975   4.109 -0.4141  0.1014 -0.2827
  127CHL1  H23A15644   4.779   5.874   4.153  1.1754  0.4223  0.1384
  127CHL1  H23B15645   4.813   5.970   4.007  1.2284 -0.5680  0.4313
  127CHL1   C2415646   4.857   6.072   4.183 -0.4676 -0.6713  0.3994
  127CHL1  H24A15647   4.853   6.172   4.135  0.9910 -0.3647  0.8668
  127CHL1  H24B15648   4.807   6.084   4.282 -1.2792 -0.4662 -0.0294
  127CHL1   C2515649   5.003   6.031   4.191  0.0092  0.3795  0.1398
  127CHL1   H2515650   5.036   5.996   4.091 -0.2497  0.0412  0.1734
  127CHL1   C2615651   5.104   6.143   4.241  0.1296  0.4165  0.0870
  127CHL1  H26A15652   5.126   6.146   4.350 -1.9743  1.1275  0.5422
  127CHL1  H26B15653   5.197   6.146   4.182 -0.2187  1.9407 -0.4097
  127CHL1  H26C15654   5.060   6.244   4.225 -0.4064  0.2173  0.2809
  127CHL1   C2715655   5.017   5.915   4.283  0.3295 -0.1468  0.2126
  127CHL1  H27A15656   5.122   5.880   4.287 -0.6906 -3.5752  0.2582
  127CHL1  H27B15657   4.985   5.939   4.386  0.0249  0.6753 -0.0695
  127CHL1  H27C15658   4.959   5.825   4.251 -0.4308  0.4043 -0.0058
  128CHL1    C315659   2.220   2.065   3.152  0.0535  0.1335  0.4842
  128CHL1    H315660   2.308   2.132   3.140  1.0225 -1.0033  1.0296
  128CHL1    O315661   2.158   2.036   3.024 -0.3778 -0.4556 -0.1854
  128CHL1   H3'15662   2.085   1.974   3.033  0.1491 -1.0879 -0.2875
  128CHL1    C415663   2.271   1.934   3.213  0.0117  0.0822  0.4782
  128CHL1   H4A15664   2.192   1.857   3.199  0.6530 -0.7176  1.1825
  128CHL1   H4B15665   2.356   1.900   3.151  0.6345 -0.8889  1.8310
  128CHL1    C515666   2.326   1.946   3.353 -0.4005  0.0852  0.2665
  128CHL1    C615667   2.453   1.915   3.386 -0.3594  0.8028  0.5636
  128CHL1    H615668   2.507   1.860   3.308 -0.1276  1.7008  0.0676
  128CHL1    C715669   2.511   1.945   3.515 -0.0731 -0.0817  0.4384
  128CHL1   H7A15670   2.563   1.855   3.553  0.9095 -0.4913 -1.7345
  128CHL1   H7B15671   2.591   2.022   3.513 -1.0761  0.9879 -0.1057
  128CHL1    C815672   2.410   1.993   3.621 -0.9642 -0.1433  0.0761
  128CHL1    H815673   2.358   1.902   3.660  1.1041 -0.9256  1.1848
  128CHL1   C1415674   2.480   2.047   3.752  0.1025  0.1666  0.0311
  128CHL1   H1415675   2.537   2.137   3.721  0.6740  0.9694  3.0906
  128CHL1   C1515676   2.596   1.963   3.819  0.2999  0.4065  0.1162
  128CHL1  H15A15677   2.557   1.859   3.834  0.9737  0.1709  0.2907
  128CHL1  H15B15678   2.688   1.943   3.761  1.6932 -1.9866  2.8929
  128CHL1   C1615679   2.617   2.046   3.952  0.4629 -0.6449  0.2415
  128CHL1  H16A15680   2.610   1.971   4.034  1.0419 -0.7415  0.2083
  128CHL1  H16B15681   2.715   2.097   3.961 -0.8555  1.6650  3.1513
  128CHL1   C1715682   2.498   2.139   3.970 -0.6632 -0.1426  0.1387
  128CHL1   H1715683   2.532   2.238   3.933 -0.9833 -0.2993 -0.5874
  128CHL1   C1315684   2.391   2.098   3.859  0.0154 -0.3419 -0.0379
  128CHL1   C1815685   2.306   1.983   3.925 -0.3649  0.6734 -0.7164
  128CHL1  H18A15686   2.368   1.920   3.992 -2.2581 -1.0290 -0.4682
  128CHL1  H18B15687   2.236   2.025   4.000 -0.7731 -0.9963 -0.1227
  128CHL1  H18C15688   2.237   1.930   3.855 -0.6001  1.6372 -1.2359
  128CHL1   C1215689   2.300   2.214   3.797 -0.4724 -0.5335  0.0455
  128CHL1  H12A15690   2.239   2.265   3.875 -0.2682 -0.4126  0.1248
  128CHL1  H12B15691   2.368   2.293   3.760 -2.3569  1.4207  0.5396
  128CHL1   C1115692   2.220   2.158   3.677 -0.1440  0.0541  0.3027
  128CHL1  H11A15693   2.157   2.077   3.720  2.0620 -0.7308  2.2664
  128CHL1  H11B15694   2.157   2.239   3.636  1.8160  0.7690 -1.4953
  128CHL1    C915695   2.311   2.091   3.564  1.0225  0.0476 -0.3417
  128CHL1    H915696   2.366   2.176   3.518  0.8013 -0.8022 -2.2908
  128CHL1   C1015697   2.229   2.028   3.447  0.2038  0.1178 -0.1272
  128CHL1   C1915698   2.124   1.932   3.496  0.4738  0.3930  0.1879
  128CHL1  H19A15699   2.158   1.854   3.568 -0.3363 -0.8831 -0.7790
  128CHL1  H19B15700   2.034   1.981   3.536  1.9477  1.2211  2.7066
  128CHL1  H19C15701   2.090   1.880   3.403  0.9602  1.4586 -0.6059
  128CHL1    C115702   2.166   2.148   3.372  0.8675 -0.8267 -0.5408
  128CHL1   H1A15703   2.075   2.181   3.428  1.6169  3.8934 -1.6983
  128CHL1   H1B15704   2.231   2.238   3.372  3.0904 -2.2636  1.9879
  128CHL1    C215705   2.107   2.127   3.230  0.3693  0.3158 -0.4449
  128CHL1   H2A15706   2.085   2.226   3.187  4.3497  0.8078 -1.7406
  128CHL1   H2B15707   2.028   2.049   3.241  2.1394 -1.2453  2.3804
  128CHL1   C2015708   2.459   2.154   4.118 -0.1639  0.1004 -0.1995
  128CHL1   H2015709   2.424   2.057   4.161  0.5524  0.7948  2.0588
  128CHL1   C2115710   2.340   2.255   4.121  0.0139  0.2294  0.3333
  128CHL1  H21A15711   2.256   2.199   4.075 -0.0091  0.4191  0.1425
  128CHL1  H21B15712   2.362   2.350   4.069  0.6062  0.4556  0.9852
  128CHL1  H21C15713   2.310   2.262   4.228 -3.0167 -2.3358 -0.1883
  128CHL1   C2215714   2.567   2.204   4.210 -1.0524 -0.0634  0.1889
  128CHL1  H22A15715   2.652   2.134   4.195 -1.4418 -0.1914 -1.7172
  128CHL1  H22B15716   2.593   2.307   4.176  0.4322 -0.6670 -0.6169
  128CHL1   C2315717   2.530   2.201   4.362 -0.3291  0.2532  0.0757
  128CHL1  H23A15718   2.461   2.286   4.380 -1.2204 -0.4954  0.2463
  128CHL1  H23B15719   2.491   2.098   4.373 -3.9234  1.4516 -0.1945
  128CHL1   C2415720   2.662   2.205   4.451  0.6071  0.2415  0.7374
  128CHL1  H24A15721   2.729   2.119   4.434  0.7734  0.2063  1.5601
  128CHL1  H24B15722   2.710   2.298   4.414 -1.7568  0.7418 -1.3908
  128CHL1   C2515723   2.644   2.220   4.602  0.3007 -0.0993 -0.2081
  128CHL1   H2515724   2.601   2.318   4.629  0.8813 -0.2043  1.1715
  128CHL1   C2615725   2.541   2.111   4.650  0.2568  0.4864 -0.5376
  128CHL1  H26A15726   2.512   2.136   4.754  0.1141  0.6443 -0.6140
  128CHL1  H26B15727   2.444   2.119   4.596 -1.2926  1.6755  2.2446
  128CHL1  H26C15728   2.583   2.009   4.635  1.7970  1.3505 -2.5296
  128CHL1   C2715729   2.782   2.218   4.669  0.4306 -0.6584  0.0975
  128CHL1  H27A15730   2.822   2.114   4.667 -1.5924 -1.4987  0.5621
  128CHL1  H27B15731   2.856   2.277   4.612  0.1476 -0.6350 -0.2447
  128CHL1  H27C15732   2.780   2.247   4.777 -2.6107 -2.7278  0.7207
  129CHL1    C315733   5.928   6.706   2.477  0.7335  0.1377 -0.1809
  129CHL1    H315734   5.831   6.727   2.426  0.0874 -2.2882 -0.1086
  129CHL1    O315735   5.985   6.598   2.406 -0.0354 -0.0321  0.0778
  129CHL1   H3'15736   6.016   6.633   2.322  0.9938 -0.6195  0.1903
  129CHL1    C415737   6.020   6.820   2.485 -1.1436 -0.2229 -0.4318
  129CHL1   H4A15738   6.114   6.781   2.531 -0.4969 -1.7874 -2.8584
  129CHL1   H4B15739   6.044   6.849   2.381 -1.5123  0.6391 -0.2815
  129CHL1    C515740   5.966   6.932   2.565  0.1591 -0.0817 -0.1035
  129CHL1    C615741   5.952   7.055   2.502  0.5480  0.0527  0.7758
  129CHL1    H615742   5.970   7.068   2.394 -1.5637  1.8849  0.5656
  129CHL1    C715743   5.909   7.168   2.582  0.2627 -0.0377  0.6067
  129CHL1   H7A15744   5.978   7.253   2.560  0.2153 -0.6282 -2.2155
  129CHL1   H7B15745   5.807   7.193   2.547  1.1072  1.8805 -0.6289
  129CHL1    C815746   5.906   7.149   2.735  0.3747 -0.6621  0.0946
  129CHL1    H815747   6.009   7.151   2.778  0.8493 -0.4862 -1.0133
  129CHL1   C1415748   5.811   7.256   2.783 -0.1049 -0.2276 -0.7464
  129CHL1   H1415749   5.715   7.220   2.740 -0.9542  0.2147  0.7073
  129CHL1   C1515750   5.831   7.407   2.735 -0.2850  0.1995 -0.1049
  129CHL1  H15A15751   5.938   7.432   2.750  0.4379 -2.8327  0.5647
  129CHL1  H15B15752   5.798   7.410   2.629  0.5932  1.3237 -0.3563
  129CHL1   C1615753   5.745   7.484   2.836  0.8534  0.3058  0.0968
  129CHL1  H16A15754   5.809   7.560   2.886  2.6934 -0.4127 -1.0813
  129CHL1  H16B15755   5.659   7.538   2.791  0.5252  3.1817  3.7349
  129CHL1   C1715756   5.695   7.378   2.932  0.2836  0.5346  0.0514
  129CHL1   H1715757   5.604   7.320   2.905  0.9321 -1.1810  1.3898
  129CHL1   C1315758   5.788   7.256   2.927 -0.0014 -0.3493 -0.1330
  129CHL1   C1815759   5.919   7.303   2.996  0.2979 -0.4681  0.2358
  129CHL1  H18A15760   6.000   7.227   2.986  1.1095  0.5510 -1.1044
  129CHL1  H18B15761   5.973   7.390   2.954  0.9909  0.2269  2.4311
  129CHL1  H18C15762   5.907   7.313   3.106 -1.0524  2.7146 -0.1237
  129CHL1   C1215763   5.736   7.118   2.978 -0.1164  0.5577  0.1054
  129CHL1  H12A15764   5.729   7.130   3.088  1.8247  1.3502  0.1890
  129CHL1  H12B15765   5.638   7.114   2.927  0.4228 -0.0890 -0.9053
  129CHL1   C1115766   5.821   7.001   2.927 -0.3819  0.0837 -0.2905
  129CHL1  H11A15767   5.923   7.006   2.971  1.0935  1.4647 -3.5204
  129CHL1  H11B15768   5.777   6.908   2.969 -0.2001 -0.0141 -0.3162
  129CHL1    C915769   5.847   7.010   2.772  0.0680  0.4880  0.0832
  129CHL1    H915770   5.742   7.012   2.735 -0.7373  0.5757  2.2404
  129CHL1   C1015771   5.931   6.902   2.707  0.1783  0.1596  0.0694
  129CHL1   C1915772   6.056   6.868   2.796  0.5561  0.2908  0.4640
  129CHL1  H19A15773   6.124   6.789   2.757 -0.5516  0.3021 -1.5934
  129CHL1  H19B15774   6.110   6.964   2.781 -0.1340  0.6212  0.0580
  129CHL1  H19C15775   6.032   6.856   2.904  1.7879  3.4597  1.2174
  129CHL1    C115776   5.838   6.772   2.699  0.5331  0.4606  0.1713
  129CHL1   H1A15777   5.824   6.747   2.806  3.0393  0.3707  0.5319
  129CHL1   H1B15778   5.740   6.798   2.653 -0.2318  0.6629  1.8404
  129CHL1    C215779   5.899   6.656   2.621 -0.4679 -0.4828 -0.2543
  129CHL1   H2A15780   5.827   6.572   2.611 -0.0182 -1.2267  2.1884
  129CHL1   H2B15781   5.989   6.610   2.667  0.3424 -0.6438 -1.9003
  129CHL1   C2015782   5.668   7.426   3.082  0.0535  0.6049 -0.7558
  129CHL1   H2015783   5.678   7.337   3.148  0.2077  0.7598 -0.5729
  129CHL1   C2115784   5.519   7.481   3.085  0.3685 -0.5537  0.3134
  129CHL1  H21A15785   5.517   7.580   3.036  1.6237 -0.4591  0.4150
  129CHL1  H21B15786   5.495   7.503   3.191  0.2881 -0.3947  0.2626
  129CHL1  H21C15787   5.448   7.403   3.051  0.1888  0.0757 -0.8088
  129CHL1   C2215788   5.764   7.530   3.150  0.6875  0.5715  0.6929
  129CHL1  H22A15789   5.873   7.520   3.132  0.4703  0.0936 -0.4280
  129CHL1  H22B15790   5.739   7.634   3.119  0.5157  0.8951  1.8534
  129CHL1   C2315791   5.754   7.521   3.302  0.0787  0.9143 -0.4715
  129CHL1  H23A15792   5.648   7.529   3.333  0.5215 -1.3847  2.0228
  129CHL1  H23B15793   5.798   7.424   3.335 -1.1319  0.7654  0.7823
  129CHL1   C2415794   5.829   7.625   3.385 -0.0075  0.0481 -0.4928
  129CHL1  H24A15795   5.931   7.637   3.343 -0.0681  0.4643 -0.5188
  129CHL1  H24B15796   5.787   7.727   3.379  2.6395  1.2407  0.0716
  129CHL1   C2515797   5.839   7.594   3.536  0.2232 -0.0976  0.0413
  129CHL1   H2515798   5.866   7.488   3.553 -0.9250 -0.3424  0.4077
  129CHL1   C2615799   5.945   7.676   3.619  0.1185 -1.3521  0.1148
  129CHL1  H26A15800   6.043   7.661   3.568  0.0118 -1.3122 -0.1027
  129CHL1  H26B15801   5.905   7.780   3.618 -0.3851 -1.5459 -0.9145
  129CHL1  H26C15802   5.948   7.661   3.729 -0.4758  0.1204  0.3595
  129CHL1   C2715803   5.706   7.632   3.602 -0.4962 -0.3844 -0.1319
  129CHL1  H27A15804   5.626   7.566   3.560 -1.9706  0.5986  1.0079
  129CHL1  H27B15805   5.702   7.622   3.712 -0.4728  0.8692 -0.0014
  129CHL1  H27C15806   5.678   7.736   3.572 -0.9095 -0.8645 -1.5105
  130CHL1    C315807   1.643   6.617   3.459 -0.3819 -0.0527  0.1643
  130CHL1    H315808   1.661   6.724   3.434  3.6260 -0.8556 -1.2535
  130CHL1    O315809   1.644   6.539   3.344  0.2133  0.3099 -0.0689
  130CHL1   H3'15810   1.732   6.537   3.308  0.8655  0.1880  1.4736
  130CHL1    C415811   1.765   6.578   3.546 -0.2132  0.5026  0.4653
  130CHL1   H4A15812   1.769   6.468   3.559 -1.2108  0.2182 -1.4131
  130CHL1   H4B15813   1.857   6.601   3.488  0.1492 -1.2762  0.2919
  130CHL1    C515814   1.771   6.655   3.676 -0.2930  0.0198  0.0269
  130CHL1    C615815   1.884   6.726   3.708 -0.0462  0.4727  0.5935
  130CHL1    H615816   1.968   6.721   3.638 -0.4986 -1.6561  0.1370
  130CHL1    C715817   1.889   6.817   3.823 -0.2595 -0.8464 -0.0849
  130CHL1   H7A15818   1.990   6.810   3.869  0.2133  1.4867 -0.6152
  130CHL1   H7B15819   1.879   6.925   3.796  0.6087 -0.4573  1.0572
  130CHL1    C815820   1.782   6.801   3.936  0.4399  0.5770  0.0341
  130CHL1    H815821   1.787   6.704   3.990  0.8311  0.6030  0.0415
  130CHL1   C1415822   1.779   6.917   4.034  0.7862 -0.0201  0.0457
  130CHL1   H1415823   1.766   7.007   3.970 -0.7614  0.8647  1.5331
  130CHL1   C1515824   1.900   6.938   4.119 -0.0032 -0.2870  0.2517
  130CHL1  H15A15825   1.932   6.839   4.157  1.2229  0.1938  0.5156
  130CHL1  H15B15826   1.988   6.974   4.060  0.1725 -1.1565 -0.0292
  130CHL1   C1615827   1.852   7.030   4.228 -0.4774  0.3178  0.5758
  130CHL1  H16A15828   1.860   6.985   4.330  1.5560  0.1091  0.3684
  130CHL1  H16B15829   1.907   7.127   4.224  0.6836 -0.3733 -1.0781
  130CHL1   C1715830   1.701   7.063   4.206  0.5091  0.6776 -0.4020
  130CHL1   H1715831   1.698   7.152   4.140  4.4145  1.4041  0.1534
  130CHL1   C1315832   1.656   6.929   4.126 -0.7463 -0.5842  0.2256
  130CHL1   C1815833   1.651   6.813   4.235 -0.4362  0.2195 -0.8162
  130CHL1  H18A15834   1.742   6.810   4.298 -0.8449 -1.8935 -0.2850
  130CHL1  H18B15835   1.560   6.830   4.297  0.6472  1.4849  0.5071
  130CHL1  H18C15836   1.646   6.713   4.187  0.5975  0.2681 -1.0456
  130CHL1   C1215837   1.535   6.931   4.043  0.2064 -0.1997 -0.1009
  130CHL1  H12A15838   1.451   6.926   4.115 -0.3781  3.6371 -0.3433
  130CHL1  H12B15839   1.522   7.033   4.002 -0.7575 -0.2256  0.1150
  130CHL1   C1115840   1.527   6.812   3.947 -0.3454  0.5432 -0.4016
  130CHL1  H11A15841   1.530   6.722   4.012 -1.1763  1.0767  0.3965
  130CHL1  H11B15842   1.433   6.815   3.889 -0.2069  0.4171 -0.6343
  130CHL1    C915843   1.647   6.794   3.856  0.1446  0.2529 -0.2128
  130CHL1    H915844   1.647   6.883   3.790 -0.4279  0.2770 -0.1856
  130CHL1   C1015845   1.639   6.672   3.756  0.1223 -0.2510  0.4344
  130CHL1   C1915846   1.613   6.546   3.841  0.1767 -0.3114  0.2206
  130CHL1  H19A15847   1.697   6.537   3.913  0.1669 -0.5236  0.2068
  130CHL1  H19B15848   1.520   6.545   3.902 -0.3787 -0.6196 -0.6040
  130CHL1  H19C15849   1.600   6.461   3.771 -1.7279  0.7479 -0.8100
  130CHL1    C115850   1.515   6.700   3.665  0.8001 -0.3950 -0.7258
  130CHL1   H1A15851   1.419   6.698   3.722  0.9850 -1.7154 -0.4384
  130CHL1   H1B15852   1.527   6.800   3.619  1.9598 -0.6282 -0.9435
  130CHL1    C215853   1.512   6.609   3.540 -0.0833 -0.0991  0.5234
  130CHL1   H2A15854   1.434   6.635   3.465  1.6525  0.9904 -1.0158
  130CHL1   H2B15855   1.498   6.503   3.571 -0.3811  0.1547  1.2697
  130CHL1   C2015856   1.628   7.098   4.334  0.1958  0.3692  0.3360
  130CHL1   H2015857   1.609   7.014   4.403  1.2408 -1.0987 -1.0996
  130CHL1   C2115858   1.486   7.148   4.289  0.1818  0.1638  0.2956
  130CHL1  H21A15859   1.422   7.191   4.368  0.8255 -0.2721  1.0723
  130CHL1  H21B15860   1.431   7.058   4.254  2.6266 -0.6639 -1.7340
  130CHL1  H21C15861   1.485   7.219   4.203 -1.4632 -0.7883 -0.5317
  130CHL1   C2215862   1.704   7.200   4.426  0.0691  0.1883  0.0223
  130CHL1  H22A15863   1.813   7.178   4.429 -0.1435 -0.8355  0.8618
  130CHL1  H22B15864   1.687   7.306   4.396 -1.6154  0.0028  0.2225
  130CHL1   C2315865   1.643   7.202   4.564 -0.0798 -0.5191  0.3512
  130CHL1  H23A15866   1.562   7.277   4.551 -0.6154 -1.3429 -1.3791
  130CHL1  H23B15867   1.609   7.104   4.603 -2.2146  0.1055  0.1744
  130CHL1   C2415868   1.740   7.262   4.668 -0.5963 -0.2399  0.0527
  130CHL1  H24A15869   1.830   7.197   4.671 -1.3617 -1.4168 -1.3248
  130CHL1  H24B15870   1.773   7.365   4.642  0.5712  0.1716  2.7813
  130CHL1   C2515871   1.671   7.268   4.804 -0.1196  0.0782  0.0204
  130CHL1   H2515872   1.565   7.294   4.782  0.2708  1.3306 -0.4397
  130CHL1   C2615873   1.672   7.127   4.872  0.9631 -0.1287 -0.4572
  130CHL1  H26A15874   1.779   7.101   4.883  0.8332 -0.3472  0.3658
  130CHL1  H26B15875   1.621   7.133   4.971 -4.1817  0.4524 -2.8221
  130CHL1  H26C15876   1.617   7.046   4.818  0.0859  0.0872  0.0842
  130CHL1   C2715877   1.714   7.375   4.901  0.3953 -0.7367 -0.2273
  130CHL1  H27A15878   1.820   7.367   4.932  0.2864 -1.8000 -0.0625
  130CHL1  H27B15879   1.687   7.474   4.858 -2.9092 -2.4044 -2.4851
  130CHL1  H27C15880   1.652   7.355   4.991 -2.4944  0.7725 -1.7102
  131CHL1    C315881   1.901   6.202   3.463  0.2752  0.4845  0.0955
  131CHL1    H315882   1.857   6.303   3.445 -0.8200  0.0636  0.3642
  131CHL1    O315883   1.936   6.142   3.337  0.0089  0.5495  0.3803
  131CHL1   H3'15884   1.904   6.052   3.342  1.5733 -0.0593 -0.0927
  131CHL1    C415885   2.034   6.219   3.545  0.0676  0.0540 -0.2712
  131CHL1   H4A15886   2.109   6.137   3.546 -0.3785 -0.4145  2.4528
  131CHL1   H4B15887   2.094   6.292   3.486 -0.3108  1.4181  0.9724
  131CHL1    C515888   2.011   6.266   3.687  0.8067 -0.0341 -0.2907
  131CHL1    C615889   2.068   6.369   3.736 -0.2791  0.4671  0.3988
  131CHL1    H615890   2.140   6.433   3.682 -0.2671  1.8293  1.9426
  131CHL1    C715891   2.049   6.409   3.883 -0.5393 -0.2939 -0.1239
  131CHL1   H7A15892   2.146   6.452   3.916 -0.8908  2.4373 -2.2806
  131CHL1   H7B15893   1.985   6.499   3.890  1.5320  1.1387  2.2567
  131CHL1    C815894   1.993   6.300   3.970  0.3411  0.5172 -0.1144
  131CHL1    H815895   2.071   6.227   4.000 -0.0724  0.3608  0.6170
  131CHL1   C1415896   1.932   6.367   4.090  0.8238  0.4630 -0.1464
  131CHL1   H1415897   1.845   6.427   4.055 -0.6411 -1.4048  0.1796
  131CHL1   C1515898   2.016   6.472   4.167  0.0654  0.4170  0.4155
  131CHL1  H15A15899   2.122   6.443   4.179  0.4376  1.3825 -0.4129
  131CHL1  H15B15900   2.005   6.565   4.108 -3.0394 -0.0394  0.0954
  131CHL1   C1615901   1.946   6.476   4.303 -0.2081  0.1459 -0.0577
  131CHL1  H16A15902   2.022   6.444   4.379  0.6099  0.6442 -0.6552
  131CHL1  H16B15903   1.914   6.574   4.344 -0.6499 -0.8964  2.2797
  131CHL1   C1715904   1.823   6.379   4.297 -0.7113  0.2687 -0.7741
  131CHL1   H1715905   1.740   6.444   4.263 -1.0766  1.1439  1.5608
  131CHL1   C1315906   1.859   6.277   4.191  0.6508  0.9227 -0.3357
  131CHL1   C1815907   1.961   6.170   4.243 -0.1709 -0.1606  0.6450
  131CHL1  H18A15908   2.053   6.222   4.277  0.9567 -2.7101  1.6948
  131CHL1  H18B15909   1.927   6.110   4.330  2.0912 -3.5866 -0.6683
  131CHL1  H18C15910   1.985   6.097   4.163 -1.1780  0.7024 -0.4899
  131CHL1   C1215911   1.741   6.204   4.118  0.0763  0.6754 -0.3210
  131CHL1  H12A15912   1.701   6.119   4.177  3.2834 -0.9793 -0.3461
  131CHL1  H12B15913   1.664   6.279   4.089  0.6827  1.3702 -0.1690
  131CHL1   C1115914   1.795   6.136   3.990  0.1232 -0.7243  0.2382
  131CHL1  H11A15915   1.856   6.048   4.018 -0.6497 -1.0458  0.9231
  131CHL1  H11B15916   1.706   6.092   3.941  0.0023 -1.3283  0.9905
  131CHL1    C915917   1.877   6.232   3.895  0.8641  0.0938  0.2329
  131CHL1    H915918   1.804   6.313   3.876 -0.1178 -0.3901  1.7482
  131CHL1   C1015919   1.910   6.169   3.758  0.0365  0.2321 -0.8589
  131CHL1   C1915920   1.983   6.035   3.782 -0.0285  0.8147  0.1981
  131CHL1  H19A15921   2.082   6.054   3.829  0.9797 -1.3253 -0.9290
  131CHL1  H19B15922   1.927   5.962   3.845 -0.3826 -0.8062 -1.8609
  131CHL1  H19C15923   1.991   5.988   3.682 -1.4890  0.0966  0.3971
  131CHL1    C115924   1.779   6.142   3.682 -0.2677 -0.2745  0.5431
  131CHL1   H1A15925   1.720   6.061   3.731 -2.9610 -0.2611 -2.3766
  131CHL1   H1B15926   1.710   6.229   3.691  0.6449  0.4846  0.4135
  131CHL1    C215927   1.800   6.105   3.530 -0.7155  0.1248  0.1334
  131CHL1   H2A15928   1.706   6.105   3.471 -0.9847 -0.3318  0.5592
  131CHL1   H2B15929   1.843   6.003   3.522 -2.1876 -0.3365 -3.3883
  131CHL1   C2015930   1.785   6.315   4.436 -0.7563  0.9345 -0.0403
  131CHL1   H2015931   1.870   6.251   4.467 -0.5735  1.5092  0.6613
  131CHL1   C2115932   1.668   6.217   4.431 -0.5766 -0.4101  0.0639
  131CHL1  H21A15933   1.641   6.197   4.537  0.6868 -0.1800  0.4487
  131CHL1  H21B15934   1.699   6.131   4.368  2.5818 -1.6578  3.0174
  131CHL1  H21C15935   1.582   6.272   4.388 -0.3333  0.2162  0.3636
  131CHL1   C2215936   1.757   6.414   4.546  0.4130  0.5158  0.5512
  131CHL1  H22A15937   1.748   6.356   4.640 -0.7622 -0.9820 -0.4291
  131CHL1  H22B15938   1.844   6.484   4.551  0.1957  0.9497 -1.1633
  131CHL1   C2315939   1.625   6.488   4.526  0.4803 -0.3097  0.2214
  131CHL1  H23A15940   1.622   6.519   4.419 -0.8302  0.4355  0.4583
  131CHL1  H23B15941   1.539   6.420   4.545 -0.4957  1.0029  0.6145
  131CHL1   C2415942   1.599   6.602   4.612  0.1988 -0.6504 -0.1739
  131CHL1  H24A15943   1.612   6.559   4.713  0.5200  0.1169  0.1256
  131CHL1  H24B15944   1.678   6.680   4.600 -0.3055 -0.1297 -0.1668
  131CHL1   C2515945   1.479   6.690   4.593  0.1060  0.0576  0.9446
  131CHL1   H2515946   1.482   6.711   4.484 -0.0439  1.8433  1.2494
  131CHL1   C2615947   1.339   6.623   4.623 -0.0179  0.4920  0.2007
  131CHL1  H26A15948   1.268   6.706   4.602 -1.6291 -0.9317 -0.2639
  131CHL1  H26B15949   1.317   6.541   4.551 -1.3371  1.2419 -0.2850
  131CHL1  H26C15950   1.338   6.593   4.730  1.2121  0.0092  0.0957
  131CHL1   C2715951   1.486   6.812   4.679  0.6255  0.2892 -0.4333
  131CHL1  H27A15952   1.479   6.793   4.788 -1.4087  1.7367 -0.2438
  131CHL1  H27B15953   1.583   6.864   4.663  0.0152  1.7501  0.3877
  131CHL1  H27C15954   1.403   6.886   4.669 -0.3768 -0.4115  2.0823
  132CHL1    C315955   3.722   0.461   2.890  0.6200 -0.3001 -0.6930
  132CHL1    H315956   3.793   0.546   2.879  1.2869 -0.6234  0.8545
  132CHL1    O315957   3.674   0.440   2.761 -0.3269 -0.0564 -0.3975
  132CHL1   H3'15958   3.631   0.355   2.767 -1.5861  0.6264  0.5508
  132CHL1    C415959   3.796   0.336   2.932 -0.2764 -0.3520 -0.2168
  132CHL1   H4A15960   3.719   0.259   2.953 -0.0540  0.0180  2.2102
  132CHL1   H4B15961   3.867   0.303   2.853 -0.6614 -1.2149 -0.2158
  132CHL1    C515962   3.861   0.357   3.061  0.8756  0.1119 -0.5515
  132CHL1    C615963   3.996   0.353   3.076  0.1218 -0.2219 -0.5922
  132CHL1    H615964   4.052   0.332   2.983 -1.3665 -0.1720 -1.5423
  132CHL1    C715965   4.077   0.375   3.197  0.0673  0.3649 -0.5184
  132CHL1   H7A15966   4.129   0.279   3.216 -0.1095  0.5398  0.9350
  132CHL1   H7B15967   4.137   0.467   3.181 -0.8341  0.8148 -1.4701
  132CHL1    C815968   3.983   0.392   3.329 -0.3105 -0.7898  0.4033
  132CHL1    H815969   3.974   0.286   3.360  3.8205 -0.9114  1.8211
  132CHL1   C1415970   4.065   0.455   3.434 -0.5016 -0.4770  0.9913
  132CHL1   H1415971   4.081   0.558   3.394  0.4980 -1.0542 -0.1609
  132CHL1   C1515972   4.194   0.385   3.463 -0.6278 -0.5482  0.4584
  132CHL1  H15A15973   4.175   0.276   3.465  1.5495 -0.9754  0.6416
  132CHL1  H15B15974   4.272   0.410   3.389 -2.6038  0.7020 -1.3307
  132CHL1   C1615975   4.229   0.438   3.607  0.4634 -0.1958 -0.1561
  132CHL1  H16A15976   4.236   0.349   3.672 -0.7322 -2.0265 -2.3676
  132CHL1  H16B15977   4.324   0.495   3.605  0.2140  0.3769  2.0781
  132CHL1   C1715978   4.104   0.527   3.651 -1.0657 -0.4458 -0.2733
  132CHL1   H1715979   4.131   0.624   3.605 -1.5731 -0.8746 -1.5071
  132CHL1   C1315980   3.986   0.474   3.567  0.4655  0.6210 -0.8323
  132CHL1   C1815981   3.944   0.336   3.632 -0.1680 -0.1342 -0.3236
  132CHL1  H18A15982   3.865   0.296   3.566 -1.9656 -0.1154  1.6934
  132CHL1  H18B15983   4.020   0.255   3.634 -0.4390 -0.3957  1.2852
  132CHL1  H18C15984   3.898   0.353   3.732  0.2154 -1.6687  0.1429
  132CHL1   C1215985   3.871   0.571   3.537 -0.8181 -0.4841 -0.2938
  132CHL1  H12A15986   3.810   0.592   3.628 -1.3616 -1.2731 -0.4676
  132CHL1  H12B15987   3.911   0.663   3.489  1.7190 -2.0810 -1.4723
  132CHL1   C1115988   3.783   0.510   3.429  0.4725  0.0441 -0.2293
  132CHL1  H11A15989   3.729   0.421   3.469 -0.0878  0.7625  0.6595
  132CHL1  H11B15990   3.708   0.586   3.400 -0.7960 -2.0248 -2.7855
  132CHL1    C915991   3.856   0.473   3.297 -0.4338 -0.2544 -0.7639
  132CHL1    H915992   3.878   0.576   3.262 -0.6255  0.7504  1.8316
  132CHL1   C1015993   3.770   0.413   3.183  0.6075 -0.3708  0.4951
  132CHL1   C1915994   3.682   0.301   3.240  0.3438  0.0262  0.0144
  132CHL1  H19A15995   3.612   0.266   3.160 -0.7293  0.6545  0.6501
  132CHL1  H19B15996   3.752   0.222   3.274  0.3308  0.7768  1.9129
  132CHL1  H19C15997   3.625   0.336   3.329  2.3457 -1.6703  2.0900
  132CHL1    C115998   3.673   0.529   3.127 -0.2194  0.4158 -0.1358
  132CHL1   H1A15999   3.591   0.544   3.200  1.3541  1.8193  1.4208
  132CHL1   H1B16000   3.710   0.634   3.121  3.7868 -0.7478  1.0775
  132CHL1    C216001   3.607   0.493   2.986  0.3255 -0.6087 -0.5399
  132CHL1   H2A16002   3.549   0.581   2.952  0.7269  0.0925  0.5262
  132CHL1   H2B16003   3.531   0.413   2.982 -1.8242  1.3299 -0.7441
  132CHL1   C2016004   4.095   0.551   3.806  0.6090 -0.3518 -0.0078
  132CHL1   H2016005   4.067   0.455   3.854  0.5131 -1.1362 -1.5746
  132CHL1   C2116006   3.978   0.650   3.843  0.1057 -0.1420  0.0253
  132CHL1  H21A16007   3.985   0.742   3.782  1.8702  0.1935  0.6674
  132CHL1  H21B16008   3.991   0.692   3.945 -0.0506  3.3056 -1.2464
  132CHL1  H21C16009   3.883   0.594   3.830 -0.4643  0.1686  2.5077
  132CHL1   C2216010   4.225   0.593   3.869 -0.4233  1.1990  0.0440
  132CHL1  H22A16011   4.218   0.584   3.980  2.8768  0.4235  0.3031
  132CHL1  H22B16012   4.305   0.520   3.843  0.6397  1.5656  2.0753
  132CHL1   C2316013   4.282   0.734   3.838 -0.2759  0.3425 -0.3130
  132CHL1  H23A16014   4.262   0.744   3.729  1.6953  0.9145 -0.6601
  132CHL1  H23B16015   4.220   0.816   3.880 -0.7508 -0.2888  0.2424
  132CHL1   C2416016   4.429   0.761   3.868  0.4476 -0.0595  0.2722
  132CHL1  H24A16017   4.486   0.685   3.811  0.3816 -0.7342  1.0991
  132CHL1  H24B16018   4.451   0.865   3.834  0.7872  0.0380  0.7862
  132CHL1   C2516019   4.477   0.750   4.014  0.7560 -0.0663  0.2169
  132CHL1   H2516020   4.413   0.668   4.055  2.5126 -0.4434  2.3855
  132CHL1   C2616021   4.622   0.725   4.014 -0.1473 -0.1274 -0.7497
  132CHL1  H26A16022   4.679   0.816   3.983  2.5591 -1.8850 -1.3308
  132CHL1  H26B16023   4.669   0.696   4.110  1.6643  0.3447 -1.4434
  132CHL1  H26C16024   4.646   0.651   3.935 -1.3411  1.4372 -2.6752
  132CHL1   C2716025   4.451   0.878   4.101  0.2330  0.3812 -0.1331
  132CHL1  H27A16026   4.501   0.966   4.056  0.2950  1.1503  1.3748
  132CHL1  H27B16027   4.342   0.900   4.097  0.1688 -0.0557 -1.2092
  132CHL1  H27C16028   4.485   0.854   4.204  1.7023 -3.3943 -1.3107
  133CHL1    C316029   1.588   1.603   3.227 -0.5412  0.5642  0.2105
  133CHL1    H316030   1.650   1.518   3.263  0.2771  0.4653 -1.3479
  133CHL1    O316031   1.531   1.582   3.101 -0.1790 -0.5345 -0.5444
  133CHL1   H3'16032   1.478   1.662   3.093  0.4615 -0.0819 -0.3854
  133CHL1    C416033   1.478   1.632   3.330  0.4368  0.6839  0.2145
  133CHL1   H4A16034   1.416   1.703   3.270 -1.1891 -1.0603 -0.2443
  133CHL1   H4B16035   1.405   1.550   3.340 -0.0501  0.9636 -0.8836
  133CHL1    C516036   1.529   1.685   3.462 -0.3007  0.0739  0.0902
  133CHL1    C616037   1.497   1.627   3.577 -0.5786 -0.8358 -0.5250
  133CHL1    H616038   1.423   1.546   3.571 -0.8744 -0.5677 -0.4794
  133CHL1    C716039   1.526   1.682   3.715 -0.2825  0.4329 -0.3853
  133CHL1   H7A16040   1.435   1.694   3.778  0.1561  0.2296  0.3003
  133CHL1   H7B16041   1.599   1.620   3.772  0.9661  2.4091  0.2791
  133CHL1    C816042   1.590   1.824   3.711 -0.5790 -0.2056 -0.2865
  133CHL1    H816043   1.504   1.894   3.709 -0.8389 -0.4410  1.5234
  133CHL1   C1416044   1.678   1.855   3.830 -0.1249 -0.6262 -0.3019
  133CHL1   H1416045   1.767   1.790   3.821  0.0352 -0.2935 -1.1947
  133CHL1   C1516046   1.617   1.833   3.974 -0.0402  0.0223  0.6403
  133CHL1  H15A16047   1.515   1.878   3.976 -0.5569 -0.9151 -1.6612
  133CHL1  H15B16048   1.616   1.724   3.995 -0.6401 -0.4157 -1.4205
  133CHL1   C1616049   1.710   1.906   4.070 -0.0121 -0.0195 -0.3212
  133CHL1  H16A16050   1.642   1.973   4.126 -2.6273 -3.2587  0.6732
  133CHL1  H16B16051   1.764   1.841   4.142 -0.8461  0.4414  0.7446
  133CHL1   C1716052   1.808   1.989   3.978 -0.2256  0.4815 -0.3195
  133CHL1   H1716053   1.900   1.928   3.966  0.0052  0.9080 -0.7304
  133CHL1   C1316054   1.740   1.996   3.835  0.5001 -0.1745 -0.6358
  133CHL1   C1816055   1.627   2.102   3.843 -0.2445  0.0427 -0.1652
  133CHL1  H18A16056   1.671   2.204   3.846  0.0110  0.1038 -2.9493
  133CHL1  H18B16057   1.566   2.099   3.750  1.2912  1.7907 -1.3136
  133CHL1  H18C16058   1.548   2.084   3.918 -0.4401  2.5037  0.2955
  133CHL1   C1216059   1.840   2.011   3.717  0.7545 -0.4858 -0.4792
  133CHL1  H12A16060   1.884   2.112   3.711 -1.9565  0.7169 -1.4252
  133CHL1  H12B16061   1.916   1.932   3.738 -0.2985 -0.6996  3.3382
  133CHL1   C1116062   1.761   1.983   3.589  0.6572  0.3666  0.2419
  133CHL1  H11A16063   1.684   2.063   3.585 -1.6240 -1.7291  0.0210
  133CHL1  H11B16064   1.817   1.988   3.493 -0.3067 -0.1586 -0.3642
  133CHL1    C916065   1.686   1.839   3.585  0.0005  0.4787 -0.1623
  133CHL1    H916066   1.762   1.758   3.596 -1.8916 -1.2533  0.7372
  133CHL1   C1016067   1.618   1.807   3.447  0.1022 -0.0377 -0.1457
  133CHL1   C1916068   1.538   1.932   3.387  0.0456  0.5752  0.0408
  133CHL1  H19A16069   1.516   1.912   3.280  1.8025 -3.1985  0.2015
  133CHL1  H19B16070   1.436   1.941   3.430 -0.3004  1.0278 -0.8627
  133CHL1  H19C16071   1.588   2.031   3.385  0.0259  0.6333  1.5155
  133CHL1    C116072   1.736   1.785   3.343 -0.5807  0.5040  0.0474
  133CHL1   H1A16073   1.789   1.880   3.322 -0.2426  0.0496 -1.2626
  133CHL1   H1B16074   1.816   1.726   3.393 -1.7663  1.7721  3.8520
  133CHL1    C216075   1.689   1.717   3.209 -0.0896 -0.9526 -0.8641
  133CHL1   H2A16076   1.778   1.676   3.158  0.6704  1.8870 -2.0106
  133CHL1   H2B16077   1.656   1.802   3.145  1.5893  1.4830  1.2980
  133CHL1   C2016078   1.851   2.116   4.047  0.3515  0.4647 -0.5169
  133CHL1   H2016079   1.759   2.170   4.080  0.9364  0.5021  1.1632
  133CHL1   C2116080   1.931   2.210   3.956  0.0008  0.4227 -0.0568
  133CHL1  H21A16081   1.879   2.265   3.875  1.5072  0.3634 -1.1114
  133CHL1  H21B16082   2.011   2.150   3.908 -1.9173 -2.1871 -0.2258
  133CHL1  H21C16083   1.976   2.295   4.011 -0.5997  1.4176 -1.0525
  133CHL1   C2216084   1.931   2.095   4.182 -0.0439 -0.3700  0.5102
  133CHL1  H22A16085   1.884   2.008   4.233 -1.7754  0.6730  0.7792
  133CHL1  H22B16086   2.030   2.057   4.152 -1.1209 -1.1722 -2.3044
  133CHL1   C2316087   1.936   2.216   4.273  0.5422 -0.2069  0.1543
  133CHL1  H23A16088   1.966   2.309   4.219 -1.4447 -1.1648 -2.8370
  133CHL1  H23B16089   1.835   2.230   4.316 -0.9565  0.7813 -3.3387
  133CHL1   C2416090   2.040   2.185   4.386  0.9957  0.0116  0.3511
  133CHL1  H24A16091   2.003   2.091   4.432  2.5838  0.4833  2.7945
  133CHL1  H24B16092   2.141   2.176   4.340  0.8902 -0.4441  0.2052
  133CHL1   C2516093   2.066   2.297   4.491  0.3214  0.1542 -1.0616
  133CHL1   H2516094   1.966   2.331   4.528  0.4367  0.0458 -0.6383
  133CHL1   C2616095   2.140   2.243   4.610  1.4675  0.4482  0.1469
  133CHL1  H26A16096   2.101   2.145   4.644 -0.1540  1.1023  0.2483
  133CHL1  H26B16097   2.248   2.229   4.588  1.1011 -2.3874 -0.1482
  133CHL1  H26C16098   2.127   2.311   4.697 -1.4608  0.7478 -0.4526
  133CHL1   C2716099   2.138   2.417   4.431 -0.2795  0.7203  0.6121
  133CHL1  H27A16100   2.077   2.463   4.350  0.8527 -2.1197 -2.0625
  133CHL1  H27B16101   2.152   2.501   4.501  0.8417  3.1912 -2.3309
  133CHL1  H27C16102   2.237   2.381   4.397 -0.5516 -1.4783  1.9475
  134CHL1    C316103   5.253   3.103   2.666 -0.3566 -0.4632  0.4615
  134CHL1    H316104   5.296   3.205   2.671 -0.5969 -0.3856  1.0000
  134CHL1    O316105   5.224   3.066   2.533  0.3507  0.0634 -0.1958
  134CHL1   H3'16106   5.159   3.131   2.503 -1.4476 -0.9876  1.2456
  134CHL1    C416107   5.351   3.004   2.726 -0.2343 -0.4437  0.5842
  134CHL1   H4A16108   5.316   2.900   2.708  0.9394 -0.7282 -0.2329
  134CHL1   H4B16109   5.447   3.009   2.670 -0.6349 -0.4538 -0.1155
  134CHL1    C516110   5.375   3.012   2.878 -0.1213  0.5076 -0.0068
  134CHL1    C616111   5.501   3.031   2.928 -0.4911 -0.0257  0.3085
  134CHL1    H616112   5.583   3.031   2.855  0.1808  2.0053  0.9905
  134CHL1    C716113   5.534   3.048   3.069 -0.2971 -0.1286  0.3602
  134CHL1   H7A16114   5.607   2.967   3.090 -0.7528 -0.2418  1.5702
  134CHL1   H7B16115   5.581   3.147   3.086  0.4528 -0.7385  2.0629
  134CHL1    C816116   5.416   3.038   3.157  0.4246  0.4746 -0.3274
  134CHL1    H816117   5.397   2.930   3.177  1.2183  0.4087  0.1078
  134CHL1   C1416118   5.441   3.102   3.296 -0.0857 -0.1490 -1.1404
  134CHL1   H1416119   5.461   3.207   3.265 -2.0862  1.1007  1.4040
  134CHL1   C1516120   5.568   3.060   3.369  0.0882 -0.3848 -1.0754
  134CHL1  H15A16121   5.558   2.954   3.400  0.1002 -0.0288  0.2122
  134CHL1  H15B16122   5.662   3.086   3.315  0.1710 -0.4143 -0.9460
  134CHL1   C1616123   5.552   3.140   3.501  0.1331  0.1954  0.7438
  134CHL1  H16A16124   5.582   3.073   3.585  0.9778 -0.7223 -0.2613
  134CHL1  H16B16125   5.611   3.234   3.505  0.2222  0.1741 -0.0154
  134CHL1   C1716126   5.401   3.179   3.509  0.8354  0.6936 -0.5620
  134CHL1   H1716127   5.395   3.287   3.485  1.6392  1.0531  0.7675
  134CHL1   C1316128   5.325   3.107   3.397 -0.4672 -0.7729  0.2900
  134CHL1   C1816129   5.298   2.955   3.431  1.0531 -0.3609 -0.3046
  134CHL1  H18A16130   5.267   2.906   3.336 -0.7492 -2.2847  1.1859
  134CHL1  H18B16131   5.385   2.913   3.486 -0.5916 -0.6565  2.1898
  134CHL1  H18C16132   5.208   2.938   3.493  0.1434 -0.9498 -1.7203
  134CHL1   C1216133   5.212   3.181   3.332 -0.7214 -0.0283  0.1792
  134CHL1  H12A16134   5.125   3.182   3.400 -0.0146  0.4931  1.0860
  134CHL1  H12B16135   5.229   3.288   3.308 -2.1188  0.4220  1.1353
  134CHL1   C1116136   5.168   3.114   3.203  0.2237 -0.3450  0.2831
  134CHL1  H11A16137   5.109   3.022   3.224  1.3158 -1.3200 -0.7845
  134CHL1  H11B16138   5.097   3.184   3.155 -0.3053 -0.4729  0.8608
  134CHL1    C916139   5.288   3.095   3.100  0.0807 -0.0197  0.1188
  134CHL1    H916140   5.313   3.201   3.082 -0.0768 -0.1025 -0.6292
  134CHL1   C1016141   5.246   3.036   2.962  0.2891 -0.7632 -0.4531
  134CHL1   C1916142   5.189   2.897   2.982 -0.3239 -0.4297 -0.0083
  134CHL1  H19A16143   5.142   2.864   2.887 -1.5204  0.9297  0.0788
  134CHL1  H19B16144   5.267   2.823   3.010  0.9751  0.7208 -0.4939
  134CHL1  H19C16145   5.101   2.890   3.050  1.1736 -1.2831  1.9411
  134CHL1    C116146   5.139   3.129   2.896 -0.0243 -0.2332  0.0206
  134CHL1   H1A16147   5.037   3.105   2.933 -0.9809  3.1578 -0.0957
  134CHL1   H1B16148   5.169   3.235   2.911 -0.9470  0.0272  0.0605
  134CHL1    C216149   5.124   3.087   2.745 -0.1572 -0.2582 -0.0854
  134CHL1   H2A16150   5.047   3.150   2.696  0.1946 -1.8270 -2.8808
  134CHL1   H2B16151   5.089   2.982   2.735 -2.4046  0.4106  0.1415
  134CHL1   C2016152   5.326   3.177   3.646  0.5860  0.7412 -0.3847
  134CHL1   H2016153   5.216   3.180   3.629  0.2735  0.7579  1.4351
  134CHL1   C2116154   5.362   3.309   3.731 -0.5576 -0.4585 -0.1306
  134CHL1  H21A16155   5.301   3.318   3.824  0.3992  0.2969  0.4381
  134CHL1  H21B16156   5.342   3.395   3.664 -2.7104 -2.0919 -1.7510
  134CHL1  H21C16157   5.469   3.311   3.759 -0.6381  1.8433  0.2618
  134CHL1   C2216158   5.352   3.049   3.739 -0.2061 -0.2167 -0.3366
  134CHL1  H22A16159   5.328   2.953   3.688  0.8230 -0.8880  0.3965
  134CHL1  H22B16160   5.460   3.058   3.765  0.0344  0.8646 -1.6213
  134CHL1   C2316161   5.282   3.056   3.876  0.8310 -0.0793 -0.5765
  134CHL1  H23A16162   5.333   3.131   3.940 -0.4892  0.4805 -0.1546
  134CHL1  H23B16163   5.178   3.080   3.848  0.6511 -1.1699 -0.8856
  134CHL1   C2416164   5.276   2.926   3.949 -0.0645  0.4854  0.3253
  134CHL1  H24A16165   5.227   2.943   4.047  0.3870 -0.7413  0.7889
  134CHL1  H24B16166   5.208   2.849   3.907 -2.0773  1.8280  0.9908
  134CHL1   C2516167   5.407   2.857   3.985 -0.1717  0.0854  0.1686
  134CHL1   H2516168   5.481   2.845   3.903  0.5311 -2.1094  1.0590
  134CHL1   C2616169   5.478   2.939   4.095 -0.2910 -0.5023 -0.5758
  134CHL1  H26A16170   5.579   2.906   4.127  0.0340  1.9982  1.3676
  134CHL1  H26B16171   5.513   3.037   4.057 -2.3775  0.0935 -1.0889
  134CHL1  H26C16172   5.411   2.959   4.182 -0.2573  2.6342 -1.1455
  134CHL1   C2716173   5.393   2.713   4.035 -0.6264  0.3038  0.3004
  134CHL1  H27A16174   5.494   2.676   4.063  0.0040  1.5340 -0.2686
  134CHL1  H27B16175   5.329   2.715   4.126  1.2948  0.4088  1.7102
  134CHL1  H27C16176   5.343   2.645   3.963 -2.0813  1.3282  0.2981
  135CHL1    C316177   5.851   1.884   2.574 -0.1626 -0.3112 -0.5216
  135CHL1    H316178   5.762   1.948   2.589  1.8618  2.9359 -1.4367
  135CHL1    O316179   5.831   1.834   2.444 -0.6829 -0.1652  0.0719
  135CHL1   H3'16180   5.907   1.861   2.391  0.3292 -0.9675  1.0697
  135CHL1    C416181   5.985   1.969   2.580 -0.1492 -0.3754 -0.0847
  135CHL1   H4A16182   6.067   1.900   2.551 -2.3672 -3.0661 -0.2739
  135CHL1   H4B16183   5.978   2.048   2.503  3.0104 -1.7537 -1.9843
  135CHL1    C516184   5.997   2.021   2.722 -0.7911 -0.7055 -0.0680
  135CHL1    C616185   5.995   2.161   2.745 -0.1329  0.2676  0.3013
  135CHL1    H616186   5.989   2.234   2.663 -0.6290 -0.4086 -0.2726
  135CHL1    C716187   6.015   2.219   2.884  0.5241  0.3078  1.0018
  135CHL1   H7A16188   6.070   2.315   2.888 -1.0335  1.2307  1.2438
  135CHL1   H7B16189   5.911   2.234   2.921 -0.1248  1.0654 -1.0121
  135CHL1    C816190   6.076   2.116   2.989  0.1068 -0.0201 -0.0715
  135CHL1    H816191   6.181   2.093   2.962  0.0667 -0.8157  0.3942
  135CHL1   C1416192   6.083   2.170   3.132  0.4293 -0.4801 -0.0196
  135CHL1   H1416193   5.982   2.207   3.158  0.7118  0.4431 -0.2044
  135CHL1   C1516194   6.160   2.298   3.171  0.7229  0.0261  0.2225
  135CHL1  H15A16195   6.257   2.304   3.116  2.3246  2.4837  3.0624
  135CHL1  H15B16196   6.107   2.392   3.147 -3.1780 -0.6830  4.6742
  135CHL1   C1616197   6.196   2.296   3.318 -0.5330  0.0090  0.1301
  135CHL1  H16A16198   6.306   2.286   3.311 -0.7752 -2.1290 -1.6242
  135CHL1  H16B16199   6.170   2.384   3.381  4.3899  2.8540 -1.3198
  135CHL1   C1716200   6.145   2.157   3.364  0.8243  0.1364 -0.2052
  135CHL1   H1716201   6.037   2.173   3.385  0.1398 -1.5566 -2.1101
  135CHL1   C1316202   6.133   2.073   3.230 -0.0536 -0.1979 -0.3677
  135CHL1   C1816203   6.277   2.019   3.188  0.0751  0.3555 -0.0696
  135CHL1  H18A16204   6.342   2.107   3.167  2.1249 -0.7450  1.2908
  135CHL1  H18B16205   6.323   1.967   3.274 -0.5791  1.4544  0.9727
  135CHL1  H18C16206   6.282   1.956   3.097  3.4686  1.7970 -1.0378
  135CHL1   C1216207   6.026   1.964   3.232 -0.2886  0.5861  0.1875
  135CHL1  H12A16208   6.060   1.904   3.319 -0.0064  1.5365  0.7447
  135CHL1  H12B16209   5.924   2.005   3.252 -1.0914 -0.5084 -1.3951
  135CHL1   C1116210   6.022   1.884   3.104  0.9790  0.3661 -0.4426
  135CHL1  H11A16211   6.115   1.824   3.100  1.0887  0.5885 -2.9355
  135CHL1  H11B16212   5.932   1.819   3.096  0.5963  1.0038 -1.6094
  135CHL1    C916213   5.999   1.982   2.982  0.3581  0.0082  0.3001
  135CHL1    H916214   5.896   2.022   2.987 -0.0677 -0.8086 -1.1954
  135CHL1   C1016215   6.010   1.917   2.844 -0.7403 -0.1424  0.9200
  135CHL1   C1916216   6.137   1.824   2.825  0.0731  0.4319 -0.3409
  135CHL1  H19A16217   6.126   1.735   2.890  1.4364  0.0672 -0.5668
  135CHL1  H19B16218   6.142   1.792   2.719  1.2851 -0.0561 -0.1553
  135CHL1  H19C16219   6.238   1.864   2.849  1.0870 -2.0334 -0.2019
  135CHL1    C116220   5.887   1.828   2.818  0.5386 -0.3421  0.0611
  135CHL1   H1A16221   5.866   1.749   2.893 -2.3415  0.5579  0.3093
  135CHL1   H1B16222   5.802   1.898   2.833  1.7063  1.2261 -0.3459
  135CHL1    C216223   5.859   1.771   2.676 -0.2820 -0.0054  0.0238
  135CHL1   H2A16224   5.769   1.706   2.675 -1.0354  1.0162 -0.7028
  135CHL1   H2B16225   5.949   1.711   2.649 -0.7427 -0.5973 -0.2133
  135CHL1   C2016226   6.217   2.087   3.480 -0.2931  0.7544 -1.2553
  135CHL1   H2016227   6.215   1.977   3.468  1.3102  0.8149 -2.3872
  135CHL1   C2116228   6.138   2.117   3.610  0.2165  0.0209 -0.2908
  135CHL1  H21A16229   6.167   2.044   3.687 -0.3357  0.9774  0.8590
  135CHL1  H21B16230   6.028   2.106   3.595  0.2425 -2.6792  0.9244
  135CHL1  H21C16231   6.143   2.221   3.649 -1.3377  0.2812 -0.7144
  135CHL1   C2216232   6.364   2.118   3.501  0.6846  0.4096 -0.5834
  135CHL1  H22A16233   6.410   2.086   3.405 -0.4254  1.8147 -1.6378
  135CHL1  H22B16234   6.388   2.226   3.512  1.0781  0.6531 -3.1432
  135CHL1   C2316235   6.416   2.040   3.624 -0.8936  0.5789 -0.2671
  135CHL1  H23A16236   6.361   2.076   3.714 -2.0914  0.6799 -1.0165
  135CHL1  H23B16237   6.391   1.933   3.612 -1.4996  0.3894  2.0905
  135CHL1   C2416238   6.574   2.042   3.647  0.0241  0.5433 -0.1175
  135CHL1  H24A16239   6.619   2.004   3.553  0.9476  1.2227  0.0284
  135CHL1  H24B16240   6.608   2.145   3.670 -0.4786  0.9175 -0.9884
  135CHL1   C2516241   6.627   1.946   3.748 -0.1504 -0.4145 -0.4062
  135CHL1   H2516242   6.619   1.846   3.701 -0.5906 -0.6813  0.2212
  135CHL1   C2616243   6.773   1.966   3.775 -0.6675  0.1238 -0.1284
  135CHL1  H26A16244   6.844   1.946   3.691 -1.9638  0.4477 -1.3312
  135CHL1  H26B16245   6.796   2.063   3.823  0.0774  0.1824 -0.5793
  135CHL1  H26C16246   6.804   1.898   3.858 -0.4092  0.0324 -0.2986
  135CHL1   C2716247   6.553   1.948   3.884  0.1975 -1.0913 -1.0011
  135CHL1  H27A16248   6.448   1.915   3.868  0.3804 -2.3176  0.0799
  135CHL1  H27B16249   6.594   1.876   3.958  0.7982  1.0282  0.8318
  135CHL1  H27C16250   6.547   2.044   3.938  2.1209 -1.8311  0.6385
  136CHL1    C316251   3.931   1.339   3.045  0.4378 -0.1586 -0.1791
  136CHL1    H316252   3.845   1.287   3.093 -0.1318  2.4983  1.9463
  136CHL1    O316253   3.932   1.293   2.917  0.6362  0.3582  0.2779
  136CHL1   H3'16254   3.984   1.352   2.861  0.5525 -1.2669 -1.5942
  136CHL1    C416255   3.891   1.490   3.050 -0.3812 -0.0418  0.4504
  136CHL1   H4A16256   3.976   1.544   3.003  0.9560 -2.6854 -0.3836
  136CHL1   H4B16257   3.793   1.513   3.002 -0.2698 -0.7148 -0.1121
  136CHL1    C516258   3.894   1.531   3.194 -0.8307  0.0419  0.9193
  136CHL1    C616259   3.781   1.585   3.244  0.3514  0.4306  0.8793
  136CHL1    H616260   3.691   1.602   3.183  1.2247 -0.1982 -0.6268
  136CHL1    C716261   3.768   1.643   3.382 -0.3949  0.4009 -0.3460
  136CHL1   H7A16262   3.704   1.734   3.378 -2.3439 -0.5002  3.9751
  136CHL1   H7B16263   3.709   1.575   3.448  0.2536 -1.0793 -1.2411
  136CHL1    C816264   3.904   1.672   3.445 -0.0101  0.1061  0.4102
  136CHL1    H816265   3.951   1.756   3.390  0.9617 -0.8658 -0.2825
  136CHL1   C1416266   3.880   1.699   3.588  0.8202 -0.6857  0.4565
  136CHL1   H1416267   3.829   1.607   3.625 -0.2796 -1.1800 -2.0560
  136CHL1   C1516268   3.785   1.814   3.620 -0.1124  0.4568 -0.2694
  136CHL1  H15A16269   3.792   1.895   3.545 -1.0986 -0.1470 -1.0249
  136CHL1  H15B16270   3.679   1.783   3.630 -0.2753  1.0022 -0.2526
  136CHL1   C1616271   3.823   1.860   3.759  0.1112  0.4404 -0.1608
  136CHL1  H16A16272   3.858   1.966   3.753 -1.6057  1.0807  0.3391
  136CHL1  H16B16273   3.735   1.853   3.826  0.0670  0.9521 -0.1577
  136CHL1   C1716274   3.946   1.772   3.807 -0.7998  0.1745 -0.1404
  136CHL1   H1716275   3.920   1.675   3.855  1.1926  0.3380  1.4312
  136CHL1   C1316276   4.007   1.724   3.667 -0.4463 -0.7868  0.1596
  136CHL1   C1816277   4.084   1.843   3.607 -0.0659  0.1114  0.5607
  136CHL1  H18A16278   4.096   1.829   3.498 -1.0279 -1.5246  0.6371
  136CHL1  H18B16279   4.024   1.936   3.612  1.7813  1.4328 -0.6455
  136CHL1  H18C16280   4.182   1.850   3.658 -1.9367  1.3374  4.3953
  136CHL1   C1216281   4.085   1.591   3.662 -0.3991 -0.1977 -0.6803
  136CHL1  H12A16282   4.181   1.599   3.717 -1.2064  0.2014  0.7263
  136CHL1  H12B16283   4.016   1.517   3.708  0.5581 -0.0751  1.0401
  136CHL1   C1116284   4.115   1.552   3.523 -0.1102  0.2240 -0.6538
  136CHL1  H11A16285   4.191   1.625   3.488  0.7421 -0.1989  0.2815
  136CHL1  H11B16286   4.166   1.454   3.517  3.0026  1.8155 -2.5751
  136CHL1    C916287   3.994   1.548   3.432  0.3904 -0.3376 -0.0130
  136CHL1    H916288   3.929   1.462   3.460  0.6396  0.0167  1.7795
  136CHL1   C1016289   4.023   1.511   3.283  0.7625 -0.5608  0.2134
  136CHL1   C1916290   4.127   1.599   3.215 -0.7873 -0.1998  0.1421
  136CHL1  H19A16291   4.221   1.594   3.274 -1.0258  0.3675  0.5839
  136CHL1  H19B16292   4.155   1.563   3.114 -0.8597 -1.7444  0.6409
  136CHL1  H19C16293   4.095   1.705   3.204 -1.0883 -0.0839  1.8301
  136CHL1    C116294   4.073   1.368   3.264 -0.3914 -0.1898 -0.0511
  136CHL1   H1A16295   4.180   1.378   3.292  0.3603 -0.4821 -2.5623
  136CHL1   H1B16296   4.038   1.300   3.344 -0.9676  0.3864  0.1935
  136CHL1    C216297   4.065   1.308   3.122  0.0207 -0.0655 -0.3313
  136CHL1   H2A16298   4.083   1.199   3.125 -1.4228 -0.3065  0.7504
  136CHL1   H2B16299   4.154   1.351   3.070 -1.5921  2.6707 -1.0749
  136CHL1   C2016300   4.044   1.839   3.906 -0.3477 -0.0389 -0.1261
  136CHL1   H2016301   4.082   1.929   3.854  2.2806 -0.4723  0.9272
  136CHL1   C2116302   4.172   1.765   3.934 -0.3137 -0.5375 -0.2339
  136CHL1  H21A16303   4.143   1.663   3.968 -0.9103  0.2701  1.7890
  136CHL1  H21B16304   4.234   1.818   4.010 -0.3409 -1.2691  0.3081
  136CHL1  H21C16305   4.235   1.758   3.842  0.7698  0.7593  0.3850
  136CHL1   C2216306   3.971   1.880   4.035 -0.1967 -0.2189 -0.3267
  136CHL1  H22A16307   3.887   1.942   3.997  0.8793  2.0965  0.8038
  136CHL1  H22B16308   3.926   1.791   4.081  0.1611 -0.3264 -0.1815
  136CHL1   C2316309   4.047   1.969   4.128 -0.0014 -0.3927  0.3481
  136CHL1  H23A16310   4.123   1.909   4.182 -0.0323  2.7107  4.2455
  136CHL1  H23B16311   4.092   2.052   4.070  0.0070 -0.2687  0.5312
  136CHL1   C2416312   3.961   2.046   4.232 -0.3619  0.7994 -0.1342
  136CHL1  H24A16313   3.858   2.070   4.198 -1.6670 -2.4634  1.1014
  136CHL1  H24B16314   3.948   1.983   4.322  0.4442  0.5784 -0.1610
  136CHL1   C2516315   4.014   2.174   4.297  0.1941 -0.5377 -0.1386
  136CHL1   H2516316   4.043   2.242   4.214 -0.1332 -2.1234 -1.6176
  136CHL1   C2616317   3.891   2.236   4.378 -0.5988  0.4279  0.4075
  136CHL1  H26A16318   3.808   2.253   4.305  0.1733  0.1892 -0.5522
  136CHL1  H26B16319   3.862   2.165   4.459 -0.4170 -0.0901  0.0275
  136CHL1  H26C16320   3.923   2.331   4.425  1.7788  0.1414 -0.4778
  136CHL1   C2716321   4.123   2.137   4.391  0.1381  0.6861  0.0394
  136CHL1  H27A16322   4.188   2.225   4.410  0.7734  0.5101 -1.2272
  136CHL1  H27B16323   4.087   2.080   4.480  1.0885  0.4575  0.2804
  136CHL1  H27C16324   4.190   2.065   4.340  0.0049  2.1331 -2.3045
  137CHL1    C316325   0.344   1.057   3.113 -1.0644 -0.1777  0.4621
  137CHL1    H316326   0.254   1.110   3.077 -0.0148 -0.2767 -2.6323
  137CHL1    O316327   0.356   0.919   3.059 -0.2275  0.1219  0.1086
  137CHL1   H3'16328   0.434   0.877   3.096  0.9453 -0.1710 -2.5108
  137CHL1    C416329   0.469   1.136   3.063  0.0875 -0.1779  0.1140
  137CHL1   H4A16330   0.557   1.070   3.075  1.5832  1.8645  0.9525
  137CHL1   H4B16331   0.458   1.148   2.953  1.2128  1.0838  0.1089
  137CHL1    C516332   0.491   1.270   3.135  0.2744  0.2612 -0.4072
  137CHL1    C616333   0.508   1.390   3.072 -0.2692  0.6508  0.2307
  137CHL1    H616334   0.528   1.396   2.964 -1.1522 -0.5156 -0.0171
  137CHL1    C716335   0.525   1.518   3.150  0.0155 -1.0913 -0.4360
  137CHL1   H7A16336   0.593   1.582   3.089  0.3323 -1.9831 -1.0443
  137CHL1   H7B16337   0.436   1.584   3.158  2.1447  1.7904  1.2865
  137CHL1    C816338   0.573   1.499   3.297 -0.3198  0.8009  0.2145
  137CHL1    H816339   0.671   1.448   3.309 -1.3402 -0.9585  1.4868
  137CHL1   C1416340   0.564   1.629   3.378  0.6359  0.1561 -0.6381
  137CHL1   H1416341   0.455   1.652   3.378  0.5394 -0.3025 -0.6621
  137CHL1   C1516342   0.647   1.745   3.309 -0.1449 -0.5806 -0.2210
  137CHL1  H15A16343   0.749   1.702   3.294 -0.3252 -0.4112 -2.2492
  137CHL1  H15B16344   0.607   1.791   3.216  1.8986 -0.7324 -1.2328
  137CHL1   C1616345   0.646   1.846   3.418 -0.4739 -0.5988 -0.8809
  137CHL1  H16A16346   0.752   1.877   3.426 -0.8255  0.5066 -0.2654
  137CHL1  H16B16347   0.588   1.938   3.396 -0.6559 -0.6797 -0.7456
  137CHL1   C1716348   0.595   1.786   3.559 -0.3586  0.1011 -0.9463
  137CHL1   H1716349   0.492   1.827   3.571  0.0984  0.9825  0.1098
  137CHL1   C1316350   0.596   1.626   3.527 -0.2697  0.2004 -0.5385
  137CHL1   C1816351   0.748   1.592   3.549  0.1071 -0.2409  0.1425
  137CHL1  H18A16352   0.764   1.590   3.659  2.2421  0.9690 -0.0906
  137CHL1  H18B16353   0.769   1.496   3.497 -1.9140  0.2657 -1.8026
  137CHL1  H18C16354   0.816   1.670   3.508  0.8742 -0.7252  0.4960
  137CHL1   C1216355   0.500   1.531   3.594  0.0795 -0.2855  0.0853
  137CHL1  H12A16356   0.522   1.528   3.703 -3.9595  3.9696  1.3779
  137CHL1  H12B16357   0.400   1.580   3.589  0.7922  1.2766  0.5406
  137CHL1   C1116358   0.505   1.392   3.517 -0.5722 -0.1884 -0.1769
  137CHL1  H11A16359   0.606   1.348   3.534  0.0160  1.1755  0.0327
  137CHL1  H11B16360   0.428   1.324   3.559 -1.0154 -0.4693 -1.4311
  137CHL1    C916361   0.482   1.401   3.361  0.0102  0.6853 -0.8505
  137CHL1    H916362   0.381   1.446   3.346  0.0501  0.8457 -0.6357
  137CHL1   C1016363   0.482   1.260   3.287  0.1862 -0.5183 -0.3130
  137CHL1   C1916364   0.609   1.184   3.325 -0.3087 -0.2669 -0.3237
  137CHL1  H19A16365   0.611   1.090   3.265 -0.0595  0.4560 -1.4650
  137CHL1  H19B16366   0.697   1.250   3.313 -0.7922  0.3789 -0.3337
  137CHL1  H19C16367   0.603   1.150   3.431 -2.2910  1.0443  0.0294
  137CHL1    C116368   0.355   1.179   3.329 -0.4370  0.5918  0.6318
  137CHL1   H1A16369   0.347   1.178   3.440  2.8136 -0.0971  0.9762
  137CHL1   H1B16370   0.271   1.239   3.289  0.1738  0.0453 -1.5786
  137CHL1    C216371   0.340   1.042   3.266  0.0196 -0.7721 -0.1788
  137CHL1   H2A16372   0.244   0.993   3.291  1.0851 -2.2731  1.2690
  137CHL1   H2B16373   0.421   0.977   3.306  4.3172  3.6170 -0.7847
  137CHL1   C2016374   0.672   1.836   3.671 -0.2635 -0.3191  0.1672
  137CHL1   H2016375   0.778   1.804   3.659 -0.8421 -2.3357  0.0328
  137CHL1   C2116376   0.610   1.784   3.801  0.6848 -0.1836 -0.3230
  137CHL1  H21A16377   0.678   1.822   3.880  2.5051 -0.3699 -1.7279
  137CHL1  H21B16378   0.606   1.673   3.800 -0.8173 -0.1575 -0.0323
  137CHL1  H21C16379   0.511   1.816   3.839  0.3737 -1.7197  0.2381
  137CHL1   C2216380   0.669   1.992   3.669  0.0414 -0.8851  0.6096
  137CHL1  H22A16381   0.694   2.035   3.570  0.2655  0.6403  1.3049
  137CHL1  H22B16382   0.563   2.023   3.679 -0.7708 -3.0432 -0.5365
  137CHL1   C2316383   0.755   2.065   3.773  0.3279  0.0263  0.4889
  137CHL1  H23A16384   0.703   2.057   3.870  0.0367 -2.1101  0.1893
  137CHL1  H23B16385   0.853   2.017   3.794  1.1031  0.8581 -1.0116
  137CHL1   C2416386   0.771   2.211   3.746 -0.3995 -0.5794  0.5220
  137CHL1  H24A16387   0.810   2.201   3.643  0.5408  1.7357  0.5841
  137CHL1  H24B16388   0.678   2.270   3.730  0.2447 -0.2305 -2.6888
  137CHL1   C2516389   0.871   2.297   3.819  0.0638 -0.8322  0.2259
  137CHL1   H2516390   0.966   2.243   3.836 -0.3079 -1.7356 -0.4746
  137CHL1   C2616391   0.901   2.420   3.743 -0.5121  0.2320 -0.3484
  137CHL1  H26A16392   0.955   2.399   3.648 -0.8016  0.5383 -0.5829
  137CHL1  H26B16393   0.813   2.476   3.706  0.2263 -0.4558 -3.3795
  137CHL1  H26C16394   0.964   2.487   3.806  0.0620  0.7104 -1.4067
  137CHL1   C2716395   0.806   2.345   3.945  0.4613 -0.7494  0.3365
  137CHL1  H27A16396   0.780   2.259   4.011  0.4056 -1.3814 -0.4851
  137CHL1  H27B16397   0.869   2.424   3.992 -0.6172  1.0356 -1.0830
  137CHL1  H27C16398   0.711   2.400   3.928 -0.2533 -1.4358  1.9363
  138CHL1    C316399   5.051   0.719   2.763  0.2595 -0.6956  0.4476
  138CHL1    H316400   5.035   0.823   2.727  1.4838 -0.9362 -0.8813
  138CHL1    O316401   5.032   0.624   2.658  0.7976  0.2453 -0.7484
  138CHL1   H3'16402   5.053   0.666   2.574  0.1745 -0.0406 -1.0533
  138CHL1    C416403   5.202   0.708   2.793 -0.3013 -0.1801 -0.4148
  138CHL1   H4A16404   5.230   0.603   2.817  4.3394  1.0554  0.6353
  138CHL1   H4B16405   5.271   0.723   2.708  1.8926 -0.9696  1.1335
  138CHL1    C516406   5.251   0.807   2.896  0.4198  0.2506 -0.2064
  138CHL1    C616407   5.338   0.907   2.876 -0.1385 -0.0608 -0.2739
  138CHL1    H616408   5.391   0.906   2.779 -2.4635  1.2099 -1.6438
  138CHL1    C716409   5.385   1.009   2.975 -0.7686  0.4106 -0.3494
  138CHL1   H7A16410   5.496   1.015   2.972 -0.5886  1.0156  3.1795
  138CHL1   H7B16411   5.342   1.108   2.950 -0.9875  0.4204  0.0605
  138CHL1    C816412   5.347   0.966   3.121  0.0338 -0.1356  0.2898
  138CHL1    H816413   5.410   0.887   3.167  1.1470  0.8073  0.4502
  138CHL1   C1416414   5.360   1.081   3.204 -0.7315 -1.0537  0.6230
  138CHL1   H1416415   5.287   1.155   3.165  1.3561 -1.0450 -3.8051
  138CHL1   C1516416   5.504   1.144   3.200  0.1874  0.5131  0.4766
  138CHL1  H15A16417   5.582   1.065   3.204  3.4413  3.4773  2.0005
  138CHL1  H15B16418   5.514   1.201   3.105  0.5669  0.2351  0.3477
  138CHL1   C1616419   5.510   1.230   3.324  0.3296  0.8814 -0.7418
  138CHL1  H16A16420   5.598   1.218   3.391 -2.5979  0.1294  3.3300
  138CHL1  H16B16421   5.508   1.338   3.302  0.4127  0.4511 -3.1233
  138CHL1   C1716422   5.378   1.198   3.409 -0.4795 -0.4266  0.3319
  138CHL1   H1716423   5.302   1.272   3.376 -1.3900 -0.6600  1.7721
  138CHL1   C1316424   5.327   1.063   3.346 -0.1068 -0.1813 -0.5741
  138CHL1   C1816425   5.411   0.947   3.412 -0.8994 -0.0159 -1.2462
  138CHL1  H18A16426   5.393   0.849   3.363  2.9542 -1.5588 -0.0030
  138CHL1  H18B16427   5.521   0.959   3.396 -0.4999  0.0647  1.1312
  138CHL1  H18C16428   5.380   0.930   3.517 -1.3973  0.1453 -1.3640
  138CHL1   C1216429   5.179   1.034   3.356  0.5470  0.3218  0.7387
  138CHL1  H12A16430   5.136   1.030   3.459 -1.0119  2.5113  0.2579
  138CHL1  H12B16431   5.134   1.130   3.320 -1.4095 -1.5354 -2.1978
  138CHL1   C1116432   5.138   0.913   3.272 -0.4071 -0.1029 -0.3571
  138CHL1  H11A16433   5.169   0.822   3.327 -2.7955 -0.7400  0.0651
  138CHL1  H11B16434   5.028   0.902   3.256 -0.0610 -2.2296 -1.6626
  138CHL1    C916435   5.199   0.915   3.126  0.2311  0.1231 -0.0816
  138CHL1    H916436   5.145   0.995   3.072  1.5738  1.2214  0.1658
  138CHL1   C1016437   5.171   0.795   3.030  0.7158 -0.5874  0.5234
  138CHL1   C1916438   5.232   0.671   3.096 -0.0821 -0.8386 -0.2398
  138CHL1  H19A16439   5.226   0.577   3.037  0.5762 -0.7697 -0.4211
  138CHL1  H19B16440   5.339   0.671   3.127 -0.2743 -1.5758  0.4615
  138CHL1  H19C16441   5.175   0.653   3.190  2.3444  1.2441  1.7709
  138CHL1    C116442   5.024   0.782   3.012 -0.4426 -0.6557 -0.1920
  138CHL1   H1A16443   4.989   0.742   3.110  0.9915  3.7132  2.3361
  138CHL1   H1B16444   4.979   0.882   2.997 -1.3810 -0.8266  1.2073
  138CHL1    C216445   4.972   0.698   2.890  0.5097  0.6696 -0.0053
  138CHL1   H2A16446   4.865   0.711   2.862  0.8509 -1.6268 -2.8819
  138CHL1   H2B16447   4.982   0.588   2.899  0.4603  0.6920  0.3144
  138CHL1   C2016448   5.388   1.221   3.562  0.2711  0.4916  0.4525
  138CHL1   H2016449   5.452   1.138   3.600 -0.7917 -0.1180  0.9985
  138CHL1   C2116450   5.253   1.180   3.632 -0.2520  0.5030 -0.9238
  138CHL1  H21A16451   5.249   1.069   3.632  1.1455  0.4352 -2.1809
  138CHL1  H21B16452   5.163   1.214   3.577 -1.2448  0.6605  0.7073
  138CHL1  H21C16453   5.245   1.225   3.734 -0.5655 -1.4307 -0.0482
  138CHL1   C2216454   5.435   1.359   3.610 -0.1179  0.1550 -0.2737
  138CHL1  H22A16455   5.522   1.388   3.547  1.2493 -1.9475  0.5736
  138CHL1  H22B16456   5.356   1.437   3.600  1.7490  2.3485  1.0929
  138CHL1   C2316457   5.485   1.362   3.757  0.7213  0.1444 -0.3128
  138CHL1  H23A16458   5.404   1.331   3.826  2.0771 -0.3634  1.1343
  138CHL1  H23B16459   5.566   1.286   3.756 -0.4382 -1.1833  1.0674
  138CHL1   C2416460   5.533   1.502   3.801  0.3552 -0.5874 -0.1420
  138CHL1  H24A16461   5.601   1.536   3.720  0.7912  0.3508  0.5975
  138CHL1  H24B16462   5.455   1.581   3.805 -0.1160 -1.0655  0.2967
  138CHL1   C2516463   5.601   1.499   3.941  0.5048 -0.4237  0.8716
  138CHL1   H2516464   5.534   1.427   3.992 -0.1411 -0.0618  0.5432
  138CHL1   C2616465   5.744   1.440   3.945  0.2562 -0.1375  0.2010
  138CHL1  H26A16466   5.763   1.339   3.904  0.0501  0.7650 -2.3008
  138CHL1  H26B16467   5.820   1.500   3.891  1.4911  1.2310  3.2171
  138CHL1  H26C16468   5.776   1.435   4.052  1.2754  0.7084 -0.0498
  138CHL1   C2716469   5.606   1.642   4.007  0.3769  0.1994 -0.1688
  138CHL1  H27A16470   5.512   1.703   4.007  0.5274  0.6061  2.8317
  138CHL1  H27B16471   5.651   1.644   4.108 -0.6138  1.1046  0.2814
  138CHL1  H27C16472   5.670   1.707   3.944  0.5434 -1.2385 -1.5553
  139CHL1    C316473   7.598   6.167   2.889 -0.9300 -0.2273 -0.2227
  139CHL1    H316474   7.489   6.188   2.894 -1.3115 -2.2855  3.0113
  139CHL1    O316475   7.655   6.124   2.764 -0.4383 -0.3439  0.7192
  139CHL1   H3'16476   7.742   6.095   2.790 -0.4968 -0.0695  1.2377
  139CHL1    C416477   7.685   6.284   2.934  0.1966 -0.7100 -0.1107
  139CHL1   H4A16478   7.794   6.264   2.928  0.9124  2.6780  0.0730
  139CHL1   H4B16479   7.674   6.360   2.854  2.4698 -1.6025 -1.3574
  139CHL1    C516480   7.643   6.338   3.063  0.8372 -0.0984 -0.9539
  139CHL1    C616481   7.616   6.470   3.088 -0.3996  0.0840 -0.3613
  139CHL1    H616482   7.602   6.546   3.009 -2.6785 -0.2235 -0.3203
  139CHL1    C716483   7.603   6.517   3.233  0.3320 -0.5446 -0.1124
  139CHL1   H7A16484   7.652   6.615   3.249  0.6592 -0.6939 -0.1986
  139CHL1   H7B16485   7.498   6.549   3.251  0.3819 -1.1263  1.3741
  139CHL1    C816486   7.636   6.415   3.348 -0.5787  0.4981 -0.1930
  139CHL1    H816487   7.745   6.427   3.366 -0.3321  1.6952 -2.2169
  139CHL1   C1416488   7.552   6.449   3.475 -0.1589 -0.0535 -0.0717
  139CHL1   H1416489   7.444   6.435   3.453 -0.2428  0.6596 -0.1364
  139CHL1   C1516490   7.551   6.600   3.520 -0.1339 -0.0604 -0.4224
  139CHL1  H15A16491   7.655   6.636   3.527 -0.3665  0.7155 -0.8661
  139CHL1  H15B16492   7.488   6.665   3.455 -0.2773  0.6738  0.4264
  139CHL1   C1616493   7.488   6.593   3.664 -0.8944  0.1233 -0.3147
  139CHL1  H16A16494   7.561   6.615   3.745  0.2108  0.1636 -1.2984
  139CHL1  H16B16495   7.389   6.641   3.680 -1.6943 -2.2162  2.5135
  139CHL1   C1716496   7.474   6.441   3.694  0.7563  0.2882  0.6676
  139CHL1   H1716497   7.373   6.411   3.656  1.2290  0.1639 -0.5415
  139CHL1   C1316498   7.580   6.373   3.602 -0.0463 -0.2325  0.8485
  139CHL1   C1816499   7.727   6.391   3.658 -0.2003 -0.1450 -0.4178
  139CHL1  H18A16500   7.740   6.327   3.747  0.9448  0.3702 -0.1914
  139CHL1  H18B16501   7.808   6.364   3.587  1.9938 -0.6782  2.1196
  139CHL1  H18C16502   7.746   6.496   3.690  2.5672 -1.1699  1.6261
  139CHL1   C1216503   7.564   6.221   3.564 -0.2274  0.1018 -0.0037
  139CHL1  H12A16504   7.586   6.150   3.646 -1.0759 -1.1648 -0.8452
  139CHL1  H12B16505   7.457   6.199   3.546 -0.0057 -1.4280  0.4255
  139CHL1   C1116506   7.640   6.176   3.441  0.0034 -0.3480 -0.2975
  139CHL1  H11A16507   7.748   6.198   3.455 -0.3282  0.5737  0.9719
  139CHL1  H11B16508   7.621   6.069   3.417 -2.4792 -0.4219  1.6309
  139CHL1    C916509   7.604   6.268   3.316  0.6455  0.8690  0.3074
  139CHL1    H916510   7.494   6.251   3.306  0.3013  2.6298  0.7722
  139CHL1   C1016511   7.660   6.227   3.179  0.0172 -0.2221  0.6217
  139CHL1   C1916512   7.808   6.189   3.201  0.1117  0.6286 -0.1078
  139CHL1  H19A16513   7.850   6.165   3.101 -2.6851  0.8747 -1.4284
  139CHL1  H19B16514   7.862   6.273   3.250  0.2756  1.2551 -1.3163
  139CHL1  H19C16515   7.811   6.096   3.261 -2.1492 -0.0250 -0.8869
  139CHL1    C116516   7.580   6.100   3.128 -0.1004  0.2541 -0.2577
  139CHL1   H1A16517   7.584   6.012   3.197 -0.2597 -1.8891 -2.8258
  139CHL1   H1B16518   7.475   6.135   3.137 -0.5944 -1.4687  1.2734
  139CHL1    C216519   7.611   6.050   2.990 -0.5853 -0.2467  0.2042
  139CHL1   H2A16520   7.538   5.970   2.965 -0.4099 -0.4176  0.2351
  139CHL1   H2B16521   7.712   6.005   2.980 -1.0684 -1.1969 -0.5798
  139CHL1   C2016522   7.456   6.405   3.842  0.2270  0.3534  0.7054
  139CHL1   H2016523   7.545   6.441   3.897  1.5494 -1.9550  0.1888
  139CHL1   C2116524   7.462   6.251   3.847 -0.1070  0.0695 -0.1817
  139CHL1  H21A16525   7.564   6.207   3.843 -0.8432 -1.8027  0.4342
  139CHL1  H21B16526   7.396   6.203   3.771  0.7830 -0.4200 -0.6607
  139CHL1  H21C16527   7.414   6.222   3.943 -0.9928  0.5961 -0.4531
  139CHL1   C2216528   7.323   6.455   3.907  0.1794  0.0361  0.6610
  139CHL1  H22A16529   7.333   6.446   4.017 -0.3790 -0.6559  0.6636
  139CHL1  H22B16530   7.324   6.564   3.882 -1.3586 -0.2766 -1.0068
  139CHL1   C2316531   7.193   6.389   3.865 -0.0741 -0.1458 -0.9444
  139CHL1  H23A16532   7.180   6.389   3.755 -1.7446 -0.6412 -0.7682
  139CHL1  H23B16533   7.187   6.284   3.899 -0.3449  0.1679  0.0128
  139CHL1   C2416534   7.066   6.463   3.922  0.4538 -0.2496 -0.6611
  139CHL1  H24A16535   7.082   6.495   4.028 -1.9981 -1.7541  0.2463
  139CHL1  H24B16536   7.058   6.550   3.854  1.0972  0.8583  0.6175
  139CHL1   C2516537   6.947   6.368   3.911  0.5311  0.9162  0.7930
  139CHL1   H2516538   6.959   6.264   3.948 -1.7302 -0.1727 -1.2711
  139CHL1   C2616539   6.825   6.427   3.990  0.1035 -0.0350 -0.4601
  139CHL1  H26A16540   6.775   6.514   3.943  0.1587  0.9585  1.2574
  139CHL1  H26B16541   6.749   6.347   4.010 -0.2584  0.4818  0.3044
  139CHL1  H26C16542   6.860   6.451   4.093  0.6288 -2.8910  0.1197
  139CHL1   C2716543   6.913   6.339   3.760 -0.5772  0.3721 -0.4590
  139CHL1  H27A16544   6.812   6.295   3.752 -0.3684 -0.0067 -1.0356
  139CHL1  H27B16545   6.919   6.436   3.705  1.4090  1.4109  1.4301
  139CHL1  H27C16546   6.991   6.273   3.716 -0.8374 -0.1133 -0.1913
  140CHL1    C316547   7.574   0.020   3.020 -0.0078  0.3618  0.6173
  140CHL1    H316548   7.556  -0.078   3.070  2.0769 -0.5111 -0.2490
  140CHL1    O316549   7.547   0.005   2.879  0.5546  0.5782 -0.4865
  140CHL1   H3'16550   7.632   0.015   2.835 -0.2216  0.9655 -1.9722
  140CHL1    C416551   7.470   0.127   3.072 -0.2505  0.0038 -0.1653
  140CHL1   H4A16552   7.486   0.222   3.018 -0.2053  0.1945  0.1837
  140CHL1   H4B16553   7.366   0.102   3.044 -0.2581  1.3815 -1.5045
  140CHL1    C516554   7.484   0.140   3.220  0.1974 -0.5637 -0.2851
  140CHL1    C616555   7.381   0.127   3.303  0.0666 -0.6948  0.2973
  140CHL1    H616556   7.283   0.094   3.265  0.6409  1.4302 -3.5982
  140CHL1    C716557   7.386   0.158   3.452  0.4615  0.4658  0.5590
  140CHL1   H7A16558   7.294   0.212   3.485 -0.3013 -0.2641 -0.3149
  140CHL1   H7B16559   7.382   0.065   3.513  1.1415 -0.1089 -0.2537
  140CHL1    C816560   7.512   0.236   3.487 -0.0534  0.2699 -0.4945
  140CHL1    H816561   7.503   0.341   3.453 -0.0533  0.0390 -1.2143
  140CHL1   C1416562   7.543   0.220   3.640  0.2621 -0.2248 -0.0685
  140CHL1   H1416563   7.551   0.110   3.650 -2.7864 -0.7454 -2.0763
  140CHL1   C1516564   7.421   0.249   3.737 -0.0567  0.5510  0.4535
  140CHL1  H15A16565   7.370   0.342   3.704 -1.6138 -0.7113 -0.8321
  140CHL1  H15B16566   7.363   0.156   3.721  0.0514  0.4957  0.3862
  140CHL1   C1616567   7.486   0.250   3.872  0.1618  0.2135  0.5848
  140CHL1  H16A16568   7.463   0.344   3.927 -1.3466 -0.0201  0.4012
  140CHL1  H16B16569   7.452   0.178   3.949 -1.6466 -0.6176 -0.9165
  140CHL1   C1716570   7.640   0.237   3.846  0.5207  0.4537  0.1818
  140CHL1   H1716571   7.666   0.130   3.835  1.2560  0.8327 -2.2320
  140CHL1   C1316572   7.665   0.281   3.697 -0.1446  0.6634 -0.5630
  140CHL1   C1816573   7.662   0.436   3.684  0.0259  0.1669 -0.2652
  140CHL1  H18A16574   7.761   0.474   3.718  1.2722 -2.3074 -0.8722
  140CHL1  H18B16575   7.633   0.471   3.583 -2.3833 -0.4692  0.1535
  140CHL1  H18C16576   7.583   0.473   3.752 -0.9679 -0.6314 -0.9567
  140CHL1   C1216577   7.791   0.215   3.627 -0.4679  0.0906 -0.0982
  140CHL1  H12A16578   7.885   0.271   3.649 -1.2259  1.7360 -0.9026
  140CHL1  H12B16579   7.803   0.109   3.656  0.5153 -0.0226 -0.8563
  140CHL1   C1116580   7.770   0.226   3.471  0.8726  0.1869 -0.3093
  140CHL1  H11A16581   7.757   0.335   3.453 -1.1318 -0.0932 -0.8036
  140CHL1  H11B16582   7.853   0.177   3.414  2.1090  2.2861 -0.4058
  140CHL1    C916583   7.633   0.171   3.416 -0.4308 -0.6238 -0.0273
  140CHL1    H916584   7.634   0.063   3.442 -1.8916 -0.5673  0.3417
  140CHL1   C1016585   7.624   0.174   3.265 -0.0988 -0.2660  0.8175
  140CHL1   C1916586   7.661   0.314   3.214 -0.1302 -0.3592 -0.2853
  140CHL1  H19A16587   7.577   0.378   3.248 -1.1558 -1.5551 -0.4955
  140CHL1  H19B16588   7.759   0.348   3.254 -0.4817 -0.4717  0.6926
  140CHL1  H19C16589   7.674   0.312   3.103  0.5589  2.4750 -0.3426
  140CHL1    C116590   7.723   0.065   3.195  0.9602 -0.2100 -0.6808
  140CHL1   H1A16591   7.827   0.093   3.221  0.0748  1.0675  1.7693
  140CHL1   H1B16592   7.703  -0.030   3.249 -0.1005 -0.6128 -1.7250
  140CHL1    C216593   7.711   0.044   3.046  0.1246 -0.3271  0.9765
  140CHL1   H2A16594   7.772  -0.043   3.015  1.7103  0.7855  0.8465
  140CHL1   H2B16595   7.751   0.129   2.985  1.1901 -0.7335  1.0886
  140CHL1   C2016596   7.728   0.291   3.963  0.3692  0.2455 -0.1729
  140CHL1   H2016597   7.710   0.400   3.973 -0.6447  0.0392  0.4249
  140CHL1   C2116598   7.870   0.258   3.933 -0.2904 -0.6037 -0.5358
  140CHL1  H21A16599   7.928   0.259   4.027  0.0604 -0.5339 -0.7529
  140CHL1  H21B16600   7.922   0.316   3.854  0.7456  2.4372  2.1555
  140CHL1  H21C16601   7.883   0.149   3.917 -0.2719 -0.5944 -0.5830
  140CHL1   C2216602   7.683   0.242   4.106 -0.4380  0.9030 -0.3795
  140CHL1  H22A16603   7.572   0.241   4.113 -0.5225 -1.5837 -1.2342
  140CHL1  H22B16604   7.725   0.143   4.133 -3.7226 -0.2491  1.0734
  140CHL1   C2316605   7.734   0.332   4.215 -0.6625  0.0048 -0.6095
  140CHL1  H23A16606   7.840   0.312   4.243 -1.3546 -0.8427  1.6452
  140CHL1  H23B16607   7.723   0.438   4.182 -1.4518 -0.3464 -1.5056
  140CHL1   C2416608   7.653   0.304   4.343  0.2561 -0.1299 -0.2081
  140CHL1  H24A16609   7.551   0.342   4.320 -0.3355 -1.9289 -0.7696
  140CHL1  H24B16610   7.645   0.194   4.358 -1.1046  0.2782  2.7584
  140CHL1   C2516611   7.683   0.374   4.473  0.1977  0.0838  0.4995
  140CHL1   H2516612   7.782   0.345   4.515  0.7431  0.6094 -0.3811
  140CHL1   C2616613   7.577   0.335   4.580  0.6694  0.6885 -0.6082
  140CHL1  H26A16614   7.592   0.225   4.591 -0.8584  0.3660 -1.5326
  140CHL1  H26B16615   7.579   0.389   4.677 -2.9773  0.1016 -0.0708
  140CHL1  H26C16616   7.482   0.376   4.541  0.4059 -0.2539 -0.9855
  140CHL1   C2716617   7.675   0.527   4.461  0.0721  0.4446 -0.1501
  140CHL1  H27A16618   7.679   0.577   4.560  1.7758  0.2725 -0.1033
  140CHL1  H27B16619   7.765   0.570   4.412  0.8632 -0.1262  0.7561
  140CHL1  H27C16620   7.582   0.552   4.406 -0.5098 -1.8391 -0.2890
  141DOPC     N16621   3.254   4.640   7.139 -0.2343  0.6274 -0.3122
  141DOPC   C1216622   3.234   4.734   7.019 -0.4249 -0.4189 -0.0491
  141DOPC  H12A16623   3.143   4.789   7.042 -1.6660 -1.8744 -1.2351
  141DOPC  H12B16624   3.211   4.673   6.932 -0.2180 -1.7241  0.7821
  141DOPC   C1316625   3.138   4.549   7.150 -0.0410 -0.2329 -0.0695
  141DOPC  H13A16626   3.119   4.534   7.256 -0.2718 -0.8077 -0.1885
  141DOPC  H13B16627   3.051   4.584   7.095  1.3260  1.1526 -1.4366
  141DOPC  H13C16628   3.170   4.454   7.111  0.2915  0.0548 -0.5122
  141DOPC   C1416629   3.252   4.730   7.260  0.0525  0.4027  0.1637
  141DOPC  H14A16630   3.295   4.692   7.351  1.0867 -2.1551 -1.3107
  141DOPC  H14B16631   3.313   4.815   7.235 -0.5673  0.0033 -3.1079
  141DOPC  H14C16632   3.153   4.770   7.277  0.2456  1.5422 -1.2507
  141DOPC   C1516633   3.391   4.577   7.129 -0.0005 -0.0460 -0.2117
  141DOPC  H15A16634   3.474   4.645   7.125  1.3933 -1.7320 -2.7819
  141DOPC  H15B16635   3.395   4.512   7.043 -0.7203  0.4396 -0.6214
  141DOPC  H15C16636   3.406   4.512   7.214 -1.2804 -2.4716 -1.7367
  141DOPC   C1116637   3.341   4.835   6.981 -0.5415 -0.2189 -0.3289
  141DOPC  H11A16638   3.440   4.784   6.983 -0.3357  0.1642 -0.6721
  141DOPC  H11B16639   3.317   4.875   6.881  2.7956  2.0968 -0.3773
  141DOPC     P16640   3.250   5.061   7.072  0.3655 -0.6670  0.5564
  141DOPC   O1316641   3.287   5.146   7.187 -0.6131  0.4992  0.5604
  141DOPC   O1416642   3.108   5.021   7.059  0.5098 -0.1822 -0.1772
  141DOPC   O1216643   3.343   4.934   7.086  0.4111 -0.5880  0.0586
  141DOPC   O1116644   3.287   5.134   6.942  0.1663  0.2409 -0.2091
  141DOPC    C116645   3.424   5.187   6.929 -0.1355 -0.4408  0.9147
  141DOPC    HA16646   3.498   5.126   6.986  0.9708  0.2352  0.2416
  141DOPC    HB16647   3.425   5.294   6.961 -0.2421 -0.6292  1.5625
  141DOPC    C216648   3.464   5.194   6.785 -0.5312  0.3023  0.6694
  141DOPC    HS16649   3.466   5.090   6.747  0.8226  1.1606 -1.8679
  141DOPC   O2116650   3.594   5.256   6.781 -0.3377 -0.0534 -0.4802
  141DOPC   C2116651   3.670   5.224   6.678  0.2074  0.0152 -0.3441
  141DOPC   O2216652   3.645   5.133   6.597  0.3781 -0.6471 -0.0407
  141DOPC   C2216653   3.791   5.318   6.667 -0.1327  0.0889  0.2497
  141DOPC   H2R16654   3.830   5.335   6.769 -1.9585  2.0391  0.6927
  141DOPC   H2S16655   3.761   5.423   6.644  1.3042  1.1062  2.6551
  141DOPC    C316656   3.373   5.277   6.688  0.3222  0.0563  0.0185
  141DOPC    HX16657   3.385   5.382   6.723 -1.5852  0.7036 -1.0941
  141DOPC    HY16658   3.268   5.246   6.705  0.4561 -0.6098 -0.3501
  141DOPC   O3116659   3.409   5.282   6.551 -0.4135 -0.0843  0.0193
  141DOPC   C3116660   3.356   5.191   6.473  0.0074 -0.3251  0.6761
  141DOPC   O3216661   3.289   5.096   6.511 -0.7093 -0.7596  0.0255
  141DOPC   C3216662   3.375   5.233   6.322  0.1591  0.4527  0.2611
  141DOPC   H2X16663   3.311   5.166   6.261 -0.2341 -1.6141  2.7905
  141DOPC   H2Y16664   3.333   5.336   6.324 -0.4420  0.2327 -0.5947
  141DOPC   C2316665   3.901   5.259   6.572  0.3532 -0.6658  0.3830
  141DOPC   H3R16666   3.928   5.155   6.601  1.2351  0.0080  2.1534
  141DOPC   H3S16667   3.989   5.323   6.594 -0.9657  0.8953  1.3958
  141DOPC   C2416668   3.865   5.273   6.424 -0.5084  0.0229  0.6115
  141DOPC   H4R16669   3.834   5.377   6.400  0.8462  0.1864 -0.5361
  141DOPC   H4S16670   3.775   5.209   6.409  1.1682 -2.4194  0.3624
  141DOPC   C2516671   3.978   5.246   6.325 -0.0034 -1.2717  0.0861
  141DOPC   H5R16672   4.014   5.143   6.347  0.9257 -1.3672 -1.7347
  141DOPC   H5S16673   4.069   5.309   6.340 -0.2964 -1.3815  3.0092
  141DOPC   C2616674   3.949   5.256   6.174  0.3515  0.1600  0.0964
  141DOPC   H6R16675   4.040   5.273   6.112 -0.6383 -2.5084 -2.3204
  141DOPC   H6S16676   3.881   5.342   6.156 -0.7470 -0.6089  0.4511
  141DOPC   C2716677   3.875   5.128   6.107 -0.5144  0.5304 -0.6564
  141DOPC   H7R16678   3.792   5.107   6.178  1.4729 -0.3583  1.5281
  141DOPC   H7S16679   3.945   5.042   6.113  0.1400  1.0718 -0.5587
  141DOPC   C2816680   3.829   5.134   5.960  0.1268  0.0499 -0.0359
  141DOPC   H8R16681   3.755   5.217   5.958  0.0165 -0.0320  0.4541
  141DOPC   H8S16682   3.776   5.040   5.931 -0.6537  0.1501  0.9952
  141DOPC   C2916683   3.947   5.169   5.870 -0.3427 -0.1006  0.0033
  141DOPC   H9R16684   3.998   5.262   5.899 -0.2965 -0.4618  1.1314
  141DOPC  C21016685   4.001   5.088   5.781 -0.4228 -0.4820 -0.6710
  141DOPC  H10R16686   4.085   5.119   5.717  1.5483  0.4312  2.1963
  141DOPC  C21116687   3.936   4.961   5.739  0.0320 -0.2813 -0.2898
  141DOPC  H11R16688   3.903   4.902   5.827 -1.9793 -0.9722 -1.4384
  141DOPC  H11S16689   4.015   4.895   5.696  1.2817 -0.1264  1.6544
  141DOPC  C21216690   3.824   4.989   5.639 -0.1196  0.0595  0.2138
  141DOPC  H12R16691   3.845   5.060   5.556 -0.5847  1.6828  1.4254
  141DOPC  H12S16692   3.741   5.037   5.696  0.8539 -0.0317  1.7675
  141DOPC  C21316693   3.768   4.860   5.572  0.3395 -0.1105  0.2851
  141DOPC  H13R16694   3.746   4.780   5.646 -4.4000 -0.5840 -1.2881
  141DOPC  H13S16695   3.845   4.808   5.512 -1.6116 -2.9462  0.0269
  141DOPC  C21416696   3.636   4.887   5.499 -0.4045  0.2727  0.8043
  141DOPC  H14R16697   3.565   4.933   5.572 -0.7628  1.8017 -0.4631
  141DOPC  H14S16698   3.601   4.785   5.471  2.0766 -0.7543  1.2129
  141DOPC  C21516699   3.663   4.974   5.375 -0.5924 -0.4279 -1.0556
  141DOPC  H15R16700   3.743   4.924   5.316 -0.9761 -3.4323  0.7832
  141DOPC  H15S16701   3.698   5.077   5.400 -0.0682 -0.4467 -1.6624
  141DOPC  C21616702   3.540   5.006   5.290 -0.5247  0.7080 -0.4056
  141DOPC  H16R16703   3.479   5.073   5.355 -2.4329 -0.2216 -1.1729
  141DOPC  H16S16704   3.478   4.915   5.281 -0.7817  1.0278 -2.6764
  141DOPC  C21716705   3.564   5.062   5.154  0.2715  0.0359 -0.7676
  141DOPC  H17R16706   3.642   5.140   5.164 -1.2578  1.7488 -1.5551
  141DOPC  H17S16707   3.469   5.112   5.122  0.3890 -0.0253 -1.2156
  141DOPC  C21816708   3.606   4.957   5.050  0.3993  0.4175 -0.1445
  141DOPC  H18R16709   3.629   5.011   4.956  3.7606  0.0662  0.3503
  141DOPC  H18S16710   3.531   4.875   5.045 -0.1156  0.7835  1.1524
  141DOPC  H18T16711   3.700   4.902   5.075  0.3122 -1.6601 -3.6830
  141DOPC   C3316712   3.520   5.226   6.274 -0.4482 -0.2900  1.1967
  141DOPC   H3X16713   3.548   5.119   6.261 -1.6321 -0.3489 -1.6539
  141DOPC   H3Y16714   3.590   5.273   6.347 -1.3919  1.0008  1.3078
  141DOPC   C3416715   3.536   5.301   6.140  0.5446  0.4203 -0.2831
  141DOPC   H4X16716   3.645   5.301   6.116  0.8301  0.6304  0.9410
  141DOPC   H4Y16717   3.491   5.400   6.165 -3.1822 -0.7403 -1.7534
  141DOPC   C3516718   3.453   5.246   6.023  0.9729 -0.3973 -0.3055
  141DOPC   H5X16719   3.346   5.252   6.054  0.6185 -3.6695 -0.6389
  141DOPC   H5Y16720   3.484   5.140   6.024  1.2916 -0.3448 -1.8283
  141DOPC   C3616721   3.468   5.320   5.889  0.5396 -0.1199  0.2708
  141DOPC   H6X16722   3.442   5.428   5.900 -3.0761 -0.9818  1.4887
  141DOPC   H6Y16723   3.574   5.309   5.857 -0.0117 -0.8473 -1.4027
  141DOPC   C3716724   3.382   5.252   5.790 -0.3404 -0.4589 -0.2175
  141DOPC   H7X16725   3.401   5.143   5.800  1.3243 -0.1869 -0.1848
  141DOPC   H7Y16726   3.281   5.298   5.795  0.5192  1.4236  2.9018
  141DOPC   C3816727   3.430   5.279   5.643 -0.3316  0.0083  0.5900
  141DOPC   H8X16728   3.520   5.223   5.613  0.4838  0.6563  1.7523
  141DOPC   H8Y16729   3.457   5.387   5.638  2.0486 -0.6079 -1.7235
  141DOPC   C3916730   3.329   5.238   5.537 -0.1461  0.3004  0.2060
  141DOPC   H9X16731   3.303   5.132   5.524 -0.7999  0.5831 -0.9414
  141DOPC  C31016732   3.269   5.319   5.445  0.4123  0.3052  0.0865
  141DOPC  H10X16733   3.185   5.278   5.387  0.2701 -0.0689  0.5463
  141DOPC  C31116734   3.281   5.467   5.440 -0.4156  0.4960 -0.1129
  141DOPC  H11X16735   3.279   5.512   5.542  0.9049 -0.0202  0.1625
  141DOPC  H11Y16736   3.194   5.507   5.383  0.3573  1.1649 -0.8549
  141DOPC  C31216737   3.404   5.527   5.376 -0.3982 -0.3797  0.2375
  141DOPC  H12X16738   3.496   5.490   5.426  0.5296  1.5060  0.0473
  141DOPC  H12Y16739   3.399   5.638   5.389 -0.2537 -0.1983 -1.1485
  141DOPC  C31316740   3.426   5.504   5.221 -0.3186  0.3911 -0.2898
  141DOPC  H13X16741   3.411   5.398   5.192 -0.5243  0.6122 -1.0259
  141DOPC  H13Y16742   3.350   5.566   5.168 -0.9624 -0.4627 -0.3803
  141DOPC  C31416743   3.573   5.555   5.181 -0.5927  0.9455 -0.7021
  141DOPC  H14X16744   3.584   5.649   5.239  0.6541  1.0592 -1.1007
  141DOPC  H14Y16745   3.652   5.487   5.219  1.0829  3.0274 -0.2349
  141DOPC  C31516746   3.589   5.601   5.029 -0.6192  0.2733 -0.0828
  141DOPC  H15X16747   3.680   5.664   5.029 -1.5358  1.6173  0.2350
  141DOPC  H15Y16748   3.496   5.657   5.006  0.3337  1.9524 -0.0000
  141DOPC  C31616749   3.605   5.485   4.929 -0.0666 -0.5992 -0.2950
  141DOPC  H16X16750   3.697   5.432   4.962  0.8931  0.9883 -0.3362
  141DOPC  H16Y16751   3.511   5.426   4.933 -0.3101 -0.1688  1.7271
  141DOPC  C31716752   3.634   5.535   4.785 -1.2668 -0.0392  0.1518
  141DOPC  H17X16753   3.611   5.447   4.720  0.7466 -0.3633 -0.1913
  141DOPC  H17Y16754   3.557   5.613   4.771 -2.7594 -1.1880  1.5820
  141DOPC  C31816755   3.772   5.587   4.751  0.6643 -0.4304  0.4465
  141DOPC  H18X16756   3.783   5.589   4.640 -2.9263 -1.1614 -0.0416
  141DOPC  H18Y16757   3.791   5.685   4.800 -1.1832  0.1679  0.0415
  141DOPC  H18Z16758   3.845   5.512   4.788  0.1771 -0.4019  1.4815
  142DOPC     N16759   5.996   2.839   8.035  0.2068  0.7150 -0.3802
  142DOPC   C1216760   5.937   2.828   7.895 -0.0153 -0.1228 -0.1915
  142DOPC  H12A16761   5.843   2.778   7.916  0.5745 -0.0012  3.3910
  142DOPC  H12B16762   6.000   2.762   7.837  0.2302  0.2402 -0.3434
  142DOPC   C1316763   6.014   2.705   8.095 -0.2009  0.2655  0.1650
  142DOPC  H13A16764   5.927   2.642   8.082  0.2259 -0.5086  0.8995
  142DOPC  H13B16765   6.097   2.644   8.062 -0.8378  0.0369 -1.0471
  142DOPC  H13C16766   6.032   2.727   8.200 -0.7655  1.8891 -0.0608
  142DOPC   C1416767   5.902   2.912   8.120  0.4714 -0.0685 -0.9966
  142DOPC  H14A16768   5.936   2.919   8.223 -0.1161 -1.4844 -0.6870
  142DOPC  H14B16769   5.888   3.014   8.087 -2.0527 -0.4230 -1.1838
  142DOPC  H14C16770   5.803   2.871   8.118  0.4963 -0.5325  2.2029
  142DOPC   C1516771   6.131   2.901   8.030  0.8332  0.0973 -0.2519
  142DOPC  H15A16772   6.181   2.914   8.125  3.5988 -0.1475 -1.5687
  142DOPC  H15B16773   6.130   2.994   7.975  0.1732  0.4033  0.2591
  142DOPC  H15C16774   6.204   2.836   7.984  0.4357 -1.4679  1.2308
  142DOPC   C1116775   5.900   2.956   7.818 -1.0212  0.3231  0.2707
  142DOPC  H11A16776   5.987   3.025   7.813 -0.0228 -0.9232 -0.3304
  142DOPC  H11B16777   5.879   2.936   7.711 -0.5618  0.9516  0.0576
  142DOPC     P16778   5.639   3.009   7.844 -0.0153  0.2289  0.4388
  142DOPC   O1316779   5.553   3.105   7.914  0.0263  0.0323  0.2783
  142DOPC   O1416780   5.609   2.867   7.863  0.1325 -0.2532 -0.4340
  142DOPC   O1216781   5.793   3.024   7.884  0.1642  0.0598 -0.0115
  142DOPC   O1116782   5.642   3.025   7.687  0.3050  0.0112 -0.5217
  142DOPC    C116783   5.656   3.161   7.644  0.4335 -0.4837 -0.5733
  142DOPC    HA16784   5.729   3.221   7.703 -0.0821  1.4145 -1.7856
  142DOPC    HB16785   5.560   3.215   7.657 -0.1457 -1.1556 -1.8447
  142DOPC    C216786   5.697   3.187   7.495  0.2706 -0.4120  0.4453
  142DOPC    HS16787   5.612   3.166   7.427  1.1206  1.2703 -1.2106
  142DOPC   O2116788   5.813   3.111   7.446 -0.6940  0.0503  0.7421
  142DOPC   C2116789   5.777   3.004   7.377 -0.2520  0.3455  0.3670
  142DOPC   O2216790   5.661   2.973   7.350 -0.9464 -0.8629 -0.5213
  142DOPC   C2216791   5.901   2.914   7.357 -0.3336  0.0479  0.3552
  142DOPC   H2R16792   5.886   2.824   7.419  2.2114  0.2319  1.3621
  142DOPC   H2S16793   5.981   2.967   7.414 -1.2047 -0.2640  1.9291
  142DOPC    C316794   5.731   3.337   7.479  0.0445 -0.6257  0.2752
  142DOPC    HX16795   5.831   3.362   7.521 -1.0829  2.0217  1.6188
  142DOPC    HY16796   5.657   3.390   7.542 -1.5318 -0.6578 -1.4618
  142DOPC   O3116797   5.722   3.375   7.340  0.1237  0.8668  0.3418
  142DOPC   C3116798   5.766   3.498   7.314 -0.1122  0.7512  0.2276
  142DOPC   O3216799   5.809   3.566   7.402 -0.6163 -0.0409 -0.7338
  142DOPC   C3216800   5.719   3.536   7.175 -0.2078 -0.5183  0.4128
  142DOPC   H2X16801   5.788   3.492   7.099  1.1762 -0.8025  1.7962
  142DOPC   H2Y16802   5.618   3.495   7.152 -0.0041 -0.4929 -0.5971
  142DOPC   C2316803   5.939   2.877   7.213  0.1754  0.2110  0.4485
  142DOPC   H3R16804   6.049   2.872   7.202  0.1221  1.0556 -0.6900
  142DOPC   H3S16805   5.903   2.955   7.142  1.5636 -0.0527 -0.5971
  142DOPC   C2416806   5.882   2.736   7.177  0.7464 -0.2479  0.5078
  142DOPC   H4R16807   5.774   2.740   7.205  0.5722  0.3226 -0.2022
  142DOPC   H4S16808   5.937   2.656   7.231 -1.1253 -0.1464  2.7643
  142DOPC   C2516809   5.907   2.729   7.023  0.2291  0.7373 -0.3029
  142DOPC   H5R16810   6.017   2.741   7.006  0.1859  0.3213 -0.9107
  142DOPC   H5S16811   5.860   2.819   6.977  0.3867  1.2234  0.4683
  142DOPC   C2616812   5.853   2.600   6.956 -0.0581  0.3303  0.7246
  142DOPC   H6R16813   5.745   2.594   6.981 -0.1617  1.2791  0.5345
  142DOPC   H6S16814   5.896   2.511   7.008  2.0685  0.3621 -0.8247
  142DOPC   C2716815   5.884   2.603   6.808 -0.4226  0.2543  0.1160
  142DOPC   H7R16816   5.992   2.626   6.792 -0.5566 -0.1816 -1.5950
  142DOPC   H7S16817   5.827   2.690   6.769 -0.6319  0.1066  0.0909
  142DOPC   C2816818   5.850   2.474   6.726  0.1287  0.7445  0.8961
  142DOPC   H8R16819   5.801   2.514   6.634  0.2539  2.2295  1.4565
  142DOPC   H8S16820   5.758   2.424   6.764  0.2553 -0.6392 -0.5282
  142DOPC   C2916821   5.958   2.368   6.685  0.0934  0.1242 -0.1708
  142DOPC   H9R16822   6.040   2.355   6.757 -0.9337 -2.3049  0.6504
  142DOPC  C21016823   5.987   2.308   6.564 -0.3765 -0.5995 -0.7724
  142DOPC  H10R16824   6.057   2.224   6.550  0.4496  0.3144 -2.3141
  142DOPC  C21116825   5.907   2.330   6.435 -0.4182 -0.2016 -0.2572
  142DOPC  H11R16826   5.820   2.397   6.452 -0.6790 -0.6953  0.3665
  142DOPC  H11S16827   5.886   2.232   6.386  3.7139 -1.6138  0.3906
  142DOPC  C21216828   5.978   2.424   6.340 -0.0590  0.2011  0.3949
  142DOPC  H12R16829   6.064   2.378   6.289 -2.1047  0.0207 -3.2001
  142DOPC  H12S16830   6.014   2.506   6.406 -0.1565 -0.7045  1.6169
  142DOPC  C21316831   5.879   2.472   6.230  0.3180  0.8545 -0.1405
  142DOPC  H13R16832   5.787   2.512   6.277  0.6554  0.2595  1.0861
  142DOPC  H13S16833   5.847   2.385   6.168  0.5047  0.9684 -0.3961
  142DOPC  C21416834   5.950   2.573   6.145 -0.0287 -0.4148  0.3279
  142DOPC  H14R16835   6.053   2.542   6.118  0.7323  2.1699  0.0227
  142DOPC  H14S16836   5.974   2.666   6.201  1.7457 -0.6820  0.0580
  142DOPC  C21516837   5.872   2.593   6.014 -0.4091  0.6646 -0.0662
  142DOPC  H15R16838   5.782   2.648   6.048 -0.1044  0.5891  0.8894
  142DOPC  H15S16839   5.845   2.492   5.977 -0.6428  0.9506 -0.6914
  142DOPC  C21616840   5.951   2.668   5.911 -0.3237  0.5386 -0.2983
  142DOPC  H16R16841   6.029   2.596   5.879 -1.8252 -0.9776 -0.6980
  142DOPC  H16S16842   6.002   2.759   5.950 -1.4582  0.5033  1.4102
  142DOPC  C21716843   5.859   2.707   5.795  0.0145 -0.2621 -0.5924
  142DOPC  H17R16844   5.792   2.794   5.809 -0.5377 -0.4494 -1.9458
  142DOPC  H17S16845   5.803   2.615   5.768 -0.0433 -0.3913 -0.0489
  142DOPC  C21816846   5.939   2.741   5.675 -0.1336  0.1497  0.4630
  142DOPC  H18R16847   5.875   2.755   5.586  0.2535 -0.7129  0.0432
  142DOPC  H18S16848   6.013   2.659   5.660 -1.7945 -1.9796  2.9686
  142DOPC  H18T16849   5.995   2.837   5.686  0.4263 -0.2697  1.5302
  142DOPC   C3316850   5.717   3.692   7.181  0.7135 -0.1048 -0.6802
  142DOPC   H3X16851   5.811   3.739   7.218  0.8506 -0.4733 -0.5596
  142DOPC   H3Y16852   5.643   3.732   7.254  0.4577  0.9573 -1.4940
  142DOPC   C3416853   5.689   3.760   7.048 -0.6055 -0.3184  0.4401
  142DOPC   H4X16854   5.686   3.870   7.068 -1.2729 -0.5320  1.5561
  142DOPC   H4Y16855   5.588   3.728   7.016 -0.8182  0.3112  0.4599
  142DOPC   C3516856   5.791   3.728   6.939  0.8334 -0.5186  0.5301
  142DOPC   H5X16857   5.766   3.632   6.888 -0.3758  0.6974 -1.2746
  142DOPC   H5Y16858   5.897   3.746   6.965  1.1240  1.8338 -1.9546
  142DOPC   C3616859   5.772   3.833   6.829 -0.3519  0.1221  0.0569
  142DOPC   H6X16860   5.666   3.852   6.801  0.3200  2.7480 -0.9445
  142DOPC   H6Y16861   5.820   3.929   6.859  0.4623 -0.0123 -0.7770
  142DOPC   C3716862   5.846   3.786   6.710 -0.0057  0.2336  0.0310
  142DOPC   H7X16863   5.939   3.731   6.735  0.6640  0.4864 -1.7533
  142DOPC   H7Y16864   5.770   3.720   6.662  0.8973  1.2457 -3.0300
  142DOPC   C3816865   5.861   3.896   6.606  0.0862 -0.0547 -0.2278
  142DOPC   H8X16866   5.773   3.963   6.614  1.6674  2.0770  0.0864
  142DOPC   H8Y16867   5.858   3.854   6.503  0.4762 -1.1078  0.1728
  142DOPC   C3916868   5.993   3.973   6.623 -0.1163 -0.2661 -0.6213
  142DOPC   H9X16869   6.018   3.994   6.728 -1.5872  0.2590 -0.3571
  142DOPC  C31016870   6.088   3.988   6.530 -0.4610 -0.2739  0.0764
  142DOPC  H10X16871   6.172   4.060   6.539 -0.2851 -0.4956  0.2145
  142DOPC  C31116872   6.080   3.926   6.396 -0.7574  0.4156 -0.0176
  142DOPC  H11X16873   6.051   3.820   6.408  1.0178 -0.0638  0.2477
  142DOPC  H11Y16874   6.181   3.917   6.351  0.2797 -1.4427  2.4989
  142DOPC  C31216875   5.994   3.997   6.289  0.1072  0.1497  0.6444
  142DOPC  H12X16876   5.890   3.998   6.330  0.1525 -1.6907  0.8675
  142DOPC  H12Y16877   5.972   3.930   6.203 -2.4772  2.2806 -0.5055
  142DOPC  C31316878   6.031   4.141   6.260  0.0160 -0.4834  0.3657
  142DOPC  H13X16879   5.997   4.212   6.338 -0.7495  1.0535 -1.2903
  142DOPC  H13Y16880   6.141   4.145   6.249 -0.1875  0.4693 -1.7575
  142DOPC  C31416881   5.960   4.205   6.140 -0.8467  0.7305  0.2725
  142DOPC  H14X16882   5.972   4.150   6.044  1.0720  1.8290 -0.1753
  142DOPC  H14Y16883   5.852   4.224   6.157 -0.3660  1.3098  3.0584
  142DOPC  C31516884   6.022   4.346   6.113 -0.7090  0.2586 -0.2836
  142DOPC  H15X16885   6.130   4.336   6.091 -0.9535 -1.0673 -1.0195
  142DOPC  H15Y16886   6.019   4.407   6.206  1.2638 -1.0499  0.7120
  142DOPC  C31616887   5.956   4.420   6.000 -0.3470 -0.4887 -0.3115
  142DOPC  H16X16888   5.988   4.376   5.903  1.4475  0.4160 -0.1689
  142DOPC  H16Y16889   5.846   4.429   6.015 -0.2450  3.0914 -0.8248
  142DOPC  C31716890   6.001   4.571   5.989  0.8304  0.2325 -0.0876
  142DOPC  H17X16891   5.973   4.615   6.087 -1.0041 -1.4553  0.1988
  142DOPC  H17Y16892   6.111   4.565   5.972  0.7494  1.0767 -1.0430
  142DOPC  C31816893   5.932   4.653   5.882  0.0531  0.0785 -0.3374
  142DOPC  H18X16894   5.954   4.617   5.780  1.6360 -0.5329  0.1883
  142DOPC  H18Y16895   5.823   4.643   5.904  0.3723 -0.4989  1.0993
  142DOPC  H18Z16896   5.968   4.758   5.883  0.9951 -0.2276 -0.8620
  143DOPC     N16897   2.553   4.728   6.918  0.1801  1.2850 -0.2154
  143DOPC   C1216898   2.420   4.772   6.975 -0.1329  0.3005 -0.0413
  143DOPC  H12A16899   2.440   4.848   7.048 -0.3920 -1.0493  1.4957
  143DOPC  H12B16900   2.368   4.689   7.021 -1.0480  0.8579 -0.0491
  143DOPC   C1316901   2.528   4.620   6.816 -0.1142  0.0847  0.9635
  143DOPC  H13A16902   2.483   4.531   6.858 -0.7326  0.3696  0.9145
  143DOPC  H13B16903   2.458   4.658   6.743 -0.6442  0.6091  1.7279
  143DOPC  H13C16904   2.621   4.589   6.769 -0.1510  0.8610  0.3573
  143DOPC   C1416905   2.637   4.676   7.032  0.3479  0.3416 -0.1097
  143DOPC  H14A16906   2.730   4.625   7.013  0.7859  0.3347  1.8212
  143DOPC  H14B16907   2.652   4.761   7.097 -1.0061  0.7493 -0.2981
  143DOPC  H14C16908   2.575   4.602   7.081  0.2302  0.2527 -0.3873
  143DOPC   C1516909   2.618   4.844   6.849  0.2107  0.0118  0.1205
  143DOPC  H15A16910   2.546   4.881   6.776 -1.1645 -0.8190  1.0032
  143DOPC  H15B16911   2.702   4.811   6.789  1.1565  0.1277  1.3645
  143DOPC  H15C16912   2.640   4.920   6.922 -0.4403 -0.9016  1.3069
  143DOPC   C1116913   2.312   4.835   6.876 -0.1026  0.4341 -0.6807
  143DOPC  H11A16914   2.231   4.866   6.945  0.0575  0.2422 -0.4027
  143DOPC  H11B16915   2.359   4.926   6.833 -0.9767  0.6008 -1.2986
  143DOPC     P16916   2.263   4.801   6.618 -0.2892 -0.0274 -0.3598
  143DOPC   O1316917   2.394   4.766   6.556 -0.3249  0.2253  0.6070
  143DOPC   O1416918   2.213   4.935   6.611  0.0557 -0.0252 -0.3017
  143DOPC   O1216919   2.270   4.749   6.767 -0.5026 -0.2037  0.0276
  143DOPC   O1116920   2.152   4.705   6.562  0.1892 -0.0698  0.0159
  143DOPC    C116921   2.155   4.563   6.577 -0.5595  0.7827  0.4068
  143DOPC    HA16922   2.061   4.504   6.567  0.5736 -1.4301  1.8179
  143DOPC    HB16923   2.209   4.530   6.668  1.0709 -0.0296 -0.8081
  143DOPC    C216924   2.238   4.500   6.457 -0.2895 -0.2200  0.2949
  143DOPC    HS16925   2.339   4.546   6.466 -0.9049  1.3521 -0.3946
  143DOPC   O2116926   2.174   4.545   6.335 -0.0155 -0.0638  0.2954
  143DOPC   C2116927   2.256   4.582   6.239 -0.2505  0.3516  0.3237
  143DOPC   O2216928   2.380   4.564   6.248 -0.5340 -0.1093  0.2521
  143DOPC   C2216929   2.183   4.611   6.119  0.1302 -0.6961  0.1774
  143DOPC   H2R16930   2.119   4.699   6.144  1.1267 -0.5885  2.5862
  143DOPC   H2S16931   2.121   4.525   6.087  0.1322 -0.7562  0.3330
  143DOPC    C316932   2.250   4.348   6.467  0.0117 -0.4250 -0.5226
  143DOPC    HX16933   2.148   4.304   6.454  0.9007 -3.3021  1.3657
  143DOPC    HY16934   2.288   4.324   6.568  0.6450 -2.0796 -1.1157
  143DOPC   O3116935   2.336   4.293   6.371  0.3131  0.1345  0.2453
  143DOPC   C3116936   2.280   4.217   6.280  0.1280  0.5041 -0.2328
  143DOPC   O3216937   2.164   4.173   6.283 -0.5989 -0.3292 -0.2127
  143DOPC   C3216938   2.382   4.178   6.175  0.3546 -0.2008 -0.4308
  143DOPC   H2X16939   2.480   4.223   6.199 -0.7934  1.8125  0.7651
  143DOPC   H2Y16940   2.387   4.067   6.170 -0.4537 -0.3786  1.8054
  143DOPC   C2316941   2.273   4.643   5.999 -0.7390 -0.1567 -0.5279
  143DOPC   H3R16942   2.351   4.565   5.992 -1.3562 -0.6686 -2.4152
  143DOPC   H3S16943   2.314   4.743   6.025 -0.1809 -0.5520  0.1608
  143DOPC   C2416944   2.196   4.642   5.863 -0.3525 -0.1111 -0.6235
  143DOPC   H4R16945   2.118   4.720   5.877  0.0151 -0.3076  3.7628
  143DOPC   H4S16946   2.138   4.548   5.852  1.4029 -1.6488  2.0732
  143DOPC   C2516947   2.301   4.671   5.759  0.3658 -0.0774 -0.0183
  143DOPC   H5R16948   2.402   4.652   5.800 -0.4802 -1.4916  1.5887
  143DOPC   H5S16949   2.295   4.773   5.715  0.8365  0.0970  0.3156
  143DOPC   C2616950   2.280   4.572   5.642  0.3232 -0.2062 -0.5653
  143DOPC   H6R16951   2.178   4.573   5.599 -0.1512 -1.2424  0.4741
  143DOPC   H6S16952   2.295   4.471   5.688 -0.4228 -1.0452 -2.1224
  143DOPC   C2716953   2.391   4.588   5.533 -0.0162  0.8475  0.0934
  143DOPC   H7R16954   2.487   4.624   5.574  0.0500  0.4760  0.2764
  143DOPC   H7S16955   2.355   4.646   5.446  0.7125  0.1438 -0.6898
  143DOPC   C2816956   2.435   4.457   5.478  0.2282 -0.2140  0.3730
  143DOPC   H8R16957   2.351   4.407   5.424  0.2314 -0.4710  0.6026
  143DOPC   H8S16958   2.458   4.387   5.561 -2.1654 -1.3702  0.1670
  143DOPC   C2916959   2.549   4.466   5.381 -0.4249 -0.2299  1.3328
  143DOPC   H9R16960   2.648   4.484   5.425  0.9801  0.0384 -1.7035
  143DOPC  C21016961   2.552   4.444   5.243 -0.5671  0.0305  0.1113
  143DOPC  H10R16962   2.641   4.468   5.184 -1.1222 -1.0280 -1.2278
  143DOPC  C21116963   2.429   4.418   5.156 -0.1929  0.8347  0.0930
  143DOPC  H11R16964   2.367   4.342   5.208  0.7794  0.3069  0.5221
  143DOPC  H11S16965   2.456   4.379   5.055 -0.8317  3.5202 -1.1985
  143DOPC  C21216966   2.359   4.550   5.129  0.5551 -0.1330  0.8319
  143DOPC  H12R16967   2.427   4.623   5.080  0.6836  0.0099  1.2277
  143DOPC  H12S16968   2.327   4.608   5.218  0.0088  0.4746  0.2508
  143DOPC  C21316969   2.241   4.539   5.030 -0.0141 -0.6902 -0.5047
  143DOPC  H13R16970   2.186   4.636   5.039 -2.2868 -1.7873 -1.6008
  143DOPC  H13S16971   2.170   4.462   5.066 -0.9205  1.3916  2.5854
  143DOPC  C21416972   2.281   4.518   4.882 -0.4445 -0.6293  0.1542
  143DOPC  H14R16973   2.355   4.436   4.868 -0.4686 -0.2642 -2.7847
  143DOPC  H14S16974   2.333   4.608   4.842 -3.2238  1.0251 -0.0132
  143DOPC  C21516975   2.159   4.511   4.784  0.1989  0.1372 -0.4125
  143DOPC  H15R16976   2.120   4.614   4.768 -2.1666 -0.3024  1.8059
  143DOPC  H15S16977   2.067   4.468   4.830  0.0175  1.5380  0.5928
  143DOPC  C21616978   2.187   4.457   4.648 -0.1990 -0.1843 -0.7754
  143DOPC  H16R16979   2.095   4.454   4.586 -0.9839 -1.2412  0.3965
  143DOPC  H16S16980   2.217   4.350   4.653  1.2797  0.1285 -1.9095
  143DOPC  C21716981   2.297   4.537   4.575 -0.4877  0.2529 -0.1035
  143DOPC  H17R16982   2.384   4.562   4.640  0.9672 -0.5309 -1.6934
  143DOPC  H17S16983   2.253   4.635   4.547 -0.9380  0.2984  0.7296
  143DOPC  C21816984   2.351   4.479   4.444 -0.4970  0.1539 -0.4377
  143DOPC  H18R16985   2.390   4.379   4.473  1.9645  1.5396  1.4835
  143DOPC  H18S16986   2.428   4.546   4.401 -1.7079  0.9012 -1.5138
  143DOPC  H18T16987   2.261   4.483   4.379 -0.8503 -1.1983 -0.0602
  143DOPC   C3316988   2.329   4.229   6.042  0.0339 -0.1526 -0.0352
  143DOPC   H3X16989   2.408   4.243   5.965 -1.7065 -1.3112 -2.1563
  143DOPC   H3Y16990   2.291   4.333   6.053  1.2175  0.1092  2.2778
  143DOPC   C3416991   2.234   4.125   5.966  0.2013 -0.3131  0.1461
  143DOPC   H4X16992   2.150   4.098   6.034 -1.1274  0.1386 -1.2668
  143DOPC   H4Y16993   2.285   4.030   5.937 -0.8201 -0.0469 -2.8214
  143DOPC   C3516994   2.184   4.188   5.837  0.3477 -0.5490 -0.6413
  143DOPC   H5X16995   2.254   4.251   5.778  0.0869 -1.6861 -2.2359
  143DOPC   H5Y16996   2.106   4.266   5.854 -1.0320 -1.7267 -1.2876
  143DOPC   C3616997   2.132   4.085   5.732  0.2230  0.3360 -0.9928
  143DOPC   H6X16998   2.200   3.998   5.720 -0.9593 -0.7333 -0.3203
  143DOPC   H6Y16999   2.041   4.033   5.768  2.0623 -2.0675  0.5285
  143DOPC   C3717000   2.119   4.152   5.596  0.1753 -0.0803 -0.1719
  143DOPC   H7X17001   2.023   4.206   5.580  1.5761  2.1989 -1.3262
  143DOPC   H7Y17002   2.204   4.222   5.590  0.5280 -0.2289  2.0340
  143DOPC   C3817003   2.125   4.053   5.482 -0.6409 -0.1518  0.4759
  143DOPC   H8X17004   2.045   3.977   5.500 -0.6228 -0.2505  0.1328
  143DOPC   H8Y17005   2.220   3.997   5.498  0.0072  0.7619 -0.1157
  143DOPC   C3917006   2.110   4.125   5.353 -0.2402 -0.0787 -0.0970
  143DOPC   H9X17007   2.020   4.187   5.342  0.6551  1.4767  1.0608
  143DOPC  C31017008   2.189   4.120   5.244  0.1134 -0.3143 -0.3236
  143DOPC  H10X17009   2.167   4.203   5.175 -1.1795  1.8587  2.5373
  143DOPC  C31117010   2.326   4.065   5.244 -0.5381 -0.2321 -0.2884
  143DOPC  H11X17011   2.304   3.971   5.300 -0.3847  1.1594  2.2399
  143DOPC  H11Y17012   2.389   4.132   5.305 -1.2461 -0.1774  0.4052
  143DOPC  C31217013   2.402   4.044   5.112  0.2945 -0.1182 -0.5368
  143DOPC  H12X17014   2.508   4.021   5.137  0.0570  0.0412  0.6524
  143DOPC  H12Y17015   2.395   4.140   5.057 -2.1006  0.0210 -0.0928
  143DOPC  C31317016   2.335   3.942   5.018  0.0602 -0.0955 -0.2297
  143DOPC  H13X17017   2.288   3.863   5.079  1.0512 -0.8293 -0.3811
  143DOPC  H13Y17018   2.249   4.004   4.985  1.7258  2.1190 -0.6706
  143DOPC  C31417019   2.422   3.873   4.909 -0.3674  0.7979 -0.9152
  143DOPC  H14X17020   2.478   3.945   4.845  2.1651 -1.5326 -1.5299
  143DOPC  H14Y17021   2.501   3.826   4.971  0.1601 -0.5298 -2.5151
  143DOPC  C31517022   2.330   3.772   4.843  0.3863  0.2074 -0.4447
  143DOPC  H15X17023   2.243   3.825   4.799 -0.5651  0.5665  1.7692
  143DOPC  H15Y17024   2.287   3.699   4.914  1.3723 -1.0670 -1.1178
  143DOPC  C31617025   2.406   3.679   4.738 -0.1860 -0.1844 -0.2342
  143DOPC  H16X17026   2.450   3.749   4.663 -0.8154  1.5391  0.9295
  143DOPC  H16Y17027   2.489   3.630   4.791 -0.1517 -0.2871 -0.3823
  143DOPC  C31717028   2.312   3.581   4.674  0.2586  0.0848 -0.2037
  143DOPC  H17X17029   2.282   3.512   4.755 -1.6740  3.2437  1.9803
  143DOPC  H17Y17030   2.218   3.624   4.632 -0.2164  2.8680  3.2444
  143DOPC  C31817031   2.367   3.506   4.551 -0.2607 -0.7697  0.0025
  143DOPC  H18X17032   2.454   3.445   4.585 -0.7212 -1.1944  0.4262
  143DOPC  H18Y17033   2.289   3.434   4.517  0.7109 -2.0762  0.4482
  143DOPC  H18Z17034   2.397   3.576   4.471  2.3464 -0.8594  0.8106
  144DOPC     N17035   2.962   3.511   7.150 -0.3755 -0.0633  0.2697
  144DOPC   C1217036   2.976   3.465   7.009  0.0862 -0.0184  0.2505
  144DOPC  H12A17037   2.957   3.360   6.996  1.8487 -0.1175 -2.2541
  144DOPC  H12B17038   3.081   3.477   6.984 -0.1254  0.1483 -0.5928
  144DOPC   C1317039   3.009   3.654   7.163  0.6421 -0.1367  0.0471
  144DOPC  H13A17040   3.005   3.695   7.263 -1.4792 -0.3607  0.1042
  144DOPC  H13B17041   3.105   3.672   7.116  1.7853 -1.1824  1.8379
  144DOPC  H13C17042   2.946   3.716   7.102  1.9628  1.3509  0.1300
  144DOPC   C1417043   3.047   3.423   7.237 -0.3263 -0.3808 -0.2245
  144DOPC  H14A17044   3.043   3.470   7.334  0.3563  1.5852 -1.0862
  144DOPC  H14B17045   3.002   3.326   7.252 -2.2099  0.3740 -0.7975
  144DOPC  H14C17046   3.147   3.416   7.196  0.3130 -0.4413  1.2880
  144DOPC   C1517047   2.828   3.501   7.203  0.3942  0.5769  0.2801
  144DOPC  H15A17048   2.764   3.533   7.122 -1.0068 -1.9765  0.2644
  144DOPC  H15B17049   2.798   3.557   7.291 -0.2080 -1.2193  1.2694
  144DOPC  H15C17050   2.797   3.400   7.226  0.8062  0.7164  1.5246
  144DOPC   C1117051   2.888   3.535   6.905  0.2578 -0.1827  0.0136
  144DOPC  H11A17052   2.893   3.646   6.908 -1.5940 -0.0327  3.5246
  144DOPC  H11B17053   2.926   3.499   6.807 -0.4003  0.6302 -0.5593
  144DOPC     P17054   2.625   3.593   6.923 -0.2599  0.3406  0.2665
  144DOPC   O1317055   2.628   3.685   7.037 -0.1895  0.1467  0.4932
  144DOPC   O1417056   2.507   3.505   6.917 -0.0298  0.7124  0.0021
  144DOPC   O1217057   2.745   3.497   6.930 -0.4316  0.1980 -0.2562
  144DOPC   O1117058   2.647   3.667   6.787  0.4955 -0.2397  0.7232
  144DOPC    C117059   2.553   3.657   6.680 -0.5694 -0.7681 -0.0095
  144DOPC    HA17060   2.564   3.746   6.615  1.2575 -1.9759 -1.4740
  144DOPC    HB17061   2.448   3.647   6.716 -1.3635 -2.2664 -2.4653
  144DOPC    C217062   2.580   3.529   6.592  0.0258  0.7463  0.5614
  144DOPC    HS17063   2.554   3.435   6.646 -0.8405 -0.2320 -1.4341
  144DOPC   O2117064   2.716   3.530   6.550  0.0317  0.2447 -0.3166
  144DOPC   C2117065   2.760   3.410   6.516 -0.0937  1.4273 -0.0143
  144DOPC   O2217066   2.715   3.306   6.565 -1.2025 -0.0740 -0.1482
  144DOPC   C2217067   2.879   3.425   6.420  0.3415 -0.1369 -0.5449
  144DOPC   H2R17068   2.961   3.464   6.484 -0.0109  1.0833 -0.8163
  144DOPC   H2S17069   2.859   3.506   6.347 -3.0957 -0.5217 -0.1773
  144DOPC    C317070   2.486   3.532   6.470  0.2586  0.3424  0.5135
  144DOPC    HX17071   2.529   3.610   6.402  2.3882 -0.5817  0.7062
  144DOPC    HY17072   2.383   3.559   6.500 -1.0760 -2.7624 -0.8503
  144DOPC   O3117073   2.487   3.409   6.397  0.2463  0.6641 -0.0365
  144DOPC   C3117074   2.379   3.326   6.416 -0.5454  0.2659 -0.1825
  144DOPC   O3217075   2.279   3.342   6.487  0.1368 -0.4741 -0.1423
  144DOPC   C3217076   2.414   3.201   6.334  0.1605 -0.5861 -0.3382
  144DOPC   H2X17077   2.516   3.168   6.362  0.1374  0.2022  0.7306
  144DOPC   H2Y17078   2.344   3.117   6.350 -0.6439 -0.1869 -1.5897
  144DOPC   C2317079   2.926   3.293   6.352 -0.3977  0.4698 -0.9776
  144DOPC   H3R17080   2.923   3.208   6.422 -0.5279 -0.8641 -2.5510
  144DOPC   H3S17081   3.028   3.310   6.312 -0.0330  0.0758 -0.2175
  144DOPC   C2417082   2.838   3.240   6.237 -0.0726  1.0024  0.6140
  144DOPC   H4R17083   2.848   3.313   6.154  1.4688  0.2335  0.0806
  144DOPC   H4S17084   2.738   3.258   6.281 -0.6161  0.1141 -0.2161
  144DOPC   C2517085   2.864   3.097   6.198  0.7628  0.4181  0.3216
  144DOPC   H5R17086   2.783   3.067   6.128  1.2433 -0.3355  0.0718
  144DOPC   H5S17087   2.854   3.041   6.293 -2.8750 -0.6514 -0.5335
  144DOPC   C2617088   3.000   3.069   6.129 -0.1985 -0.0303 -0.3034
  144DOPC   H6R17089   2.998   2.963   6.099  1.8617 -0.3918  0.6502
  144DOPC   H6S17090   3.078   3.095   6.204 -0.2787  0.1930 -0.2953
  144DOPC   C2717091   3.026   3.159   6.011 -0.6493  0.5720 -0.7097
  144DOPC   H7R17092   3.042   3.264   6.045  0.5753 -0.5429  2.5849
  144DOPC   H7S17093   2.945   3.146   5.935 -1.0336  0.9899 -0.3800
  144DOPC   C2817094   3.154   3.111   5.935  0.0364  0.3713  0.7710
  144DOPC   H8R17095   3.144   3.005   5.903  1.3242  0.9874 -2.0601
  144DOPC   H8S17096   3.243   3.104   6.001 -0.3509 -1.9886  1.1291
  144DOPC   C2917097   3.196   3.195   5.814  0.0700  0.0093 -0.4636
  144DOPC   H9R17098   3.259   3.279   5.847  0.8181 -0.9653  0.6736
  144DOPC  C21017099   3.195   3.157   5.687  1.0825 -0.1073 -0.8750
  144DOPC  H10R17100   3.238   3.234   5.622  2.4570  2.8626  3.1496
  144DOPC  C21117101   3.128   3.043   5.623  0.1014 -0.3510  0.6227
  144DOPC  H11R17102   3.030   3.061   5.572  0.9694  1.5579 -0.4895
  144DOPC  H11S17103   3.116   2.953   5.687 -0.6360  0.3173  1.4553
  144DOPC  C21217104   3.224   3.001   5.505 -0.1922 -0.1694 -0.8121
  144DOPC  H12R17105   3.211   2.892   5.494 -0.1525 -0.1675 -0.8810
  144DOPC  H12S17106   3.331   3.003   5.536 -0.5535 -1.6735  0.6366
  144DOPC  C21317107   3.202   3.067   5.368  0.3330 -0.3301  0.1633
  144DOPC  H13R17108   3.226   3.176   5.373 -0.4011  0.1218 -3.2337
  144DOPC  H13S17109   3.093   3.064   5.343  0.5030 -1.0159 -0.5373
  144DOPC  C21417110   3.287   3.009   5.256  0.4667 -0.8200  0.0628
  144DOPC  H14R17111   3.300   2.900   5.270 -0.5348 -1.1222 -1.1194
  144DOPC  H14S17112   3.383   3.063   5.243  0.0683 -0.2556 -0.6012
  144DOPC  C21517113   3.226   3.036   5.116  0.1754  0.5397 -0.0767
  144DOPC  H15R17114   3.234   3.145   5.096  0.5072  0.3894 -0.8035
  144DOPC  H15S17115   3.119   3.007   5.107 -0.2295  1.6621  0.8405
  144DOPC  C21617116   3.322   2.971   5.015  0.0668 -0.5717 -0.1887
  144DOPC  H16R17117   3.315   2.863   5.041  1.6385 -0.2621  1.7546
  144DOPC  H16S17118   3.426   3.005   5.032 -0.5275  1.7376 -0.8739
  144DOPC  C21717119   3.290   3.008   4.869 -0.4150 -0.3600 -0.4854
  144DOPC  H17R17120   3.269   3.116   4.859  1.4271  0.0356 -0.4043
  144DOPC  H17S17121   3.189   2.963   4.857 -2.1309  2.4373  2.0318
  144DOPC  C21817122   3.404   2.948   4.780  0.3962 -0.1318 -0.2729
  144DOPC  H18R17123   3.400   2.839   4.804  0.1663  0.3390  2.1051
  144DOPC  H18S17124   3.502   2.997   4.799 -0.5075  1.4482  0.5503
  144DOPC  H18T17125   3.368   2.949   4.675 -1.5635 -0.5182  0.3503
  144DOPC   C3317126   2.419   3.233   6.178  0.3251 -0.0915  0.5650
  144DOPC   H3X17127   2.484   3.159   6.127 -1.2795 -1.0449 -0.1834
  144DOPC   H3Y17128   2.463   3.334   6.162  1.1318 -0.2540  1.7219
  144DOPC   C3417129   2.275   3.224   6.120  0.0602 -0.0981  0.2937
  144DOPC   H4X17130   2.215   3.312   6.153 -0.3214  0.0767 -0.8196
  144DOPC   H4Y17131   2.231   3.126   6.146 -0.6072  0.4591  1.3447
  144DOPC   C3517132   2.278   3.228   5.965  0.1792  0.9404 -0.1077
  144DOPC   H5X17133   2.367   3.168   5.938  2.8268  4.5831 -0.1829
  144DOPC   H5Y17134   2.287   3.331   5.926 -0.2935  1.0980  0.1923
  144DOPC   C3617135   2.157   3.156   5.898  0.1825  0.2151 -0.2333
  144DOPC   H6X17136   2.142   3.055   5.942  1.0844 -0.5213 -1.5536
  144DOPC   H6Y17137   2.083   3.239   5.911  2.0224  1.5830  2.4091
  144DOPC   C3717138   2.175   3.133   5.751  0.0761 -0.1556 -0.1774
  144DOPC   H7X17139   2.219   3.225   5.705 -0.5702  1.5954  2.4693
  144DOPC   H7Y17140   2.245   3.046   5.750 -2.4472 -2.3009 -0.0630
  144DOPC   C3817141   2.044   3.089   5.673 -0.1944  0.2144  0.0658
  144DOPC   H8X17142   1.976   3.176   5.663  1.3409  1.4362 -0.1105
  144DOPC   H8Y17143   1.994   3.000   5.716 -1.4091 -0.3414 -2.3093
  144DOPC   C3917144   2.078   3.048   5.533  0.4148  0.2272 -0.2452
  144DOPC   H9X17145   2.169   3.094   5.491  0.2938  0.9706  0.2992
  144DOPC  C31017146   2.015   2.957   5.453  0.1056  0.2432  0.5984
  144DOPC  H10X17147   2.066   2.945   5.356  0.4288  0.6350  0.7194
  144DOPC  C31117148   1.887   2.880   5.464  0.1734  0.2099 -0.4789
  144DOPC  H11X17149   1.869   2.893   5.573  2.1160 -1.4188  0.0947
  144DOPC  H11Y17150   1.911   2.771   5.456 -0.6461 -0.2668  2.4752
  144DOPC  C31217151   1.763   2.919   5.378 -0.1187  0.4662 -0.1627
  144DOPC  H12X17152   1.715   3.006   5.429 -2.2892 -0.2973 -0.7979
  144DOPC  H12Y17153   1.700   2.827   5.373 -0.0727  0.4565 -0.6006
  144DOPC  C31317154   1.789   2.957   5.231  0.1660  0.0746  0.0261
  144DOPC  H13X17155   1.695   2.995   5.186  0.6813  1.9025  0.4293
  144DOPC  H13Y17156   1.872   3.030   5.225  1.5584 -1.3337  1.0156
  144DOPC  C31417157   1.837   2.839   5.154  0.3359 -0.0894  0.6577
  144DOPC  H14X17158   1.941   2.818   5.184  1.8946  3.2358 -1.7377
  144DOPC  H14Y17159   1.766   2.754   5.165 -1.3278  1.2514  0.8350
  144DOPC  C31517160   1.837   2.880   5.004 -0.2102  0.5391 -0.5085
  144DOPC  H15X17161   1.912   2.961   4.986  1.4864 -0.4956  1.4111
  144DOPC  H15Y17162   1.736   2.914   4.974 -0.2607 -0.8399 -2.0169
  144DOPC  C31617163   1.873   2.743   4.933 -0.1446  0.2808  0.7617
  144DOPC  H16X17164   1.788   2.674   4.949  0.4024 -0.2976  1.1825
  144DOPC  H16Y17165   1.876   2.766   4.824 -1.6214  0.2340  0.6908
  144DOPC  C31717166   1.994   2.669   4.981  0.2812 -0.2313 -0.4755
  144DOPC  H17X17167   2.074   2.737   5.015  0.8691 -0.8152 -0.6559
  144DOPC  H17Y17168   1.967   2.618   5.075 -0.7512 -1.1904 -1.2617
  144DOPC  C31817169   2.056   2.588   4.869  0.2500 -0.0248 -0.3502
  144DOPC  H18X17170   2.073   2.651   4.778  0.0481 -1.1284 -1.1720
  144DOPC  H18Y17171   2.154   2.547   4.902 -0.1066 -1.3281 -0.8679
  144DOPC  H18Z17172   2.000   2.497   4.841 -0.0917  0.8480 -2.7628
  145DOPC     N17173   3.671   5.617   7.619  0.1358 -0.2703  0.0572
  145DOPC   C1217174   3.817   5.654   7.607  0.4572  0.0667  0.2114
  145DOPC  H12A17175   3.880   5.574   7.644 -0.2203 -0.5471  0.0693
  145DOPC  H12B17176   3.833   5.745   7.663  0.0287  1.9926 -2.5978
  145DOPC   C1317177   3.629   5.599   7.759 -0.1546  0.3796  0.9369
  145DOPC  H13A17178   3.530   5.555   7.759 -0.3010  0.7018  0.2566
  145DOPC  H13B17179   3.693   5.535   7.818 -0.4471 -1.6952 -0.8664
  145DOPC  H13C17180   3.633   5.695   7.808  2.3932  1.0255 -0.4022
  145DOPC   C1417181   3.656   5.482   7.563  0.7672  0.2984  0.0081
  145DOPC  H14A17182   3.722   5.406   7.601 -0.2893 -1.0825 -0.8514
  145DOPC  H14B17183   3.556   5.442   7.573  0.7197  0.7534  1.7940
  145DOPC  H14C17184   3.667   5.480   7.456 -2.3000  0.8682 -0.4094
  145DOPC   C1517185   3.590   5.722   7.561 -0.7503 -0.3849 -0.2964
  145DOPC  H15A17186   3.487   5.690   7.566 -1.0894  0.0916 -2.9308
  145DOPC  H15B17187   3.638   5.746   7.467  0.7577 -1.2086  0.2247
  145DOPC  H15C17188   3.584   5.823   7.601  1.5124 -0.5043  0.5245
  145DOPC   C1117189   3.870   5.684   7.468  0.0104  1.4016  0.3961
  145DOPC  H11A17190   3.980   5.675   7.473  0.0037 -4.2998 -1.9775
  145DOPC  H11B17191   3.842   5.608   7.392  0.6383  2.1002 -0.5527
  145DOPC     P17192   3.910   5.877   7.302 -0.3159  0.0255 -0.2106
  145DOPC   O1317193   3.975   5.778   7.219 -0.0042  0.1890  0.6903
  145DOPC   O1417194   3.990   5.988   7.352 -0.0487 -0.7159 -0.3140
  145DOPC   O1217195   3.835   5.811   7.427 -0.1501  0.3230 -0.4117
  145DOPC   O1117196   3.778   5.929   7.226  0.3618  0.1005 -0.0289
  145DOPC    C117197   3.744   6.072   7.216 -0.0982  0.5509  0.0167
  145DOPC    HA17198   3.783   6.134   7.299 -0.1421  2.8957 -1.6262
  145DOPC    HB17199   3.638   6.089   7.244  0.1607  1.5901  0.4095
  145DOPC    C217200   3.773   6.135   7.077 -0.1020  1.1731  0.6484
  145DOPC    HS17201   3.715   6.074   7.004  0.9910 -0.2295  0.9023
  145DOPC   O2117202   3.915   6.129   7.051  0.2941  0.0052 -0.3611
  145DOPC   C2117203   3.948   6.053   6.951  0.5027  0.0836  0.0805
  145DOPC   O2217204   3.874   5.985   6.882 -0.5246  0.3701 -0.1311
  145DOPC   C2217205   4.101   6.053   6.938 -0.4653 -0.6525  0.4471
  145DOPC   H2R17206   4.125   6.094   7.039 -4.2724 -0.2807  1.3625
  145DOPC   H2S17207   4.129   6.117   6.852  0.7098 -1.3928  0.2739
  145DOPC    C317208   3.731   6.286   7.082 -0.1886  0.4475 -0.1304
  145DOPC    HX17209   3.777   6.331   7.172  1.1874 -1.3326  0.1140
  145DOPC    HY17210   3.622   6.289   7.104 -0.1857  0.9224 -0.1860
  145DOPC   O3117211   3.769   6.353   6.961  0.7171 -0.2246  0.1876
  145DOPC   C3117212   3.723   6.473   6.966 -0.4018 -0.0543  0.7728
  145DOPC   O3217213   3.660   6.522   7.056  1.0526  0.4363  0.2353
  145DOPC   C3217214   3.769   6.556   6.840  0.1270 -0.2150  0.4069
  145DOPC   H2X17215   3.690   6.625   6.804  2.9025  1.2851 -3.4337
  145DOPC   H2Y17216   3.847   6.621   6.885  0.2114 -0.7632  1.0749
  145DOPC   C2317217   4.178   5.924   6.902  0.0955 -0.0107 -0.4519
  145DOPC   H3R17218   4.120   5.835   6.936 -0.2531  1.3827  2.9641
  145DOPC   H3S17219   4.275   5.930   6.955  0.2784 -1.3903 -0.6018
  145DOPC   C2417220   4.189   5.886   6.751  0.4545 -0.3076 -0.0751
  145DOPC   H4R17221   4.257   5.962   6.707 -0.9347  0.8417 -0.3009
  145DOPC   H4S17222   4.096   5.899   6.691 -0.1458  0.5560  1.0137
  145DOPC   C2517223   4.245   5.748   6.729  0.2399  0.0218  0.2611
  145DOPC   H5R17224   4.177   5.672   6.774  0.1766  0.0085  0.1442
  145DOPC   H5S17225   4.334   5.737   6.794  1.4363  1.0517 -1.1489
  145DOPC   C2617226   4.286   5.710   6.584  0.4037 -0.0874 -0.0029
  145DOPC   H6R17227   4.362   5.783   6.549 -1.3120  1.7930  0.0226
  145DOPC   H6S17228   4.196   5.728   6.522  1.1240 -0.8381 -1.3120
  145DOPC   C2717229   4.349   5.569   6.567 -0.0166 -0.3014 -0.0615
  145DOPC   H7R17230   4.332   5.523   6.467  1.7256 -3.2713  0.9091
  145DOPC   H7S17231   4.286   5.504   6.631 -1.3018  0.8415 -0.1104
  145DOPC   C2817232   4.492   5.556   6.612 -0.0589  0.2159 -0.7299
  145DOPC   H8R17233   4.525   5.451   6.598  0.0343  0.0308  0.7075
  145DOPC   H8S17234   4.484   5.574   6.721 -0.0809  0.4078 -0.7624
  145DOPC   C2917235   4.590   5.647   6.541 -0.4047  0.6731  0.1017
  145DOPC   H9R17236   4.614   5.738   6.598 -0.0207  0.0494  0.9585
  145DOPC  C21017237   4.632   5.629   6.412 -1.0274  0.8536 -0.4550
  145DOPC  H10R17238   4.714   5.691   6.373 -0.3596 -0.4587 -1.2461
  145DOPC  C21117239   4.603   5.510   6.333  1.4295 -0.4406  0.2321
  145DOPC  H11R17240   4.504   5.535   6.289  0.9819 -0.2693  1.3005
  145DOPC  H11S17241   4.593   5.419   6.396  1.7555  0.6641  1.9356
  145DOPC  C21217242   4.696   5.472   6.212 -0.5084  0.1538 -0.6190
  145DOPC  H12R17243   4.646   5.384   6.167 -0.6485 -0.5249  0.8284
  145DOPC  H12S17244   4.785   5.423   6.257  0.2905  1.4419 -0.7440
  145DOPC  C21317245   4.731   5.576   6.106 -0.0310  0.3035  0.0054
  145DOPC  H13R17246   4.789   5.662   6.146 -1.8124  0.9385  1.3499
  145DOPC  H13S17247   4.638   5.629   6.077 -0.1375 -0.1348 -0.4663
  145DOPC  C21417248   4.798   5.527   5.978  0.4582 -0.1777  0.2422
  145DOPC  H14R17249   4.731   5.449   5.934 -0.1727  0.1044  0.6976
  145DOPC  H14S17250   4.905   5.500   5.994  1.0142  1.7787  0.0543
  145DOPC  C21517251   4.794   5.642   5.877 -0.6907 -0.6725 -0.9551
  145DOPC  H15R17252   4.803   5.734   5.939 -0.9903 -2.2473  1.5489
  145DOPC  H15S17253   4.698   5.634   5.821 -1.1590 -1.1541 -0.0923
  145DOPC  C21617254   4.922   5.658   5.796 -0.3580  0.3904 -0.3733
  145DOPC  H16R17255   4.931   5.567   5.732  1.5969  0.3709 -0.1255
  145DOPC  H16S17256   5.004   5.658   5.870 -1.7955  1.3028  1.2894
  145DOPC  C21717257   4.931   5.784   5.704  0.0733 -0.1450 -0.4973
  145DOPC  H17R17258   5.023   5.769   5.645  0.2624  0.0955 -0.2661
  145DOPC  H17S17259   4.945   5.879   5.759  0.4352 -1.5235  1.9370
  145DOPC  C21817260   4.810   5.812   5.623  0.8291 -0.2348  0.3324
  145DOPC  H18R17261   4.832   5.880   5.537  2.3839 -0.2467  0.6837
  145DOPC  H18S17262   4.730   5.866   5.677  0.1260 -1.5508  0.6536
  145DOPC  H18T17263   4.764   5.717   5.587  0.1159  0.2110  0.0406
  145DOPC   C3317264   3.816   6.477   6.725  0.3853  0.4670  0.7170
  145DOPC   H3X17265   3.729   6.423   6.681  1.2002  0.9993 -1.7059
  145DOPC   H3Y17266   3.903   6.417   6.761  2.1687  3.3598  1.5673
  145DOPC   C3417267   3.878   6.560   6.618 -0.5722 -0.4529 -0.5481
  145DOPC   H4X17268   3.800   6.621   6.567 -0.0422 -0.5083 -1.4411
  145DOPC   H4Y17269   3.922   6.487   6.547 -1.2750  0.6915 -2.2299
  145DOPC   C3517270   3.982   6.667   6.663 -0.3804  0.2059 -0.4693
  145DOPC   H5X17271   4.037   6.634   6.754 -0.6280 -0.3336 -0.5132
  145DOPC   H5Y17272   3.929   6.763   6.684 -1.4204  0.0105 -2.0605
  145DOPC   C3617273   4.083   6.694   6.546  0.7791 -0.0121  0.1299
  145DOPC   H6X17274   4.126   6.600   6.505  0.4497 -0.1382  0.0699
  145DOPC   H6Y17275   4.013   6.729   6.467 -0.7482 -2.6596  0.2121
  145DOPC   C3717276   4.190   6.797   6.576 -0.7857 -0.5532 -0.5860
  145DOPC   H7X17277   4.148   6.894   6.608 -0.2596 -0.1262 -1.1693
  145DOPC   H7Y17278   4.268   6.764   6.648  0.1025 -0.9143 -1.6737
  145DOPC   C3817279   4.289   6.834   6.456  0.4390 -0.0092  0.2064
  145DOPC   H8X17280   4.338   6.736   6.435  0.1907 -0.5240  1.8939
  145DOPC   H8Y17281   4.363   6.908   6.492  0.1303  1.0900 -1.3358
  145DOPC   C3917282   4.225   6.890   6.333 -0.2776 -1.0218 -0.3122
  145DOPC   H9X17283   4.124   6.934   6.345 -0.0691 -1.1562  3.1284
  145DOPC  C31017284   4.287   6.887   6.211  0.0620 -0.5344 -0.0965
  145DOPC  H10X17285   4.242   6.940   6.125  0.7201  1.2197  0.5965
  145DOPC  C31117286   4.417   6.824   6.190  0.1982  0.0082  0.6612
  145DOPC  H11X17287   4.420   6.715   6.213 -0.4835 -0.2058 -0.2034
  145DOPC  H11Y17288   4.485   6.878   6.259 -2.0057 -0.4840  3.4112
  145DOPC  C31217289   4.465   6.840   6.040  0.2471 -0.1531 -0.2256
  145DOPC  H12X17290   4.466   6.950   6.023  0.1862 -0.1256 -0.0525
  145DOPC  H12Y17291   4.381   6.800   5.979  1.6469 -2.7795 -0.5812
  145DOPC  C31317292   4.602   6.775   6.015  0.2482  0.3708  0.2217
  145DOPC  H13X17293   4.665   6.825   6.092 -1.0629  2.5145 -0.0174
  145DOPC  H13Y17294   4.596   6.668   6.042 -0.8223  0.2556 -0.4355
  145DOPC  C31417295   4.669   6.817   5.883 -0.2433 -0.8077  0.1132
  145DOPC  H14X17296   4.641   6.923   5.863  0.7950  0.2492  3.5677
  145DOPC  H14Y17297   4.780   6.816   5.883 -0.1874  1.3418  0.1174
  145DOPC  C31517298   4.627   6.743   5.756  0.3096  0.0135 -0.3258
  145DOPC  H15X17299   4.641   6.809   5.668  3.0323  1.0913  0.8186
  145DOPC  H15Y17300   4.517   6.732   5.766  0.5452 -0.8404  1.8566
  145DOPC  C31617301   4.701   6.618   5.729 -0.3234  0.4314 -0.0325
  145DOPC  H16X17302   4.806   6.644   5.705 -0.4941  1.2883  0.1001
  145DOPC  H16Y17303   4.693   6.562   5.825  0.4805  1.2865  0.5535
  145DOPC  C31717304   4.632   6.556   5.616 -0.5431 -0.0613 -0.1371
  145DOPC  H17X17305   4.528   6.531   5.647 -0.1165 -0.0384  1.4009
  145DOPC  H17Y17306   4.629   6.622   5.527  3.1505 -0.5144 -0.7528
  145DOPC  C31817307   4.703   6.439   5.553  0.1346 -0.1715  0.1916
  145DOPC  H18X17308   4.810   6.461   5.536  0.2918  0.6805  2.0449
  145DOPC  H18Y17309   4.707   6.356   5.626  0.3788 -1.0708 -0.8200
  145DOPC  H18Z17310   4.662   6.389   5.463 -0.1075 -1.0998  0.8061
  146DOPC     N17311   6.658   3.244   7.991  0.2488 -0.2913 -0.3883
  146DOPC   C1217312   6.544   3.329   8.040  0.0863 -0.5692  0.7363
  146DOPC  H12A17313   6.588   3.388   8.119 -0.7154  0.5342  0.3857
  146DOPC  H12B17314   6.464   3.266   8.076 -0.3358 -0.8098 -0.5802
  146DOPC   C1317315   6.603   3.159   7.881  0.1723 -0.2437  0.1726
  146DOPC  H13A17316   6.561   3.225   7.807 -1.7068 -0.6731  0.8063
  146DOPC  H13B17317   6.679   3.099   7.833  0.8991  0.9064 -0.1428
  146DOPC  H13C17318   6.521   3.094   7.909 -1.5573  1.4320 -0.7629
  146DOPC   C1417319   6.700   3.157   8.109 -0.1655  0.5755 -0.2376
  146DOPC  H14A17320   6.725   3.206   8.202 -0.7783 -1.6629  1.1924
  146DOPC  H14B17321   6.626   3.081   8.128  0.0781 -0.2593 -2.3495
  146DOPC  H14C17322   6.790   3.106   8.076 -0.8799 -1.6707  1.0510
  146DOPC   C1517323   6.774   3.320   7.944 -0.3577 -0.6607  0.0154
  146DOPC  H15A17324   6.858   3.274   7.895 -0.1961 -0.6101  0.2453
  146DOPC  H15B17325   6.816   3.371   8.029  0.7672 -1.4374 -0.0515
  146DOPC  H15C17326   6.737   3.399   7.880 -1.0066 -0.5389  0.5261
  146DOPC   C1117327   6.476   3.431   7.938  0.3959  0.3091  0.2575
  146DOPC  H11A17328   6.432   3.509   8.004  2.9592 -0.1683  2.7118
  146DOPC  H11B17329   6.554   3.469   7.869  0.8582 -2.7320 -1.0269
  146DOPC     P17330   6.249   3.300   7.904 -0.1818 -0.3740 -0.6326
  146DOPC   O1317331   6.149   3.408   7.910  0.0043 -0.5790 -0.0515
  146DOPC   O1417332   6.277   3.223   8.024  0.6548  0.4308 -0.0718
  146DOPC   O1217333   6.382   3.365   7.853 -0.7005 -0.2206 -0.0896
  146DOPC   O1117334   6.205   3.206   7.796  0.7427 -0.5121  0.3458
  146DOPC    C117335   6.284   3.136   7.704 -0.1202 -0.2570  0.0664
  146DOPC    HA17336   6.267   3.026   7.698 -0.3474 -0.4007  2.4798
  146DOPC    HB17337   6.389   3.134   7.740 -0.8854  1.4508  2.6557
  146DOPC    C217338   6.275   3.211   7.570  0.1432  0.4203  0.3579
  146DOPC    HS17339   6.318   3.143   7.493 -0.4357  1.5183 -0.9857
  146DOPC   O2117340   6.338   3.337   7.570  0.7298  0.3970  0.0454
  146DOPC   C2117341   6.468   3.334   7.560 -0.1484  0.4635  0.4025
  146DOPC   O2217342   6.538   3.234   7.569  0.2087 -0.5785 -0.3033
  146DOPC   C2217343   6.527   3.471   7.515  0.3350 -0.4041  0.5040
  146DOPC   H2R17344   6.537   3.521   7.614 -1.0842 -0.2489  0.5942
  146DOPC   H2S17345   6.450   3.528   7.458  2.2147 -0.5363 -2.3670
  146DOPC    C317346   6.126   3.231   7.528 -0.1249 -0.4187  0.4040
  146DOPC    HX17347   6.068   3.286   7.604 -2.6713 -1.0697 -0.9506
  146DOPC    HY17348   6.073   3.136   7.507 -0.3180  0.3557 -3.3610
  146DOPC   O3117349   6.114   3.308   7.403  0.0683 -0.0478 -0.2496
  146DOPC   C3117350   6.127   3.236   7.295  0.1338  0.4711  0.0767
  146DOPC   O3217351   6.168   3.119   7.289 -0.1929 -0.9881 -0.2243
  146DOPC   C3217352   6.064   3.307   7.178  0.0523  0.6862 -0.3114
  146DOPC   H2X17353   5.963   3.350   7.198 -1.3828 -1.2704 -2.8010
  146DOPC   H2Y17354   6.141   3.380   7.147  1.9922 -0.6213  1.1809
  146DOPC   C2317355   6.656   3.451   7.432  0.3353  0.0497 -0.0185
  146DOPC   H3R17356   6.722   3.379   7.485  1.0512  1.5215  1.1666
  146DOPC   H3S17357   6.701   3.552   7.443 -1.4637  0.9322 -0.3708
  146DOPC   C2417358   6.651   3.411   7.286 -0.3294 -0.1281  0.2189
  146DOPC   H4R17359   6.753   3.425   7.245 -0.6933  2.5386  0.0696
  146DOPC   H4S17360   6.577   3.469   7.226 -1.8100 -0.2469  1.8468
  146DOPC   C2517361   6.603   3.261   7.272  0.1988  0.3666 -0.2414
  146DOPC   H5R17362   6.499   3.251   7.309  0.1572  2.4588  0.3616
  146DOPC   H5S17363   6.680   3.202   7.326 -0.8206  1.2067  2.3117
  146DOPC   C2617364   6.603   3.206   7.129  0.2571 -0.0779  0.3894
  146DOPC   H6R17365   6.542   3.113   7.126 -0.5862  0.4456  1.1496
  146DOPC   H6S17366   6.705   3.177   7.096 -0.4645 -0.6107 -1.4934
  146DOPC   C2717367   6.541   3.297   7.018  0.4356 -0.3828 -0.8945
  146DOPC   H7R17368   6.599   3.388   6.991  0.4984  0.0180  0.5410
  146DOPC   H7S17369   6.440   3.326   7.054  0.2520 -3.2691  1.2047
  146DOPC   C2817370   6.528   3.217   6.891 -0.0639  0.3422  0.0146
  146DOPC   H8R17371   6.629   3.181   6.864 -0.3975  1.1568 -2.6409
  146DOPC   H8S17372   6.498   3.287   6.810  1.8301 -1.8283 -2.7551
  146DOPC   C2917373   6.431   3.100   6.889  0.5270 -0.0688  0.5107
  146DOPC   H9R17374   6.442   3.035   6.977  0.9924 -1.5875 -0.6171
  146DOPC  C21017375   6.311   3.080   6.822  0.1211  0.2936  0.0448
  146DOPC  H10R17376   6.250   2.991   6.843 -1.6421  1.1863 -1.0479
  146DOPC  C21117377   6.266   3.168   6.705 -0.5333 -0.0823 -0.3607
  146DOPC  H11R17378   6.351   3.183   6.635 -2.1967 -0.6884 -2.6411
  146DOPC  H11S17379   6.236   3.270   6.736 -2.2835 -0.5099 -0.5568
  146DOPC  C21217380   6.149   3.096   6.629 -0.2422 -0.2708  0.5838
  146DOPC  H12R17381   6.066   3.085   6.702  1.3139 -3.1091  2.1222
  146DOPC  H12S17382   6.176   2.990   6.608 -0.5153 -0.2929  0.3514
  146DOPC  C21317383   6.118   3.164   6.499  0.1144  0.6282  0.2636
  146DOPC  H13R17384   6.214   3.194   6.452 -0.9868  0.5509 -2.1498
  146DOPC  H13S17385   6.064   3.261   6.507  0.2816  0.7633 -0.2207
  146DOPC  C21417386   6.052   3.070   6.389 -0.5730  0.1144 -0.6986
  146DOPC  H14R17387   5.955   3.027   6.423 -1.0990  1.5035 -0.4030
  146DOPC  H14S17388   6.118   2.982   6.371 -0.1248 -0.0243  1.2992
  146DOPC  C21517389   6.032   3.141   6.252 -0.1377  0.0931 -0.4384
  146DOPC  H15R17390   6.128   3.194   6.239  0.1293 -0.6175 -1.5351
  146DOPC  H15S17391   5.954   3.220   6.252  0.0900  0.3168  0.1594
  146DOPC  C21617392   5.996   3.067   6.125  0.9707  0.4193 -0.0205
  146DOPC  H16R17393   5.914   2.993   6.138  1.1563  0.2677  0.3162
  146DOPC  H16S17394   6.085   3.004   6.102 -0.6138 -1.4400 -1.5186
  146DOPC  C21717395   5.981   3.155   5.999  0.4038 -0.8708 -0.2679
  146DOPC  H17R17396   6.054   3.238   5.991  0.8181 -1.2955 -1.0449
  146DOPC  H17S17397   5.891   3.213   6.030  0.5454 -1.8690  2.2778
  146DOPC  C21817398   5.968   3.079   5.873 -0.2652 -0.1220 -0.1705
  146DOPC  H18R17399   5.910   3.136   5.797  0.8819 -0.0769 -1.0492
  146DOPC  H18S17400   5.914   2.988   5.907 -1.4910  0.9311  0.7849
  146DOPC  H18T17401   6.068   3.049   5.836 -0.7963 -1.6785 -0.4154
  146DOPC   C3317402   6.035   3.219   7.055  0.6196  0.1124 -0.1388
  146DOPC   H3X17403   5.984   3.126   7.089  1.2148 -0.8646 -1.8015
  146DOPC   H3Y17404   6.128   3.183   7.007 -0.0397  0.0144 -1.3862
  146DOPC   C3417405   5.943   3.271   6.946  0.5308  0.0387  0.2168
  146DOPC   H4X17406   5.997   3.293   6.852 -1.4201 -0.6244 -1.1187
  146DOPC   H4Y17407   5.898   3.370   6.969 -0.8558  0.4087 -3.4094
  146DOPC   C3517408   5.823   3.179   6.898  0.0603 -0.1472  0.0854
  146DOPC   H5X17409   5.860   3.077   6.874  3.5078  1.3561 -1.7161
  146DOPC   H5Y17410   5.786   3.221   6.802 -0.1945 -0.0831  0.2096
  146DOPC   C3617411   5.698   3.168   6.992 -0.5225 -0.3638 -0.0100
  146DOPC   H6X17412   5.716   3.121   7.091 -1.4608 -2.4584 -0.7645
  146DOPC   H6Y17413   5.658   3.271   7.001 -0.4963 -0.4016  0.5253
  146DOPC   C3717414   5.587   3.097   6.916 -0.1392  0.1135  0.0345
  146DOPC   H7X17415   5.488   3.122   6.959  0.3038  1.1376  0.5123
  146DOPC   H7Y17416   5.582   3.149   6.818  0.8429 -1.0235 -0.6359
  146DOPC   C3817417   5.586   2.940   6.909  0.4860  0.0924  0.2524
  146DOPC   H8X17418   5.574   2.901   7.012 -4.3519 -0.8769 -0.4414
  146DOPC   H8Y17419   5.681   2.916   6.856 -1.2756 -2.7292 -1.9347
  146DOPC   C3917420   5.469   2.880   6.831 -0.2729  0.4066  0.2364
  146DOPC   H9X17421   5.382   2.865   6.897  0.1311  1.1919  0.9686
  146DOPC  C31017422   5.463   2.862   6.699  0.1233  0.0457 -0.2595
  146DOPC  H10X17423   5.365   2.826   6.664  0.0742  1.7911 -2.0707
  146DOPC  C31117424   5.562   2.888   6.585  0.2736  0.4702  0.2788
  146DOPC  H11X17425   5.661   2.925   6.620  0.1206 -0.6836  2.0381
  146DOPC  H11Y17426   5.528   2.971   6.519 -1.6084 -0.0914  0.5037
  146DOPC  C31217427   5.583   2.757   6.499  1.1156  0.3166 -0.4139
  146DOPC  H12X17428   5.481   2.742   6.456  0.6971  1.3392  0.1703
  146DOPC  H12Y17429   5.614   2.680   6.572  0.2613 -0.2226 -0.5994
  146DOPC  C31317430   5.682   2.780   6.386 -0.9013 -0.4101  0.6353
  146DOPC  H13X17431   5.769   2.839   6.424 -0.4247  1.7545 -3.2145
  146DOPC  H13Y17432   5.729   2.688   6.346 -1.4127 -0.0289 -0.9290
  146DOPC  C31417433   5.612   2.852   6.267 -0.3705 -0.4032 -0.1046
  146DOPC  H14X17434   5.551   2.937   6.306  1.5174 -0.2668  2.8659
  146DOPC  H14Y17435   5.679   2.899   6.192  0.1131 -1.1331 -0.1334
  146DOPC  C31517436   5.523   2.761   6.188 -0.5649  0.3417 -0.6893
  146DOPC  H15X17437   5.427   2.762   6.243  0.1070  1.9879  0.5435
  146DOPC  H15Y17438   5.564   2.657   6.190 -0.6461  0.3143  0.3493
  146DOPC  C31617439   5.495   2.786   6.040  0.6595 -0.2778  0.0311
  146DOPC  H16X17440   5.585   2.763   5.980  0.9475 -2.1231  1.1056
  146DOPC  H16Y17441   5.416   2.711   6.016  1.4537 -1.3776  0.7749
  146DOPC  C31717442   5.441   2.929   6.019 -0.5902 -0.7511 -0.3914
  146DOPC  H17X17443   5.349   2.949   6.078 -0.3925 -1.8205  0.3040
  146DOPC  H17Y17444   5.509   3.005   6.062 -1.2688 -1.9003  3.0181
  146DOPC  C31817445   5.425   2.962   5.866 -0.7185  0.2878 -0.1566
  146DOPC  H18X17446   5.335   2.909   5.827 -2.2654  2.3441  0.4158
  146DOPC  H18Y17447   5.418   3.073   5.861  1.3890  0.4494 -0.3232
  146DOPC  H18Z17448   5.517   2.940   5.808  1.2416  0.0084  2.8405
  147DOPC     N17449   1.257   3.052   7.189  0.0905 -0.3695  0.3319
  147DOPC   C1217450   1.387   3.089   7.119 -0.6431 -0.6798  0.4481
  147DOPC  H12A17451   1.389   3.194   7.096 -0.1422 -1.0074 -1.1543
  147DOPC  H12B17452   1.388   3.046   7.020 -1.4230  0.0581  0.1158
  147DOPC   C1317453   1.239   2.904   7.216  0.1045 -0.5423 -0.5577
  147DOPC  H13A17454   1.327   2.854   7.254 -0.6529 -2.3313 -1.0325
  147DOPC  H13B17455   1.155   2.887   7.282 -0.6591  0.8842 -1.1195
  147DOPC  H13C17456   1.209   2.852   7.126 -1.5630 -1.4688  0.4654
  147DOPC   C1417457   1.139   3.101   7.105  0.6037 -0.1164  0.2313
  147DOPC  H14A17458   1.137   3.208   7.093  1.6638 -0.2380 -1.1852
  147DOPC  H14B17459   1.143   3.045   7.013  5.4257 -2.5168  1.5703
  147DOPC  H14C17460   1.046   3.075   7.153  0.8285 -0.2061  0.6258
  147DOPC   C1517461   1.245   3.139   7.310  0.1927 -0.3362 -0.3435
  147DOPC  H15A17462   1.268   3.241   7.285 -0.6027  0.2130  1.0266
  147DOPC  H15B17463   1.298   3.101   7.397  2.8609  0.2963 -1.5943
  147DOPC  H15C17464   1.141   3.136   7.341 -0.2012  0.9728 -1.4506
  147DOPC   C1117465   1.528   3.046   7.186  0.7524  0.3771 -0.2855
  147DOPC  H11A17466   1.623   3.065   7.132  0.8685  1.4919  0.2706
  147DOPC  H11B17467   1.538   3.103   7.281  1.6522  0.8675 -0.6608
  147DOPC     P17468   1.557   2.799   7.115  0.4152 -0.1838  0.0626
  147DOPC   O1317469   1.440   2.703   7.115 -0.4517 -0.2398  0.1445
  147DOPC   O1417470   1.687   2.734   7.149 -0.2520 -0.3909  0.3572
  147DOPC   O1217471   1.518   2.908   7.227  0.3291  0.1542 -0.1584
  147DOPC   O1117472   1.565   2.866   6.974  0.1901  0.4456 -0.0713
  147DOPC    C117473   1.692   2.909   6.912 -0.3118  0.3399  0.5412
  147DOPC    HA17474   1.775   2.877   6.978 -1.9418 -1.7541  1.7117
  147DOPC    HB17475   1.693   3.020   6.908 -3.6260  0.4336 -0.4151
  147DOPC    C217476   1.717   2.837   6.780 -0.1859  0.1044  0.4025
  147DOPC    HS17477   1.808   2.882   6.736  0.6407 -0.8046  1.1547
  147DOPC   O2117478   1.606   2.851   6.687 -0.6808 -0.4277 -0.0571
  147DOPC   C2117479   1.611   2.958   6.611 -0.7571 -0.3198 -0.6872
  147DOPC   O2217480   1.702   3.040   6.613  0.4083  0.4755 -0.3937
  147DOPC   C2217481   1.486   2.971   6.529  0.2811 -0.3586  0.3768
  147DOPC   H2R17482   1.484   3.072   6.483 -0.7820 -0.2233  0.6843
  147DOPC   H2S17483   1.392   2.974   6.589 -1.3809  3.1639 -2.0450
  147DOPC    C317484   1.746   2.684   6.797 -0.1884 -0.6022  0.4094
  147DOPC    HX17485   1.653   2.636   6.836  0.2054 -0.8653  1.0460
  147DOPC    HY17486   1.817   2.681   6.883 -1.0761 -0.6412  1.1597
  147DOPC   O3117487   1.802   2.611   6.691 -0.4345 -0.0374 -0.2639
  147DOPC   C3117488   1.777   2.480   6.678  0.5641 -0.6297  0.1284
  147DOPC   O3217489   1.700   2.416   6.750 -0.2037 -0.5619 -0.1982
  147DOPC   C3217490   1.854   2.422   6.557  0.5155 -0.5057 -0.1983
  147DOPC   H2X17491   1.961   2.417   6.586  0.6811  0.5878 -0.5827
  147DOPC   H2Y17492   1.818   2.318   6.539 -1.4435  0.2466 -0.9679
  147DOPC   C2317493   1.474   2.866   6.423 -0.0100 -0.5871  0.5025
  147DOPC   H3R17494   1.489   2.764   6.464 -0.9536 -0.0520  2.2443
  147DOPC   H3S17495   1.541   2.885   6.336 -0.5821 -3.2325 -0.6283
  147DOPC   C2417496   1.337   2.863   6.349  0.0822  0.2992  0.0757
  147DOPC   H4R17497   1.321   2.948   6.280 -1.7450  1.3875  1.7357
  147DOPC   H4S17498   1.255   2.862   6.424 -1.4843  1.2473 -1.5568
  147DOPC   C2517499   1.328   2.738   6.261  0.2850  0.2388 -0.2174
  147DOPC   H5R17500   1.346   2.643   6.317 -0.6089 -0.5278 -1.1911
  147DOPC   H5S17501   1.414   2.738   6.190  0.9452  1.1679  0.5474
  147DOPC   C2617502   1.202   2.727   6.178  0.1767 -0.0924 -0.5788
  147DOPC   H6R17503   1.189   2.831   6.141  0.1779 -0.1306 -0.6855
  147DOPC   H6S17504   1.116   2.702   6.245  0.4781  1.8802  0.6467
  147DOPC   C2717505   1.208   2.628   6.062 -0.5272  0.6532 -0.5828
  147DOPC   H7R17506   1.219   2.530   6.113  0.0751  1.7103  1.3974
  147DOPC   H7S17507   1.303   2.652   6.009 -0.5194  1.7322 -0.1119
  147DOPC   C2817508   1.088   2.623   5.968  0.0188 -0.3175  0.1712
  147DOPC   H8R17509   1.091   2.726   5.925  2.0475 -0.6130 -0.5298
  147DOPC   H8S17510   0.989   2.622   6.017 -0.5372 -2.0970 -0.9005
  147DOPC   C2917511   1.105   2.527   5.856 -0.5649  0.6046  0.1647
  147DOPC   H9R17512   1.183   2.451   5.866  1.8426  3.0278  1.1237
  147DOPC  C21017513   1.024   2.526   5.746  0.0656 -0.1559  0.0562
  147DOPC  H10R17514   1.046   2.445   5.675  4.1009  0.7206  0.0571
  147DOPC  C21117515   0.910   2.619   5.716  0.3289  0.2263 -0.0533
  147DOPC  H11R17516   0.921   2.687   5.628  0.7196  1.7165  1.1148
  147DOPC  H11S17517   0.891   2.689   5.800  0.1724  1.7109 -1.2574
  147DOPC  C21217518   0.768   2.553   5.699  0.1395  0.4176 -0.9996
  147DOPC  H12R17519   0.761   2.466   5.768  2.9616  1.8676  1.3371
  147DOPC  H12S17520   0.750   2.507   5.599 -0.0615 -2.3122  0.2158
  147DOPC  C21317521   0.657   2.653   5.727 -0.1934 -0.2336  0.9102
  147DOPC  H13R17522   0.665   2.730   5.648 -0.8418 -0.7763  0.3061
  147DOPC  H13S17523   0.668   2.699   5.828 -0.7887 -0.1374  0.9365
  147DOPC  C21417524   0.513   2.591   5.722  0.0821  0.4693 -0.1714
  147DOPC  H14R17525   0.447   2.674   5.755 -0.4932 -0.8013  2.0558
  147DOPC  H14S17526   0.506   2.510   5.798 -0.6398 -0.1428 -0.8617
  147DOPC  C21517527   0.465   2.537   5.582  0.0959 -0.0854  0.2427
  147DOPC  H15R17528   0.544   2.464   5.553  1.5404  1.8385 -0.9772
  147DOPC  H15S17529   0.466   2.614   5.501 -1.6908 -0.2400  0.0444
  147DOPC  C21617530   0.322   2.489   5.580  0.0176 -0.2664  0.3617
  147DOPC  H16R17531   0.260   2.575   5.612 -2.0511 -1.5164 -0.0733
  147DOPC  H16S17532   0.306   2.414   5.661  1.6364 -0.7545  0.2629
  147DOPC  C21717533   0.265   2.438   5.449  0.4838  0.3769 -0.7106
  147DOPC  H17R17534   0.326   2.357   5.402 -0.4123 -0.3232 -0.6918
  147DOPC  H17S17535   0.260   2.525   5.380  2.0529  0.8536 -0.2722
  147DOPC  C21817536   0.126   2.370   5.477  0.4390 -0.7585 -0.0389
  147DOPC  H18R17537   0.070   2.439   5.545  0.8550 -1.3096  0.8756
  147DOPC  H18S17538   0.134   2.273   5.529  0.0795 -0.5003  0.5092
  147DOPC  H18T17539   0.067   2.358   5.383  0.6525  0.2165 -0.3146
  147DOPC   C3317540   1.834   2.502   6.426  0.2462 -0.2584  0.0652
  147DOPC   H3X17541   1.896   2.469   6.340 -0.4818  1.5401 -1.2019
  147DOPC   H3Y17542   1.861   2.609   6.441  2.3744 -0.6928 -0.3769
  147DOPC   C3417543   1.691   2.476   6.367 -0.3041 -0.7280  0.5026
  147DOPC   H4X17544   1.613   2.507   6.440 -0.7665 -0.7433  0.0217
  147DOPC   H4Y17545   1.666   2.369   6.353  0.9490 -1.0343  0.5611
  147DOPC   C3517546   1.661   2.551   6.235  0.3395 -0.3788  0.2070
  147DOPC   H5X17547   1.699   2.654   6.254  0.6036 -0.2234 -1.0675
  147DOPC   H5Y17548   1.551   2.557   6.219  0.5632 -0.6477 -1.7288
  147DOPC   C3617549   1.725   2.493   6.109  0.0690  0.4953 -0.3272
  147DOPC   H6X17550   1.834   2.486   6.128  0.3608 -0.3530 -2.0788
  147DOPC   H6Y17551   1.683   2.390   6.101 -0.7592  0.7526  0.6202
  147DOPC   C3717552   1.697   2.568   5.979  0.4194 -0.3187 -0.6418
  147DOPC   H7X17553   1.587   2.568   5.967  0.1076 -0.1507  1.7449
  147DOPC   H7Y17554   1.711   2.677   5.992 -0.9346 -0.3238  1.2839
  147DOPC   C3817555   1.755   2.499   5.854 -0.1111  0.9289  0.0304
  147DOPC   H8X17556   1.709   2.398   5.844 -0.2060  0.9207  0.5511
  147DOPC   H8Y17557   1.857   2.471   5.889 -1.1883 -1.2763  1.6024
  147DOPC   C3917558   1.766   2.588   5.732 -0.3959  0.5280  0.2030
  147DOPC   H9X17559   1.806   2.689   5.751 -0.5076  0.7575 -0.7403
  147DOPC  C31017560   1.722   2.554   5.610  0.4069 -0.5092 -0.0549
  147DOPC  H10X17561   1.732   2.623   5.525 -0.4236 -1.0888 -0.6368
  147DOPC  C31117562   1.658   2.422   5.568 -0.1290 -1.1898 -0.1831
  147DOPC  H11X17563   1.549   2.432   5.585 -0.5001 -2.2509 -1.8003
  147DOPC  H11Y17564   1.691   2.341   5.636  1.5671  1.8986  3.0042
  147DOPC  C31217565   1.688   2.387   5.422  1.0837  0.8772 -0.1351
  147DOPC  H12X17566   1.635   2.289   5.416 -0.5365  1.5873  1.6574
  147DOPC  H12Y17567   1.796   2.372   5.402  0.9311  1.0617 -1.1914
  147DOPC  C31317568   1.627   2.472   5.310  0.2387 -0.3141 -0.0492
  147DOPC  H13X17569   1.518   2.486   5.328  0.3376  0.1140  0.2392
  147DOPC  H13Y17570   1.670   2.574   5.308  0.2437 -0.3144  0.0879
  147DOPC  C31417571   1.662   2.432   5.161  0.1701  0.3448 -0.0977
  147DOPC  H14X17572   1.579   2.487   5.112  0.0474 -0.5190 -0.8842
  147DOPC  H14Y17573   1.757   2.478   5.128 -0.1809  1.2655  0.1196
  147DOPC  C31517574   1.645   2.283   5.137  0.1937 -0.3597 -0.1171
  147DOPC  H15X17575   1.545   2.251   5.174 -0.1398  0.0233 -0.6807
  147DOPC  H15Y17576   1.730   2.231   5.186  0.0844 -0.0065  0.4577
  147DOPC  C31617577   1.661   2.258   4.986  0.2148 -0.2881  0.2175
  147DOPC  H16X17578   1.609   2.162   4.966 -0.0808  0.2861 -1.9666
  147DOPC  H16Y17579   1.598   2.337   4.940 -0.3819 -0.4827  0.6802
  147DOPC  C31717580   1.799   2.250   4.921 -0.7145 -0.2117  0.0979
  147DOPC  H17X17581   1.850   2.348   4.934 -0.5347 -0.4454  1.2778
  147DOPC  H17Y17582   1.861   2.174   4.973  0.3663  0.5256 -0.0961
  147DOPC  C31817583   1.798   2.205   4.777  0.2944 -0.5546 -0.0162
  147DOPC  H18X17584   1.729   2.269   4.718  1.3854 -0.1608 -0.9012
  147DOPC  H18Y17585   1.895   2.228   4.728 -0.4259  1.0787 -0.7426
  147DOPC  H18Z17586   1.772   2.098   4.765 -3.2577  0.1432  0.3562
  148DOPC     N17587   1.961   5.888   6.738  0.7172  0.2950 -0.4172
  148DOPC   C1217588   1.974   5.747   6.795  0.0003 -0.4839 -0.3481
  148DOPC  H12A17589   1.888   5.689   6.765 -1.9744  1.7452  0.7226
  148DOPC  H12B17590   1.959   5.753   6.902 -2.2636 -1.7102 -0.5263
  148DOPC   C1317591   2.052   5.978   6.812 -0.0212  0.0095  0.3851
  148DOPC  H13A17592   2.007   5.984   6.910 -0.0830  0.7922  0.3149
  148DOPC  H13B17593   2.150   5.932   6.812  0.3820  0.8374 -0.1938
  148DOPC  H13C17594   2.061   6.080   6.779  0.1810 -0.9312 -2.8524
  148DOPC   C1417595   1.824   5.944   6.752 -0.1372  0.0330  0.2763
  148DOPC  H14A17596   1.822   6.051   6.737  0.7824  0.3412  2.0494
  148DOPC  H14B17597   1.758   5.893   6.683 -1.1377  1.2723  0.2876
  148DOPC  H14C17598   1.788   5.944   6.854 -0.7576 -2.2105  0.1266
  148DOPC   C1517599   1.999   5.888   6.596 -0.1845  0.3719  0.2060
  148DOPC  H15A17600   1.941   5.816   6.540  0.2709  1.2915 -1.5294
  148DOPC  H15B17601   2.102   5.867   6.573 -0.6149 -1.1216 -0.4633
  148DOPC  H15C17602   1.983   5.980   6.540 -0.0799 -0.0995 -0.6083
  148DOPC   C1117603   2.099   5.666   6.752 -0.3771  0.4865  0.0712
  148DOPC  H11A17604   2.093   5.572   6.812  0.0865  0.0605 -0.5356
  148DOPC  H11B17605   2.075   5.645   6.645 -0.1170  1.2712 -0.1438
  148DOPC     P17606   2.335   5.703   6.663 -0.0946 -0.0649  0.0046
  148DOPC   O1317607   2.340   5.555   6.649 -0.1242 -0.1211 -0.7278
  148DOPC   O1417608   2.461   5.771   6.706  0.2380  0.3470  0.2992
  148DOPC   O1217609   2.224   5.737   6.772  0.2557 -0.5399 -0.1370
  148DOPC   O1117610   2.276   5.749   6.529  0.1005  0.2893 -0.0888
  148DOPC    C117611   2.361   5.823   6.438  0.1080 -0.4996 -0.6102
  148DOPC    HA17612   2.451   5.763   6.411  0.8876  0.0610  0.6126
  148DOPC    HB17613   2.388   5.919   6.488  0.7447 -1.3969  0.8393
  148DOPC    C217614   2.292   5.868   6.308 -0.0582  0.2644 -0.2603
  148DOPC    HS17615   2.199   5.919   6.340  0.5956  1.1025  0.3773
  148DOPC   O2117616   2.292   5.746   6.234  0.6238  0.1786 -0.3959
  148DOPC   C2117617   2.172   5.699   6.216 -0.4252 -0.0768 -0.6316
  148DOPC   O2217618   2.071   5.739   6.267 -0.1685  0.1611  0.4058
  148DOPC   C2217619   2.196   5.578   6.129  0.3906 -0.0528  0.4507
  148DOPC   H2R17620   2.289   5.525   6.160 -1.0053 -2.7478  0.3181
  148DOPC   H2S17621   2.213   5.607   6.023  0.9755  0.6736  0.7379
  148DOPC    C317622   2.387   5.981   6.255 -0.3746 -0.1501 -0.0283
  148DOPC    HX17623   2.491   5.943   6.254 -0.2728  0.1237  0.0115
  148DOPC    HY17624   2.378   6.068   6.324 -1.0350 -0.0994 -0.1669
  148DOPC   O3117625   2.363   6.008   6.116 -0.6770  0.3513 -0.4186
  148DOPC   C3117626   2.253   6.070   6.098  0.7391 -0.2809  0.2321
  148DOPC   O3217627   2.178   6.107   6.190 -0.0717  0.4471  0.2366
  148DOPC   C3217628   2.222   6.077   5.954 -0.0821 -0.4983 -0.9627
  148DOPC   H2X17629   2.294   6.144   5.902  1.8037 -1.4979  0.2315
  148DOPC   H2Y17630   2.226   5.979   5.903  1.5719 -1.2569  0.5212
  148DOPC   C2317631   2.084   5.476   6.131 -0.1478 -0.1712  0.3610
  148DOPC   H3R17632   1.985   5.525   6.114 -0.1059 -0.3594 -0.4996
  148DOPC   H3S17633   2.083   5.422   6.228  0.4859  1.7492  1.4864
  148DOPC   C2417634   2.105   5.369   6.022  0.1267  0.9668  0.1397
  148DOPC   H4R17635   2.204   5.324   6.042  0.3335  1.8261  1.1304
  148DOPC   H4S17636   2.120   5.427   5.928 -0.5238 -1.2381 -1.4111
  148DOPC   C2517637   1.987   5.277   6.013  0.0038  0.0451 -0.3062
  148DOPC   H5R17638   1.894   5.323   5.973 -0.6585  0.4546  1.6179
  148DOPC   H5S17639   1.957   5.239   6.113 -0.0590  1.7173  0.3397
  148DOPC   C2617640   2.011   5.166   5.907 -0.1708  0.4613  0.0608
  148DOPC   H6R17641   1.932   5.088   5.914  1.0969 -0.9757 -0.9932
  148DOPC   H6S17642   2.109   5.116   5.920 -0.5499 -0.9964 -2.1590
  148DOPC   C2717643   2.010   5.216   5.758  0.3112  0.0542 -0.3904
  148DOPC   H7R17644   2.068   5.310   5.754 -1.4986  1.1925 -1.7230
  148DOPC   H7S17645   1.910   5.254   5.728 -0.3069 -0.0153  1.4715
  148DOPC   C2817646   2.048   5.100   5.667 -0.2150  0.1677  1.0255
  148DOPC   H8R17647   2.140   5.053   5.707  0.4006  0.0358 -0.4942
  148DOPC   H8S17648   2.084   5.154   5.578  1.4269  1.2839  2.3001
  148DOPC   C2917649   1.945   4.996   5.645  0.2807  0.4222 -0.3651
  148DOPC   H9R17650   1.948   4.918   5.723  0.9655  0.7390 -0.0671
  148DOPC  C21017651   1.856   5.004   5.544 -0.3369 -0.3803 -0.5533
  148DOPC  H10R17652   1.767   4.938   5.552 -0.4990  0.0882  3.8994
  148DOPC  C21117653   1.841   5.113   5.438  0.0890 -0.4629  0.0951
  148DOPC  H11R17654   1.925   5.094   5.367 -0.4304 -1.9205 -0.1679
  148DOPC  H11S17655   1.854   5.215   5.480 -0.8485 -0.5089  0.5225
  148DOPC  C21217656   1.705   5.100   5.366 -0.9267 -0.3026 -0.1282
  148DOPC  H12R17657   1.700   5.182   5.291  2.3789  0.5931  0.4594
  148DOPC  H12S17658   1.611   5.121   5.421 -1.2877 -0.5253 -0.6478
  148DOPC  C21317659   1.695   4.967   5.289 -0.0205  0.5692  0.2945
  148DOPC  H13R17660   1.655   4.878   5.341  2.2550 -0.7913 -0.1754
  148DOPC  H13S17661   1.800   4.950   5.257 -0.7592 -1.4140 -1.2550
  148DOPC  C21417662   1.615   4.979   5.156  0.3711 -0.0955 -0.1569
  148DOPC  H14R17663   1.667   5.052   5.090  0.7364 -1.2117 -1.1374
  148DOPC  H14S17664   1.523   5.037   5.177  0.5319  0.7550 -1.6408
  148DOPC  C21517665   1.591   4.844   5.095  0.5947  0.2066 -0.5990
  148DOPC  H15R17666   1.530   4.777   5.159  0.7806 -0.8656 -1.5114
  148DOPC  H15S17667   1.684   4.793   5.061  0.0547 -0.5073 -1.0425
  148DOPC  C21617668   1.506   4.870   4.968  0.5369 -0.6464 -0.1758
  148DOPC  H16R17669   1.568   4.926   4.894  2.5325 -1.0446  1.1181
  148DOPC  H16S17670   1.418   4.932   4.994 -0.5118 -1.7108 -1.0712
  148DOPC  C21717671   1.456   4.736   4.907  0.4163 -0.0976  0.2394
  148DOPC  H17R17672   1.536   4.659   4.914  2.0499  1.4412 -0.8465
  148DOPC  H17S17673   1.435   4.755   4.799 -2.0810  2.1371  1.0322
  148DOPC  C21817674   1.331   4.671   4.975  0.3547  0.4096 -0.2469
  148DOPC  H18R17675   1.356   4.626   5.074  0.2165 -0.7327 -0.7150
  148DOPC  H18S17676   1.282   4.596   4.909  1.2599  0.0179 -0.4796
  148DOPC  H18T17677   1.250   4.745   4.994 -1.8932 -2.2971  1.5981
  148DOPC   C3317678   2.084   6.132   5.936 -0.3385 -0.1689 -0.5175
  148DOPC   H3X17679   2.083   6.235   5.979  1.4076 -1.1867  2.1853
  148DOPC   H3Y17680   2.010   6.085   6.003 -1.0938  1.2990 -0.2857
  148DOPC   C3417681   2.042   6.134   5.791  0.3776 -0.5310  0.9144
  148DOPC   H4X17682   2.053   6.035   5.740  1.2903 -0.1066  0.2596
  148DOPC   H4Y17683   2.120   6.187   5.732  0.1059 -1.3718 -0.2468
  148DOPC   C3517684   1.898   6.177   5.772  0.0700 -0.4464 -0.1032
  148DOPC   H5X17685   1.881   6.281   5.804  0.0646 -0.3394 -0.4501
  148DOPC   H5Y17686   1.840   6.112   5.842  3.0117 -1.2074  1.8016
  148DOPC   C3617687   1.848   6.157   5.627  0.5297  0.2660  0.2826
  148DOPC   H6X17688   1.900   6.216   5.549 -0.3197 -2.2865 -2.4234
  148DOPC   H6Y17689   1.874   6.052   5.601  0.5254  0.5280 -0.8269
  148DOPC   C3717690   1.706   6.183   5.616 -0.0709 -0.0298 -0.2417
  148DOPC   H7X17691   1.685   6.147   5.513  1.2494  0.3594 -0.6734
  148DOPC   H7Y17692   1.644   6.125   5.687  0.7560 -0.5963  0.0373
  148DOPC   C3817693   1.676   6.335   5.603  0.0876 -0.1053 -0.6772
  148DOPC   H8X17694   1.748   6.382   5.532  1.0265  0.0941  0.3673
  148DOPC   H8Y17695   1.685   6.387   5.702  0.6388  0.4378 -1.0025
  148DOPC   C3917696   1.537   6.343   5.551 -0.5552 -0.1370 -0.7863
  148DOPC   H9X17697   1.466   6.327   5.634  1.0632 -0.5587  0.5589
  148DOPC  C31017698   1.512   6.340   5.422 -0.0894  0.1396 -0.1440
  148DOPC  H10X17699   1.406   6.355   5.398 -0.5379 -1.3300  0.7961
  148DOPC  C31117700   1.604   6.354   5.306 -0.1595 -0.1817  0.3802
  148DOPC  H11X17701   1.591   6.256   5.255  1.4156 -0.6370  0.7799
  148DOPC  H11Y17702   1.710   6.369   5.336 -0.6914  1.3775  1.6781
  148DOPC  C31217703   1.565   6.469   5.220 -0.2173 -0.0085 -0.0752
  148DOPC  H12X17704   1.580   6.566   5.272 -2.3189  0.8822 -0.9975
  148DOPC  H12Y17705   1.456   6.464   5.199 -0.3243  0.9818  0.1829
  148DOPC  C31317706   1.644   6.462   5.084  0.6675  0.5564 -0.4866
  148DOPC  H13X17707   1.744   6.416   5.095  1.3331  2.1496  0.6018
  148DOPC  H13Y17708   1.587   6.398   5.013 -2.6769  1.0209  1.5383
  148DOPC  C31417709   1.665   6.596   5.022  0.0325 -0.1187  0.3519
  148DOPC  H14X17710   1.575   6.630   4.966  1.3839  0.0306 -1.8328
  148DOPC  H14Y17711   1.690   6.663   5.107 -0.3556 -0.5389  0.8055
  148DOPC  C31517712   1.792   6.588   4.924  0.5722  0.2661  0.7909
  148DOPC  H15X17713   1.783   6.515   4.841 -0.6193  1.0645  0.1865
  148DOPC  H15Y17714   1.877   6.552   4.987 -0.3675 -2.1684  0.7526
  148DOPC  C31617715   1.845   6.726   4.869 -0.1113  0.3021 -0.1373
  148DOPC  H16X17716   1.811   6.733   4.763  1.3083  0.7111 -0.5900
  148DOPC  H16Y17717   1.815   6.809   4.937 -0.1649  2.1519 -2.2806
  148DOPC  C31717718   1.997   6.729   4.853  0.1699 -0.1547 -0.6923
  148DOPC  H17X17719   2.045   6.673   4.936  0.4982 -3.3867 -2.8428
  148DOPC  H17Y17720   2.033   6.678   4.761  1.6252  1.4944 -1.0829
  148DOPC  C31817721   2.052   6.866   4.846  0.1718  0.6815 -0.0623
  148DOPC  H18X17722   2.005   6.912   4.757 -0.7599 -1.7368 -0.8867
  148DOPC  H18Y17723   2.038   6.932   4.934  1.2565  1.3303 -0.3513
  148DOPC  H18Z17724   2.163   6.859   4.833  0.0882 -0.2654 -0.3140
  149DOPC     N17725   2.269   2.458   7.386 -0.7337 -0.1811  0.4853
  149DOPC   C1217726   2.357   2.463   7.260 -0.3416  0.5925 -0.1845
  149DOPC  H12A17727   2.364   2.363   7.221 -1.1734 -0.0151  1.1302
  149DOPC  H12B17728   2.456   2.499   7.284 -0.3256 -0.5753  1.7430
  149DOPC   C1317729   2.268   2.584   7.457  0.2300 -0.3586 -0.3551
  149DOPC  H13A17730   2.230   2.658   7.388 -0.9782 -0.4359  0.1975
  149DOPC  H13B17731   2.183   2.575   7.523  0.9753  0.8696  0.8315
  149DOPC  H13C17732   2.356   2.627   7.503 -0.0698  0.4025 -0.4801
  149DOPC   C1417733   2.313   2.357   7.481 -0.1071  0.3674  0.0609
  149DOPC  H14A17734   2.230   2.336   7.548 -0.4592  0.7164 -0.2603
  149DOPC  H14B17735   2.351   2.268   7.432  0.0426  0.8519 -0.7256
  149DOPC  H14C17736   2.390   2.393   7.547 -0.7398 -1.0223  1.6236
  149DOPC   C1517737   2.122   2.433   7.340  0.1864 -0.0132 -0.2824
  149DOPC  H15A17738   2.092   2.519   7.282 -0.6624 -0.2139 -0.1622
  149DOPC  H15B17739   2.045   2.432   7.416 -2.0495 -0.7208 -2.4065
  149DOPC  H15C17740   2.115   2.347   7.274  1.5537  0.5147 -1.1653
  149DOPC   C1117741   2.312   2.568   7.158 -0.5065  0.4624 -0.1773
  149DOPC  H11A17742   2.386   2.574   7.075 -1.4730  3.1711 -0.9631
  149DOPC  H11B17743   2.214   2.531   7.120 -1.6998  1.5376  1.7069
  149DOPC     P17744   2.206   2.798   7.144  0.1186 -0.6698 -0.2023
  149DOPC   O1317745   2.226   2.941   7.175 -0.2129 -0.1520  0.2532
  149DOPC   O1417746   2.074   2.746   7.183  0.1047 -0.0906  0.2775
  149DOPC   O1217747   2.319   2.706   7.214 -0.1151 -0.0298 -0.1238
  149DOPC   O1117748   2.229   2.772   6.988 -0.1409  0.0067  0.5783
  149DOPC    C117749   2.123   2.819   6.899 -0.3739 -0.1680 -0.2947
  149DOPC    HA17750   2.118   2.930   6.892 -0.3773 -0.1716 -0.3461
  149DOPC    HB17751   2.021   2.792   6.933 -1.2718  1.1445 -1.7876
  149DOPC    C217752   2.158   2.781   6.747 -0.0552  0.5774  0.4903
  149DOPC    HS17753   2.259   2.824   6.729 -0.3374  0.7336 -0.8854
  149DOPC   O2117754   2.062   2.854   6.659 -0.0918  0.0843 -0.0950
  149DOPC   C2117755   2.110   2.894   6.538 -0.1952  0.4028 -0.0685
  149DOPC   O2217756   2.222   2.868   6.493 -0.1756 -0.5847 -0.1802
  149DOPC   C2217757   1.999   2.961   6.457  0.5218  0.1598  0.0374
  149DOPC   H2R17758   2.020   3.070   6.457  2.1593 -0.1308  0.2233
  149DOPC   H2S17759   1.906   2.969   6.518  0.8174  4.8655  0.2917
  149DOPC    C317760   2.159   2.618   6.734  0.2110 -0.0202 -0.4550
  149DOPC    HX17761   2.052   2.593   6.752  0.3759 -0.9495 -0.7376
  149DOPC    HY17762   2.225   2.568   6.808 -3.1769 -0.7740  2.3281
  149DOPC   O3117763   2.199   2.571   6.608  0.2381  0.2517  0.4804
  149DOPC   C3117764   2.331   2.578   6.581  0.4699 -0.3888  0.4420
  149DOPC   O3217765   2.415   2.624   6.657 -0.0911 -0.3858 -0.6609
  149DOPC   C3217766   2.364   2.515   6.448  0.8551  0.1529  0.1607
  149DOPC   H2X17767   2.468   2.546   6.426  0.7349 -0.3456 -1.2028
  149DOPC   H2Y17768   2.362   2.407   6.474 -2.0637 -0.2283 -1.2018
  149DOPC   C2317769   1.999   2.904   6.307 -0.7193 -0.1082  0.1859
  149DOPC   H3R17770   2.004   2.793   6.301  1.8291  0.0242 -1.5010
  149DOPC   H3S17771   2.093   2.940   6.260  0.3462 -0.7448  1.7782
  149DOPC   C2417772   1.877   2.955   6.233  0.9214  0.3490  0.1167
  149DOPC   H4R17773   1.872   3.064   6.256 -1.2229  0.2531  0.2352
  149DOPC   H4S17774   1.792   2.902   6.281  0.7740  0.4077 -0.0820
  149DOPC   C2517775   1.879   2.927   6.086 -0.1539 -0.6043 -0.4809
  149DOPC   H5R17776   1.858   2.819   6.070 -1.6206 -0.4882  0.4913
  149DOPC   H5S17777   1.986   2.945   6.061  0.2761 -0.4015  1.3264
  149DOPC   C2617778   1.788   3.014   5.999 -0.1178 -0.5659 -0.3183
  149DOPC   H6R17779   1.824   3.015   5.894  2.9422  1.2039  0.6346
  149DOPC   H6S17780   1.793   3.119   6.035 -1.4728 -0.9557  1.1205
  149DOPC   C2717781   1.651   2.956   6.013 -0.3938  0.2566 -0.1880
  149DOPC   H7R17782   1.596   3.005   6.097 -0.3805 -0.5559  0.3001
  149DOPC   H7S17783   1.651   2.851   6.049 -0.4103 -0.0414 -1.0453
  149DOPC   C2817784   1.558   2.980   5.893  0.0243  0.8787 -0.0576
  149DOPC   H8R17785   1.624   2.937   5.815  1.9406  1.5304  1.1408
  149DOPC   H8S17786   1.557   3.088   5.865 -1.0554  1.2898  1.4300
  149DOPC   C2917787   1.421   2.920   5.897  0.0675 -0.3722  0.3617
  149DOPC   H9R17788   1.381   2.940   5.997  2.4379 -0.4260  1.3925
  149DOPC  C21017789   1.373   2.837   5.805  0.6666 -0.9304  0.1881
  149DOPC  H10R17790   1.274   2.793   5.822 -0.4647  1.1645 -0.6086
  149DOPC  C21117791   1.429   2.810   5.668  0.2151  0.0959 -0.2365
  149DOPC  H11R17792   1.486   2.715   5.677  1.7279  1.0173  0.1583
  149DOPC  H11S17793   1.497   2.887   5.627 -1.0326  1.0227 -0.6424
  149DOPC  C21217794   1.317   2.779   5.564  0.2069 -0.4969 -0.1758
  149DOPC  H12R17795   1.243   2.861   5.575 -0.6345 -1.1494 -0.8909
  149DOPC  H12S17796   1.261   2.689   5.597  1.5847 -2.0194 -1.8195
  149DOPC  C21317797   1.378   2.775   5.421 -0.4064  0.0764 -0.4695
  149DOPC  H13R17798   1.451   2.691   5.416 -0.7826 -0.4227  1.5645
  149DOPC  H13S17799   1.421   2.876   5.403 -1.0774  0.1970 -1.4686
  149DOPC  C21417800   1.277   2.737   5.317 -0.4838  0.0054  0.2961
  149DOPC  H14R17801   1.195   2.807   5.289 -1.6567 -2.0050 -1.6824
  149DOPC  H14S17802   1.226   2.649   5.363  2.6305 -1.5366  1.0625
  149DOPC  C21517803   1.339   2.693   5.188 -0.2143  0.2339  0.0121
  149DOPC  H15R17804   1.263   2.637   5.130  2.6619 -0.1249 -3.7560
  149DOPC  H15S17805   1.435   2.639   5.202  0.1279  0.9394  0.4187
  149DOPC  C21617806   1.371   2.810   5.098 -0.4443 -0.2565 -0.4465
  149DOPC  H16R17807   1.461   2.864   5.137 -0.5666  0.4123 -1.0584
  149DOPC  H16S17808   1.288   2.883   5.088  0.1349  0.5769  0.5962
  149DOPC  C21717809   1.392   2.756   4.955  0.1126 -0.2376 -0.3363
  149DOPC  H17R17810   1.295   2.715   4.917  0.0767 -1.1887  0.7503
  149DOPC  H17S17811   1.459   2.668   4.962 -0.1512 -0.4427 -0.3983
  149DOPC  C21817812   1.457   2.856   4.857  0.2425  0.3338  0.1610
  149DOPC  H18R17813   1.532   2.909   4.919  0.4121 -0.4503  0.6334
  149DOPC  H18S17814   1.380   2.929   4.822 -1.5694 -0.8282  1.5075
  149DOPC  H18T17815   1.502   2.814   4.765 -0.3344  0.1103 -0.0257
  149DOPC   C3317816   2.255   2.537   6.337  0.0324  0.1259  0.1717
  149DOPC   H3X17817   2.155   2.574   6.370  0.3586  0.9145  0.3124
  149DOPC   H3Y17818   2.235   2.435   6.299  1.9675  0.1207 -0.9438
  149DOPC   C3417819   2.301   2.619   6.216  0.5476  0.5905 -0.2942
  149DOPC   H4X17820   2.405   2.596   6.186  0.5697  0.5079 -0.1553
  149DOPC   H4Y17821   2.292   2.726   6.246  1.3692 -0.1533  2.9732
  149DOPC   C3517822   2.200   2.607   6.098  0.1123 -0.0196 -0.1349
  149DOPC   H5X17823   2.110   2.670   6.117 -0.5050 -1.4939  2.3542
  149DOPC   H5Y17824   2.159   2.504   6.089 -1.2358  0.5154 -0.4660
  149DOPC   C3617825   2.272   2.664   5.971 -0.3001 -0.1556  0.6040
  149DOPC   H6X17826   2.301   2.768   5.995 -1.0763  0.1951  0.0415
  149DOPC   H6Y17827   2.362   2.603   5.948 -1.1362 -1.9793  1.9429
  149DOPC   C3717828   2.177   2.660   5.847 -0.2337  0.2126 -0.3530
  149DOPC   H7X17829   2.136   2.560   5.819 -1.2201  0.2483  0.9004
  149DOPC   H7Y17830   2.084   2.715   5.873 -0.9121 -1.1804  0.2533
  149DOPC   C3817831   2.231   2.740   5.729 -0.1107 -0.1522 -0.3045
  149DOPC   H8X17832   2.272   2.834   5.773 -1.6738  0.2796  0.2815
  149DOPC   H8Y17833   2.144   2.777   5.671  0.6820  2.0029 -0.2128
  149DOPC   C3917834   2.333   2.690   5.631 -0.3678  0.6594  0.3636
  149DOPC   H9X17835   2.434   2.681   5.674 -0.2132  3.5006  0.8133
  149DOPC  C31017836   2.311   2.637   5.507 -0.7832 -0.4804  0.1814
  149DOPC  H10X17837   2.389   2.573   5.464  0.0181 -0.4028  1.4524
  149DOPC  C31117838   2.176   2.617   5.440 -0.1200 -0.7044  0.0708
  149DOPC  H11X17839   2.157   2.707   5.378  0.7663  0.5039  1.5280
  149DOPC  H11Y17840   2.101   2.620   5.522 -1.2418  0.4235 -0.9459
  149DOPC  C31217841   2.144   2.486   5.364  0.9585 -0.4926  0.2849
  149DOPC  H12X17842   2.033   2.485   5.355  0.7188 -1.5265  2.5666
  149DOPC  H12Y17843   2.171   2.405   5.435 -0.1628  0.6158  2.0361
  149DOPC  C31317844   2.209   2.469   5.222 -0.0691  0.3242  0.2794
  149DOPC  H13X17845   2.197   2.562   5.162 -0.2484  1.3195  1.8140
  149DOPC  H13Y17846   2.320   2.470   5.232  0.0748  0.0235 -1.0227
  149DOPC  C31417847   2.156   2.361   5.129 -0.6058 -0.1157 -0.1091
  149DOPC  H14X17848   2.049   2.371   5.102 -0.9243  1.0229  1.4014
  149DOPC  H14Y17849   2.208   2.373   5.032 -1.7055  2.1876 -0.4790
  149DOPC  C31517850   2.208   2.223   5.175  0.3645 -0.1447 -0.0342
  149DOPC  H15X17851   2.158   2.201   5.272 -2.3535 -1.1942 -1.5808
  149DOPC  H15Y17852   2.317   2.222   5.200  0.2385  0.1643  0.5539
  149DOPC  C31617853   2.169   2.113   5.079 -0.4791 -0.4449 -0.0297
  149DOPC  H16X17854   2.163   2.021   5.140  0.3390  1.3413  2.9570
  149DOPC  H16Y17855   2.063   2.128   5.048 -0.2300 -1.1340 -1.2794
  149DOPC  C31717856   2.254   2.107   4.954 -0.4381  0.1924  0.0933
  149DOPC  H17X17857   2.225   2.190   4.886  1.2763  0.1983 -0.6811
  149DOPC  H17Y17858   2.360   2.122   4.984 -0.7808  1.0767  0.9362
  149DOPC  C31817859   2.218   1.974   4.885  0.0546  0.3032  0.6034
  149DOPC  H18X17860   2.107   1.966   4.889 -0.1909  2.6113 -0.0823
  149DOPC  H18Y17861   2.237   1.970   4.776 -1.5797 -0.3587  0.3052
  149DOPC  H18Z17862   2.254   1.887   4.943 -0.0893 -1.3915 -1.7336
  150DOPC     N17863   5.121   4.807   7.658 -0.6198  0.8708 -0.4119
  150DOPC   C1217864   5.117   4.934   7.570  0.5739  0.1065  0.4490
  150DOPC  H12A17865   5.195   4.927   7.495 -0.5169  1.6751 -0.9082
  150DOPC  H12B17866   5.129   5.023   7.629 -0.0756 -0.1118  0.9127
  150DOPC   C1317867   5.033   4.698   7.598  0.1181 -0.1132  0.5975
  150DOPC  H13A17868   5.076   4.651   7.511 -0.1664 -1.0531  0.9470
  150DOPC  H13B17869   5.031   4.627   7.680 -1.6651 -2.1647 -1.0907
  150DOPC  H13C17870   4.939   4.748   7.582  0.9466  1.8047  1.4590
  150DOPC   C1417871   5.051   4.843   7.788 -0.5532 -0.2616  0.1899
  150DOPC  H14A17872   4.957   4.892   7.765  0.9334  2.2947 -0.8658
  150DOPC  H14B17873   5.034   4.763   7.858 -0.0402  0.4643  1.1709
  150DOPC  H14C17874   5.105   4.925   7.834 -1.7506  0.3890  0.4725
  150DOPC   C1517875   5.261   4.754   7.684  0.3960 -0.0247  0.2418
  150DOPC  H15A17876   5.336   4.831   7.694 -0.3543  0.9733 -1.3498
  150DOPC  H15B17877   5.300   4.709   7.594 -0.8633  2.4911 -1.7040
  150DOPC  H15C17878   5.269   4.681   7.764 -2.7573 -1.7346 -0.8143
  150DOPC   C1117879   4.988   4.966   7.499  0.3061 -0.4642  0.5683
  150DOPC  H11A17880   5.007   5.050   7.429 -1.6827 -0.7852 -0.4168
  150DOPC  H11B17881   4.966   4.881   7.431  0.2256  2.0516 -2.8030
  150DOPC     P17882   4.741   4.951   7.582 -0.0991  0.3311 -0.1505
  150DOPC   O1317883   4.640   5.052   7.626  0.5236 -0.0703  0.0207
  150DOPC   O1417884   4.747   4.822   7.649 -0.1805  0.3459  0.2269
  150DOPC   O1217885   4.887   5.000   7.592 -0.3945 -0.3824 -0.0808
  150DOPC   O1117886   4.724   4.928   7.425  0.2148 -0.0031 -0.0083
  150DOPC    C117887   4.681   4.802   7.367  0.8613  0.7538 -0.4506
  150DOPC    HA17888   4.626   4.824   7.273  0.8386  0.8916 -0.4042
  150DOPC    HB17889   4.621   4.745   7.442  0.7102  1.5988  0.0812
  150DOPC    C217890   4.792   4.716   7.305 -0.3767 -0.5827 -0.3996
  150DOPC    HS17891   4.874   4.701   7.379  1.0926  4.4776 -0.5665
  150DOPC   O2117892   4.839   4.794   7.190  0.0079 -0.6502 -0.4825
  150DOPC   C2117893   4.967   4.785   7.156  0.1629 -0.0195 -1.0966
  150DOPC   O2217894   5.054   4.738   7.223  0.2371  0.2494  0.3928
  150DOPC   C2217895   4.992   4.870   7.033 -0.0425  0.8235  0.4377
  150DOPC   H2R17896   5.001   4.975   7.070  2.7257  0.2332  1.6648
  150DOPC   H2S17897   4.899   4.876   6.973  3.0362 -2.2170 -5.5297
  150DOPC    C317898   4.742   4.576   7.259  0.2065  0.6206 -0.0332
  150DOPC    HX17899   4.676   4.601   7.173  0.5360 -0.1368 -0.5130
  150DOPC    HY17900   4.681   4.525   7.337 -0.3862  0.9378 -0.2824
  150DOPC   O3117901   4.850   4.500   7.201  0.2033 -0.5533 -0.7962
  150DOPC   C3117902   4.916   4.426   7.291 -0.0550 -0.1046 -0.0738
  150DOPC   O3217903   4.885   4.425   7.408 -1.0007  0.0525  0.1232
  150DOPC   C3217904   5.030   4.338   7.225 -0.9830 -0.5126  0.4956
  150DOPC   H2X17905   5.090   4.300   7.311 -2.1183 -4.2662 -0.1799
  150DOPC   H2Y17906   4.985   4.247   7.179 -1.1510 -0.4401  0.5176
  150DOPC   C2317907   5.115   4.820   6.963  0.6185  0.4704  0.6437
  150DOPC   H3R17908   5.104   4.719   6.918  0.5151  1.6244 -2.1826
  150DOPC   H3S17909   5.190   4.810   7.044  0.6613 -1.2601  0.4184
  150DOPC   C2417910   5.164   4.922   6.855 -0.1680  0.4977 -1.0599
  150DOPC   H4R17911   5.195   5.014   6.909 -0.3724 -0.5838  1.0092
  150DOPC   H4S17912   5.081   4.957   6.790 -1.0895  1.3310  0.5216
  150DOPC   C2517913   5.274   4.878   6.757 -0.0323 -0.2272 -0.3289
  150DOPC   H5R17914   5.370   4.866   6.812  1.1792 -0.8317 -2.4773
  150DOPC   H5S17915   5.291   4.958   6.682  2.8959 -0.0542  0.4076
  150DOPC   C2617916   5.233   4.746   6.694  0.2778  0.3680  0.0201
  150DOPC   H6R17917   5.127   4.742   6.662 -0.3582  0.4890  1.9572
  150DOPC   H6S17918   5.234   4.671   6.775  3.4619  0.7115  0.4403
  150DOPC   C2717919   5.330   4.696   6.586  0.2535 -0.8015 -0.3310
  150DOPC   H7R17920   5.437   4.686   6.613 -0.1876 -1.7961  1.1715
  150DOPC   H7S17921   5.329   4.764   6.498  0.6313 -0.0719  0.2158
  150DOPC   C2817922   5.301   4.554   6.536 -0.4204  0.2006 -0.7033
  150DOPC   H8R17923   5.298   4.486   6.624 -0.3677  0.4040 -0.5424
  150DOPC   H8S17924   5.382   4.519   6.470  1.4127  0.4619  1.2842
  150DOPC   C2917925   5.175   4.547   6.453  0.5676 -0.4610 -0.1475
  150DOPC   H9R17926   5.175   4.615   6.367  0.6736 -1.3191 -0.8296
  150DOPC  C21017927   5.068   4.472   6.480  0.5768  0.2502  0.2704
  150DOPC  H10R17928   4.984   4.483   6.410  0.3143  1.7300  0.7777
  150DOPC  C21117929   5.041   4.375   6.594 -0.1046  0.0079  0.4013
  150DOPC  H11R17930   4.962   4.414   6.661 -1.8347  0.9745 -2.0525
  150DOPC  H11S17931   5.132   4.381   6.658  0.6083  0.3951 -0.6134
  150DOPC  C21217932   5.004   4.239   6.538 -0.2176  0.6487 -0.2000
  150DOPC  H12R17933   4.909   4.244   6.480 -0.3148 -3.7223 -0.7345
  150DOPC  H12S17934   4.980   4.169   6.621  0.6617  1.5838  0.8905
  150DOPC  C21317935   5.112   4.179   6.451 -0.0485  0.1635 -0.5258
  150DOPC  H13R17936   5.212   4.199   6.495 -0.5809  2.0515 -0.0664
  150DOPC  H13S17937   5.102   4.235   6.356 -0.6444  0.1224 -0.4933
  150DOPC  C21417938   5.083   4.029   6.432 -0.4903  0.5340  0.4597
  150DOPC  H14R17939   4.991   4.016   6.370 -0.2653 -2.9424  0.6803
  150DOPC  H14S17940   5.070   3.989   6.535 -1.3035  0.5990  0.3876
  150DOPC  C21517941   5.209   3.972   6.356  0.6862 -0.2387 -0.6626
  150DOPC  H15R17942   5.295   3.989   6.423  0.8346  2.3250 -1.4033
  150DOPC  H15S17943   5.226   4.033   6.264  2.9899 -2.4125 -1.7758
  150DOPC  C21617944   5.191   3.825   6.317 -0.2492  0.1533 -0.3611
  150DOPC  H16R17945   5.110   3.831   6.241 -0.4348 -1.8116 -0.3916
  150DOPC  H16S17946   5.160   3.767   6.407  1.6055 -0.0015  0.2234
  150DOPC  C21717947   5.313   3.761   6.253  0.4518 -0.1591  0.6374
  150DOPC  H17R17948   5.299   3.651   6.267 -2.1379 -0.0695 -0.7069
  150DOPC  H17S17949   5.405   3.776   6.315  0.0026 -1.5547  1.7005
  150DOPC  C21817950   5.327   3.793   6.106 -0.3356 -0.1918 -0.2749
  150DOPC  H18R17951   5.407   3.732   6.058  0.2699  0.2645  0.1445
  150DOPC  H18S17952   5.362   3.897   6.090  0.4824 -0.4429 -0.1265
  150DOPC  H18T17953   5.232   3.761   6.058 -0.5708 -0.0055  0.0602
  150DOPC   C3317954   5.131   4.410   7.129 -0.1525 -0.2001 -0.5166
  150DOPC   H3X17955   5.207   4.474   7.180  0.0492 -0.2349 -0.7690
  150DOPC   H3Y17956   5.079   4.476   7.056 -0.4431 -1.1293 -1.1657
  150DOPC   C3417957   5.229   4.323   7.044 -0.0779  0.4708 -0.2863
  150DOPC   H4X17958   5.269   4.243   7.111  0.3303  1.2580  0.4251
  150DOPC   H4Y17959   5.310   4.384   6.999  0.6474 -0.4739 -0.2844
  150DOPC   C3517960   5.162   4.260   6.921  0.8647 -0.2212 -1.0179
  150DOPC   H5X17961   5.109   4.343   6.869 -0.9187 -1.3018 -1.0129
  150DOPC   H5Y17962   5.078   4.199   6.960  0.5987  0.9315  0.2808
  150DOPC   C3617963   5.256   4.193   6.828  0.2536 -0.1077  0.2342
  150DOPC   H6X17964   5.203   4.154   6.738 -1.2498 -0.2954  1.1566
  150DOPC   H6Y17965   5.328   4.272   6.797 -1.4066  1.5423  0.3685
  150DOPC   C3717966   5.338   4.085   6.905 -0.1764  0.9709  0.0860
  150DOPC   H7X17967   5.345   4.101   7.014  0.8809  1.3064 -0.0198
  150DOPC   H7Y17968   5.286   3.990   6.881  3.3942 -1.6298  1.6639
  150DOPC   C3817969   5.483   4.085   6.848 -0.2349  0.5040  0.1413
  150DOPC   H8X17970   5.483   4.075   6.737 -0.5323 -1.7842  0.2943
  150DOPC   H8Y17971   5.529   3.988   6.876 -1.8236 -0.2946  0.0468
  150DOPC   C3917972   5.579   4.195   6.898  0.1847  0.4400 -0.2142
  150DOPC   H9X17973   5.605   4.166   7.001  0.8672  0.0766 -0.4782
  150DOPC  C31017974   5.627   4.302   6.825 -0.2084  0.0255 -0.3562
  150DOPC  H10X17975   5.699   4.374   6.868  0.7126  0.0616 -1.8927
  150DOPC  C31117976   5.594   4.332   6.681 -0.3628  0.2167  0.3463
  150DOPC  H11X17977   5.542   4.429   6.690 -1.6385 -0.4539  0.5103
  150DOPC  H11Y17978   5.522   4.258   6.640 -0.0624  1.1076 -1.9402
  150DOPC  C31217979   5.717   4.334   6.587  0.5113 -0.3028  0.6719
  150DOPC  H12X17980   5.762   4.233   6.574  2.5714  0.8050 -1.7388
  150DOPC  H12Y17981   5.792   4.401   6.633  0.5324  0.6256 -0.6818
  150DOPC  C31317982   5.689   4.377   6.441 -0.2475 -0.0979 -0.0069
  150DOPC  H13X17983   5.682   4.488   6.443  1.2945  0.1874 -3.1803
  150DOPC  H13Y17984   5.775   4.354   6.375  1.1377  0.4292  1.5568
  150DOPC  C31417985   5.568   4.319   6.370  0.0804  0.8644  0.9784
  150DOPC  H14X17986   5.560   4.208   6.365  0.4990  0.8685 -0.0720
  150DOPC  H14Y17987   5.478   4.358   6.423  0.0414  2.3065 -0.0782
  150DOPC  C31517988   5.554   4.355   6.218 -0.1472  0.0518  0.4990
  150DOPC  H15X17989   5.598   4.273   6.158  0.6423  0.2589  0.7867
  150DOPC  H15Y17990   5.613   4.445   6.191 -1.5793  0.0409 -3.2492
  150DOPC  C31617991   5.412   4.387   6.166  0.8566  0.5562 -0.3657
  150DOPC  H16X17992   5.348   4.420   6.250  0.3469 -1.2000 -0.0093
  150DOPC  H16Y17993   5.425   4.475   6.100  1.4733 -0.9906 -2.4343
  150DOPC  C31717994   5.364   4.274   6.086  0.0071  0.2997  0.3245
  150DOPC  H17X17995   5.447   4.258   6.014  0.5786  1.1626  0.7773
  150DOPC  H17Y17996   5.357   4.181   6.145  2.0360  1.8880  3.3254
  150DOPC  C31817997   5.233   4.302   6.014 -0.5093 -0.0560  0.4525
  150DOPC  H18X17998   5.215   4.220   5.941 -0.1058 -1.4924  1.8881
  150DOPC  H18Y17999   5.151   4.310   6.087 -0.4952 -2.8478  0.9039
  150DOPC  H18Z18000   5.259   4.400   5.968  0.8302 -0.0371  1.1886
  151DOPC     N18001   1.718   3.624   7.003 -0.6441  0.0245  0.2119
  151DOPC   C1218002   1.620   3.735   6.965 -0.3716  1.0255 -0.6851
  151DOPC  H12A18003   1.664   3.797   6.888  0.9877  2.1695  0.9316
  151DOPC  H12B18004   1.597   3.797   7.051 -0.4692 -0.6968  0.5922
  151DOPC   C1318005   1.836   3.690   7.068  0.1171  0.1118  0.5647
  151DOPC  H13A18006   1.811   3.753   7.152 -0.8693  1.0522 -0.4069
  151DOPC  H13B18007   1.909   3.617   7.097  1.0681  0.1285 -1.5955
  151DOPC  H13C18008   1.875   3.766   7.002  1.2428  0.2459  1.3509
  151DOPC   C1418009   1.758   3.540   6.886 -0.2659  0.6836 -0.0320
  151DOPC  H14A18010   1.807   3.607   6.817  0.4535 -0.2475 -0.4662
  151DOPC  H14B18011   1.834   3.467   6.912 -1.3322 -0.1518  0.7960
  151DOPC  H14C18012   1.685   3.483   6.830 -1.5237  0.8788  1.3732
  151DOPC   C1518013   1.654   3.531   7.103 -0.2836  0.1978  0.5771
  151DOPC  H15A18014   1.608   3.584   7.186 -3.5220  0.0248 -0.9781
  151DOPC  H15B18015   1.725   3.453   7.126 -0.3942 -0.6772 -1.8624
  151DOPC  H15C18016   1.577   3.473   7.055  0.9102 -0.9351 -0.0333
  151DOPC   C1118017   1.480   3.694   6.914 -0.1943 -0.1634 -0.4003
  151DOPC  H11A18018   1.446   3.781   6.855 -0.7389 -1.1906 -1.6649
  151DOPC  H11B18019   1.481   3.605   6.847 -1.3484  0.6168 -1.4888
  151DOPC     P18020   1.329   3.773   7.113  0.2037 -0.1330 -0.2344
  151DOPC   O1318021   1.440   3.873   7.146 -0.0705  0.4519 -0.1075
  151DOPC   O1418022   1.252   3.705   7.224  0.4695 -0.4210 -0.0151
  151DOPC   O1218023   1.392   3.657   7.027 -0.5112 -0.0276  0.0048
  151DOPC   O1118024   1.227   3.851   7.017 -0.2773 -0.5474 -0.0010
  151DOPC    C118025   1.087   3.845   7.043  0.3672 -0.4969 -0.3404
  151DOPC    HA18026   1.077   3.892   7.144  3.8270  3.2338 -1.4526
  151DOPC    HB18027   1.054   3.739   7.046  0.7452 -0.6868 -2.2159
  151DOPC    C218028   1.005   3.923   6.939  0.2390 -0.3054 -0.4516
  151DOPC    HS18029   0.898   3.894   6.950  0.0332  0.5100 -0.2627
  151DOPC   O2118030   1.052   3.897   6.801 -0.3481 -0.0919 -0.6326
  151DOPC   C2118031   1.037   3.770   6.773  0.8053  0.6457 -0.3457
  151DOPC   O2218032   0.977   3.687   6.844 -0.2389 -0.2740  0.2495
  151DOPC   C2218033   1.089   3.744   6.634 -0.2528  0.4592 -0.0355
  151DOPC   H2R18034   1.082   3.841   6.580 -3.6756 -0.0902 -0.8435
  151DOPC   H2S18035   1.025   3.661   6.596  0.0261  0.5964 -0.8243
  151DOPC    C318036   1.006   4.071   6.955 -0.5226 -0.4932 -1.3655
  151DOPC    HX18037   1.110   4.108   6.950 -0.7784  0.2272 -1.4591
  151DOPC    HY18038   0.959   4.105   7.049  3.4599  0.4129  0.4948
  151DOPC   O3118039   0.926   4.126   6.858  0.0271  0.3767  0.2208
  151DOPC   C3118040   0.975   4.205   6.771 -0.3344  0.4285  0.0243
  151DOPC   O3218041   1.094   4.241   6.769  0.6596 -0.1019 -0.5266
  151DOPC   C3218042   0.857   4.260   6.685  0.1994  0.2840  0.2718
  151DOPC   H2X18043   0.791   4.172   6.673  1.9295 -1.0186  0.0247
  151DOPC   H2Y18044   0.810   4.329   6.758 -0.7786 -1.2088  1.1031
  151DOPC   C2318045   1.236   3.705   6.642 -0.6232  0.3916 -0.2654
  151DOPC   H3R18046   1.254   3.623   6.715  0.7142  0.9918  0.1219
  151DOPC   H3S18047   1.291   3.794   6.682 -1.7527  0.4150  1.3236
  151DOPC   C2418048   1.304   3.665   6.510 -0.1294 -0.2827  0.5560
  151DOPC   H4R18049   1.414   3.673   6.522 -0.1374 -2.0646  2.3155
  151DOPC   H4S18050   1.271   3.746   6.441 -0.7044 -0.0319  1.1115
  151DOPC   C2518051   1.262   3.527   6.464 -0.5663 -0.1993  0.3775
  151DOPC   H5R18052   1.157   3.529   6.430 -0.4359  0.5115  0.0048
  151DOPC   H5S18053   1.265   3.470   6.560 -2.6472  0.3476  0.8146
  151DOPC   C2618054   1.363   3.470   6.358  0.4808  0.6327  0.1588
  151DOPC   H6R18055   1.466   3.488   6.398  1.0235  0.2015 -0.9908
  151DOPC   H6S18056   1.338   3.530   6.268 -1.0239  1.2007  0.9369
  151DOPC   C2718057   1.342   3.311   6.337  0.0195 -0.7242  0.3670
  151DOPC   H7R18058   1.234   3.291   6.319 -0.1393  1.3880 -1.5222
  151DOPC   H7S18059   1.367   3.246   6.423  0.7917 -0.8785  0.0404
  151DOPC   C2818060   1.417   3.265   6.214 -0.0269  0.2156  0.2420
  151DOPC   H8R18061   1.383   3.320   6.123  1.5423 -0.4010 -0.7491
  151DOPC   H8S18062   1.401   3.157   6.194  0.6582  0.6437 -3.2434
  151DOPC   C2918063   1.561   3.300   6.242  0.3347 -0.6236 -0.0963
  151DOPC   H9R18064   1.609   3.245   6.324 -0.7837 -1.9275 -0.2875
  151DOPC  C21018065   1.632   3.385   6.167 -0.1923 -0.3385  0.0900
  151DOPC  H10R18066   1.739   3.396   6.189 -0.2384 -1.3972  0.9449
  151DOPC  C21118067   1.587   3.461   6.042  0.0489 -0.6379 -0.1057
  151DOPC  H11R18068   1.662   3.537   6.009 -0.1675  1.7324  4.1436
  151DOPC  H11S18069   1.495   3.522   6.058  1.4045  1.5611 -0.3344
  151DOPC  C21218070   1.574   3.367   5.920 -0.1192 -0.2608  0.1401
  151DOPC  H12R18071   1.495   3.290   5.933  0.1296 -0.3251  1.3771
  151DOPC  H12S18072   1.673   3.316   5.918 -0.2193 -0.4481 -0.1285
  151DOPC  C21318073   1.548   3.441   5.787  0.6244  0.1963 -0.2146
  151DOPC  H13R18074   1.637   3.506   5.777  0.6030  0.1770 -0.5240
  151DOPC  H13S18075   1.458   3.505   5.801 -1.1912 -2.5085  1.7434
  151DOPC  C21418076   1.528   3.347   5.670 -0.5306 -0.0023 -0.1668
  151DOPC  H14R18077   1.435   3.287   5.688  0.7574 -1.7818  0.9353
  151DOPC  H14S18078   1.617   3.284   5.650  0.6072  1.8937 -1.3676
  151DOPC  C21518079   1.515   3.416   5.531  0.3204  0.1457 -0.2568
  151DOPC  H15R18080   1.604   3.482   5.526 -0.6733  1.4446 -2.0223
  151DOPC  H15S18081   1.422   3.476   5.534 -0.3137 -0.8509  0.5551
  151DOPC  C21618082   1.518   3.321   5.406  0.2821 -0.2209 -0.0879
  151DOPC  H16R18083   1.617   3.273   5.425  0.7071  1.1763  1.4953
  151DOPC  H16S18084   1.519   3.375   5.309 -2.1673  0.0983  0.0053
  151DOPC  C21718085   1.398   3.228   5.409 -0.8237 -0.3157  0.5839
  151DOPC  H17R18086   1.304   3.286   5.398 -1.4370 -1.2208  0.9620
  151DOPC  H17S18087   1.393   3.167   5.502  1.4416 -0.5069  0.6461
  151DOPC  C21818088   1.402   3.131   5.291 -0.1671  0.9628  0.6561
  151DOPC  H18R18089   1.399   3.186   5.194  1.6635 -0.0635 -0.0215
  151DOPC  H18S18090   1.310   3.071   5.308 -0.4221  1.6083  1.6271
  151DOPC  H18T18091   1.490   3.064   5.296  0.9280  2.4462  3.7994
  151DOPC   C3318092   0.916   4.319   6.560  0.3962 -0.4068 -0.1217
  151DOPC   H3X18093   1.004   4.386   6.568  2.4755 -3.1480  1.8590
  151DOPC   H3Y18094   0.834   4.380   6.516 -0.6586  1.0829  3.5226
  151DOPC   C3418095   0.946   4.219   6.454  0.5610 -0.7590 -0.6392
  151DOPC   H4X18096   0.861   4.147   6.444  0.7748 -0.9225 -1.3609
  151DOPC   H4Y18097   1.039   4.163   6.477  0.9106  0.3682  0.8020
  151DOPC   C3518098   0.958   4.285   6.318 -0.3298  0.0720  0.4867
  151DOPC   H5X18099   1.055   4.339   6.309 -1.1420  1.3714 -1.2470
  151DOPC   H5Y18100   0.882   4.365   6.309 -0.6673 -0.1472  1.3428
  151DOPC   C3618101   0.949   4.187   6.201 -0.4715  0.8697 -0.6079
  151DOPC   H6X18102   1.014   4.097   6.210  1.5186  2.3208  0.3476
  151DOPC   H6Y18103   0.848   4.142   6.196 -1.6560  3.4527 -1.6719
  151DOPC   C3718104   0.990   4.248   6.066 -0.5393 -0.3692  0.1835
  151DOPC   H7X18105   0.919   4.328   6.036 -1.9138 -1.8475 -0.6462
  151DOPC   H7Y18106   1.088   4.294   6.092 -0.7921  1.0927 -1.2969
  151DOPC   C3818107   1.010   4.147   5.953  0.5693 -0.0696 -0.1776
  151DOPC   H8X18108   1.090   4.078   5.988 -0.1899  0.1535  2.1980
  151DOPC   H8Y18109   1.048   4.224   5.883  0.7760  0.8311  0.8917
  151DOPC   C3918110   0.888   4.074   5.910 -0.0285 -0.0484  0.4062
  151DOPC   H9X18111   0.811   4.056   5.986 -0.8547 -0.4084 -0.4960
  151DOPC  C31018112   0.860   4.052   5.778 -0.0779  0.2721 -0.1300
  151DOPC  H10X18113   0.762   4.009   5.751 -0.6082  2.0338 -1.2454
  151DOPC  C31118114   0.955   4.083   5.667  0.1456 -0.6528 -0.7812
  151DOPC  H11X18115   0.930   4.008   5.588 -1.0091 -0.9347 -0.1641
  151DOPC  H11Y18116   1.061   4.059   5.689  0.1204 -0.2205 -0.1777
  151DOPC  C31218117   0.949   4.224   5.610 -0.0949  0.3958 -0.3476
  151DOPC  H12X18118   0.964   4.312   5.676 -0.2772 -1.5045  2.3811
  151DOPC  H12Y18119   0.845   4.240   5.575  0.0729  0.3220 -0.8883
  151DOPC  C31318120   1.035   4.240   5.487 -0.8553 -0.1120  0.1424
  151DOPC  H13X18121   1.140   4.208   5.506 -0.8262 -0.0025  0.1640
  151DOPC  H13Y18122   0.990   4.176   5.408 -0.5251 -0.9103  0.5784
  151DOPC  C31418123   1.036   4.380   5.437 -0.0041  0.1109 -0.5893
  151DOPC  H14X18124   1.062   4.395   5.331 -0.9449  1.5157 -0.6572
  151DOPC  H14Y18125   0.928   4.406   5.451  0.1584 -0.2804  1.9790
  151DOPC  C31518126   1.119   4.478   5.522 -1.1259  0.3139  0.8156
  151DOPC  H15X18127   1.087   4.469   5.628  1.1089 -0.3796  1.4999
  151DOPC  H15Y18128   1.107   4.581   5.482  0.4769 -0.1711 -1.0972
  151DOPC  C31618129   1.273   4.452   5.523 -0.4521  0.2166  0.1427
  151DOPC  H16X18130   1.325   4.541   5.564  0.1057 -0.0707  0.0685
  151DOPC  H16Y18131   1.294   4.364   5.588 -0.1316 -0.7132 -1.1709
  151DOPC  C31718132   1.330   4.431   5.380  0.1598 -0.1506 -0.0996
  151DOPC  H17X18133   1.285   4.342   5.331  2.0123 -1.3165  0.2045
  151DOPC  H17Y18134   1.331   4.529   5.329  2.2613  0.5502  1.1682
  151DOPC  C31818135   1.483   4.413   5.391  0.0262 -0.1831 -0.3548
  151DOPC  H18X18136   1.530   4.493   5.453  0.1032 -1.9750  2.0332
  151DOPC  H18Y18137   1.517   4.316   5.433 -0.0580  0.2625  0.7788
  151DOPC  H18Z18138   1.525   4.418   5.288 -0.5686 -3.4498 -0.8553
  152DOPC     N18139   4.979   1.578   7.771  0.3247  1.3897 -0.2295
  152DOPC   C1218140   4.957   1.571   7.623  0.4832  0.3047  0.5885
  152DOPC  H12A18141   5.051   1.557   7.572 -0.4920  1.2142 -1.5562
  152DOPC  H12B18142   4.918   1.668   7.596 -1.4969 -0.8956 -1.1491
  152DOPC   C1318143   5.043   1.456   7.817  0.2595 -0.6918 -0.3060
  152DOPC  H13A18144   5.151   1.461   7.805  0.2982 -1.0312 -0.1171
  152DOPC  H13B18145   5.029   1.447   7.923 -0.1152  1.0320 -0.1892
  152DOPC  H13C18146   4.998   1.377   7.758  1.7074  0.2914 -2.9455
  152DOPC   C1418147   4.854   1.586   7.850  0.4191  0.7188  0.3103
  152DOPC  H14A18148   4.871   1.586   7.956  1.5896  0.0274  0.1442
  152DOPC  H14B18149   4.782   1.660   7.817 -0.1488 -0.7083 -1.9218
  152DOPC  H14C18150   4.801   1.493   7.836  0.8363  0.4955  0.1729
  152DOPC   C1518151   5.067   1.696   7.802 -0.2289 -0.0787 -0.4968
  152DOPC  H15A18152   5.159   1.681   7.747 -0.1187  0.2571 -0.4068
  152DOPC  H15B18153   5.091   1.694   7.907  0.6892  0.2512 -0.6893
  152DOPC  H15C18154   5.021   1.793   7.790 -0.0607  0.3484  1.7866
  152DOPC   C1118155   4.859   1.468   7.562 -0.5921  0.0655 -0.2072
  152DOPC  H11A18156   4.761   1.490   7.610 -1.1046  0.2363 -1.2945
  152DOPC  H11B18157   4.849   1.492   7.454 -1.6640 -1.5814 -0.5151
  152DOPC     P18158   4.896   1.225   7.462 -0.0678 -0.1600  0.1978
  152DOPC   O1318159   4.826   1.100   7.516 -0.0146  0.1590  0.2600
  152DOPC   O1418160   5.038   1.199   7.412  0.1203  0.3447  0.3245
  152DOPC   O1218161   4.904   1.331   7.572 -0.2465  0.1280 -0.5291
  152DOPC   O1118162   4.807   1.280   7.336  0.5086 -0.1523 -0.3057
  152DOPC    C118163   4.710   1.197   7.278  0.0765  0.1359 -0.2035
  152DOPC    HA18164   4.640   1.254   7.214 -0.7431  0.4682  0.9739
  152DOPC    HB18165   4.647   1.153   7.358  2.6447 -1.2469  1.1900
  152DOPC    C218166   4.777   1.101   7.173 -0.6252 -0.2313 -0.8679
  152DOPC    HS18167   4.817   1.015   7.232 -0.7741 -0.0243 -0.4653
  152DOPC   O2118168   4.891   1.169   7.109  0.2353  0.5251 -0.2599
  152DOPC   C2118169   4.967   1.095   7.032 -0.3572 -0.5076 -0.2780
  152DOPC   O2218170   4.956   0.975   7.016  0.1671 -0.4033 -0.0955
  152DOPC   C2218171   5.087   1.179   6.976 -0.8588 -0.8035  0.3172
  152DOPC   H2R18172   5.164   1.191   7.055  0.7641  0.4529 -1.3791
  152DOPC   H2S18173   5.047   1.279   6.948  0.8563 -0.1078  0.2522
  152DOPC    C318174   4.669   1.038   7.068 -1.0690  0.9786 -0.0771
  152DOPC    HX18175   4.564   1.061   7.098 -1.0858 -0.3048  0.9671
  152DOPC    HY18176   4.690   0.931   7.090  1.8902  1.8119  1.6535
  152DOPC   O3118177   4.697   1.067   6.932  0.0292  0.1247  0.5259
  152DOPC   C3118178   4.624   1.167   6.887 -0.1215  0.1740 -0.0816
  152DOPC   O3218179   4.560   1.245   6.954 -0.1975 -0.1324  0.1301
  152DOPC   C3218180   4.642   1.159   6.736  0.3910  0.1864 -0.4741
  152DOPC   H2X18181   4.736   1.205   6.700  1.7166 -1.5988  0.5564
  152DOPC   H2Y18182   4.637   1.050   6.718  0.1677  0.1920 -0.4486
  152DOPC   C2318183   5.149   1.109   6.854  0.2118 -0.5306  0.3689
  152DOPC   H3R18184   5.162   1.003   6.885  0.0983 -0.7013 -0.1699
  152DOPC   H3S18185   5.250   1.149   6.832  0.0421 -1.2879 -2.0869
  152DOPC   C2418186   5.068   1.104   6.729  0.4081  0.2270 -0.2674
  152DOPC   H4R18187   4.959   1.085   6.740 -0.1577  2.1612 -1.9068
  152DOPC   H4S18188   5.112   1.027   6.662  2.3003  1.8964 -1.0546
  152DOPC   C2518189   5.076   1.237   6.645  0.0938  0.3063 -0.3579
  152DOPC   H5R18190   5.180   1.267   6.620 -0.0546 -0.2141 -1.6495
  152DOPC   H5S18191   5.030   1.318   6.705  0.7499 -0.7498  1.7029
  152DOPC   C2618192   4.987   1.231   6.520 -0.5455  0.3178  0.0105
  152DOPC   H6R18193   4.982   1.335   6.482 -0.9953  0.2894 -0.0111
  152DOPC   H6S18194   4.884   1.207   6.554 -0.3489 -0.0246  0.3751
  152DOPC   C2718195   5.033   1.148   6.403 -0.3509 -0.6624 -0.1373
  152DOPC   H7R18196   5.030   1.040   6.430  0.4175 -0.2165  1.9226
  152DOPC   H7S18197   5.134   1.184   6.372 -1.0126  0.5335 -0.9793
  152DOPC   C2818198   4.925   1.170   6.286 -0.1362  0.6170  1.2980
  152DOPC   H8R18199   4.915   1.280   6.273 -0.3503  0.4055 -0.7106
  152DOPC   H8S18200   4.829   1.130   6.324 -1.7568  2.2545 -0.8113
  152DOPC   C2918201   4.968   1.099   6.164  0.2464 -0.3800  0.3375
  152DOPC   H9R18202   5.048   1.156   6.114 -1.1333 -0.1537 -1.7374
  152DOPC  C21018203   4.943   0.978   6.108  0.3906  0.5688  0.1344
  152DOPC  H10R18204   4.976   0.955   6.005 -1.6151 -0.6999 -0.2770
  152DOPC  C21118205   4.844   0.879   6.163  1.0777 -0.6335 -0.5686
  152DOPC  H11R18206   4.789   0.840   6.075 -1.6904  0.2857  0.6384
  152DOPC  H11S18207   4.758   0.919   6.222 -0.8727 -3.0181 -1.5953
  152DOPC  C21218208   4.918   0.765   6.244 -0.1185 -0.6584 -0.1704
  152DOPC  H12R18209   4.849   0.704   6.307  3.3159 -1.5752  3.0530
  152DOPC  H12S18210   4.984   0.799   6.326  0.4243 -0.4508 -0.6876
  152DOPC  C21318211   5.004   0.675   6.155 -1.2566 -0.0672  0.1141
  152DOPC  H13R18212   5.089   0.731   6.111  1.7895 -2.3674  2.6496
  152DOPC  H13S18213   4.939   0.624   6.081 -1.5609 -2.3905  1.8584
  152DOPC  C21418214   5.068   0.564   6.233 -0.0287 -0.5056 -0.8259
  152DOPC  H14R18215   5.004   0.520   6.312 -1.2781  1.1901 -0.8260
  152DOPC  H14S18216   5.139   0.626   6.291 -2.0908 -0.0881  1.4456
  152DOPC  C21518217   5.142   0.458   6.144  0.8744  0.2226 -0.4104
  152DOPC  H15R18218   5.249   0.448   6.173  0.9844  0.0859 -0.8502
  152DOPC  H15S18219   5.135   0.503   6.042  0.7762  0.4952 -0.2870
  152DOPC  C21618220   5.079   0.315   6.158 -0.3640 -0.3560  0.3537
  152DOPC  H16R18221   4.973   0.298   6.128 -0.7630 -0.0334  1.5354
  152DOPC  H16S18222   5.088   0.309   6.269  1.0825  0.0182  0.2772
  152DOPC  C21718223   5.163   0.204   6.080 -0.7306 -0.7437  0.2100
  152DOPC  H17R18224   5.270   0.219   6.105 -0.4639  0.4588 -1.4494
  152DOPC  H17S18225   5.159   0.212   5.969  0.3455 -2.9835 -0.0365
  152DOPC  C21818226   5.124   0.061   6.119  0.1534  0.5378  0.0620
  152DOPC  H18R18227   5.025   0.029   6.079 -0.4226  2.5150 -0.1904
  152DOPC  H18S18228   5.110   0.047   6.228  0.1935  0.5294  0.0658
  152DOPC  H18T18229   5.199  -0.009   6.076  1.3468  2.3163 -0.8627
  152DOPC   C3318230   4.519   1.222   6.665 -0.3221 -0.2981  0.0707
  152DOPC   H3X18231   4.505   1.320   6.716 -0.8808 -0.2768 -0.1145
  152DOPC   H3Y18232   4.422   1.177   6.695 -1.7980  2.4624 -0.1981
  152DOPC   C3418233   4.521   1.226   6.513  0.7592  0.4396 -0.1504
  152DOPC   H4X18234   4.612   1.285   6.487  1.6105 -0.0284  1.6178
  152DOPC   H4Y18235   4.430   1.277   6.475  0.1167 -1.0467 -0.6418
  152DOPC   C3518236   4.520   1.081   6.450  0.0925  0.2007  0.5591
  152DOPC   H5X18237   4.423   1.034   6.475  0.6069 -0.3374  1.6413
  152DOPC   H5Y18238   4.596   1.012   6.494 -1.6715 -2.8693 -0.8656
  152DOPC   C3618239   4.530   1.063   6.296  0.0392 -0.4835 -0.1337
  152DOPC   H6X18240   4.618   1.119   6.258 -1.6737  2.3307 -0.2109
  152DOPC   H6Y18241   4.545   0.953   6.284 -1.2479 -0.9513  2.0083
  152DOPC   C3718242   4.410   1.124   6.227  0.7765 -0.2237  0.7871
  152DOPC   H7X18243   4.319   1.069   6.258 -0.0619  1.2053  0.9976
  152DOPC   H7Y18244   4.393   1.231   6.253  3.0401  0.5079 -0.4928
  152DOPC   C3818245   4.427   1.127   6.077 -0.1995  0.7330 -0.3934
  152DOPC   H8X18246   4.444   1.023   6.040  2.4055  0.1671  2.0217
  152DOPC   H8Y18247   4.524   1.180   6.061 -0.4786  2.2532  2.3922
  152DOPC   C3918248   4.305   1.185   6.013 -0.2248  0.5375 -1.2777
  152DOPC   H9X18249   4.244   1.252   6.075 -2.5794 -1.3884 -1.3693
  152DOPC  C31018250   4.269   1.178   5.888 -0.3395 -0.4695 -0.6222
  152DOPC  H10X18251   4.173   1.226   5.864  0.0375  0.8313  0.3281
  152DOPC  C31118252   4.329   1.092   5.776  0.3111 -0.1738 -0.1113
  152DOPC  H11X18253   4.437   1.073   5.794  0.3486 -0.0687 -0.2247
  152DOPC  H11Y18254   4.321   1.152   5.683  1.6692 -0.7385 -0.6188
  152DOPC  C31218255   4.259   0.960   5.735  0.5045  0.6254  0.3654
  152DOPC  H12X18256   4.326   0.910   5.661 -0.7304  1.0415 -1.0773
  152DOPC  H12Y18257   4.164   0.980   5.681  0.5723  2.2614  0.8031
  152DOPC  C31318258   4.224   0.863   5.848 -0.3648 -0.5563 -0.4789
  152DOPC  H13X18259   4.292   0.874   5.935  1.6194 -2.7438 -1.6513
  152DOPC  H13Y18260   4.122   0.885   5.887 -0.1280 -2.3836  1.3417
  152DOPC  C31418261   4.233   0.719   5.802 -0.3173 -0.3586 -0.3400
  152DOPC  H14X18262   4.150   0.693   5.733 -0.7730 -0.2729  0.1668
  152DOPC  H14Y18263   4.323   0.722   5.737 -0.6429  1.5288 -0.7530
  152DOPC  C31518264   4.245   0.615   5.917 -0.1381  0.1908 -0.1503
  152DOPC  H15X18265   4.149   0.630   5.971  1.6270  0.3821  3.1969
  152DOPC  H15Y18266   4.323   0.652   5.987  1.3300 -0.1978 -1.5266
  152DOPC  C31618267   4.260   0.468   5.872  0.3748  0.4239  0.5805
  152DOPC  H16X18268   4.178   0.445   5.800  1.4227  0.7843 -0.7909
  152DOPC  H16Y18269   4.360   0.461   5.823  0.2821  1.5028  0.2250
  152DOPC  C31718270   4.250   0.366   5.985 -0.0794  0.6235  0.3143
  152DOPC  H17X18271   4.300   0.268   5.968  1.2964  1.3754 -0.1330
  152DOPC  H17Y18272   4.325   0.397   6.062  0.5913  0.9063 -0.4397
  152DOPC  C31818273   4.097   0.346   6.024 -0.8643  0.2426  0.1318
  152DOPC  H18X18274   4.035   0.374   5.936 -2.3687  3.3398  2.0465
  152DOPC  H18Y18275   4.085   0.247   6.073  2.9326  0.6543  2.3228
  152DOPC  H18Z18276   4.070   0.424   6.098 -2.0667  1.5349 -1.5933
  153DOPC     N18277   4.198   1.316   7.350  0.0823  0.2029 -0.2134
  153DOPC   C1218278   4.301   1.247   7.258 -0.2613 -0.5759  0.1634
  153DOPC  H12A18279   4.372   1.199   7.324 -1.4489 -1.3578  0.9068
  153DOPC  H12B18280   4.363   1.322   7.211 -1.2270  0.1166 -0.0316
  153DOPC   C1318281   4.252   1.429   7.435  0.5352  0.3398  0.5035
  153DOPC  H13A18282   4.284   1.508   7.370 -2.9033  0.3837 -1.3674
  153DOPC  H13B18283   4.178   1.459   7.507 -0.1617 -2.1987  0.9434
  153DOPC  H13C18284   4.334   1.399   7.499  0.7014 -1.6859 -0.5823
  153DOPC   C1418285   4.128   1.218   7.443 -0.2438 -0.1615  0.4737
  153DOPC  H14A18286   4.200   1.178   7.514  1.2140  0.7817 -0.4134
  153DOPC  H14B18287   4.050   1.270   7.496 -0.2848  0.7656 -0.4546
  153DOPC  H14C18288   4.090   1.138   7.382 -0.8523  0.7891 -0.4309
  153DOPC   C1518289   4.080   1.362   7.267  0.1607  0.1372  0.1563
  153DOPC  H15A18290   4.008   1.406   7.335 -2.3894  0.1541 -2.3468
  153DOPC  H15B18291   4.031   1.283   7.213 -0.0783 -0.8096  1.7151
  153DOPC  H15C18292   4.122   1.441   7.207  3.3008 -0.9128  0.8035
  153DOPC   C1118293   4.248   1.148   7.155 -0.4017 -0.0593 -0.4097
  153DOPC  H11A18294   4.180   1.201   7.085 -0.1998  2.3350  1.0911
  153DOPC  H11B18295   4.331   1.126   7.085 -1.2560  0.4121 -1.6054
  153DOPC     P18296   4.222   0.926   7.300  0.0215 -0.3526 -0.1858
  153DOPC   O1318297   4.113   0.877   7.389 -0.3887  0.3003  0.4137
  153DOPC   O1418298   4.349   0.960   7.356 -0.4071 -0.4565 -0.8644
  153DOPC   O1218299   4.177   1.040   7.216  0.1743 -0.0900  0.3771
  153DOPC   O1118300   4.244   0.834   7.177 -0.0561  0.3143 -0.1911
  153DOPC    C118301   4.374   0.811   7.133  0.1950  0.7240 -0.2279
  153DOPC    HA18302   4.440   0.770   7.213 -0.8944 -0.8210 -0.0716
  153DOPC    HB18303   4.418   0.906   7.095  2.0501 -0.7574 -1.9868
  153DOPC    C218304   4.356   0.716   7.014 -0.3104  0.1494  0.0750
  153DOPC    HS18305   4.459   0.701   6.975  0.9031 -1.3052  3.4727
  153DOPC   O2118306   4.269   0.774   6.907 -0.8096  0.2865 -0.6294
  153DOPC   C2118307   4.302   0.891   6.858 -0.4115  0.4618  0.2317
  153DOPC   O2218308   4.416   0.939   6.867 -0.5597  0.4162  0.3062
  153DOPC   C2218309   4.184   0.965   6.805  0.5373  1.2810  0.1201
  153DOPC   H2R18310   4.219   1.070   6.795  0.7500  1.3221  1.1191
  153DOPC   H2S18311   4.111   0.965   6.889  1.9497 -2.7682  1.5910
  153DOPC    C318312   4.292   0.580   7.061 -0.0777  0.1912 -0.5275
  153DOPC    HX18313   4.192   0.610   7.100  0.1779  0.5158 -0.1181
  153DOPC    HY18314   4.352   0.532   7.140  1.0687 -0.4365 -1.7311
  153DOPC   O3118315   4.266   0.482   6.951 -0.3299  0.2270 -0.2031
  153DOPC   C3118316   4.377   0.431   6.912  0.1499 -0.2358 -0.1916
  153DOPC   O3218317   4.486   0.446   6.969 -0.3675  0.2248  0.5107
  153DOPC   C3218318   4.349   0.339   6.793  0.7415 -0.1473 -0.1049
  153DOPC   H2X18319   4.276   0.270   6.839  0.1760  2.6504  3.7111
  153DOPC   H2Y18320   4.307   0.405   6.714  0.0730  1.0383  1.1852
  153DOPC   C2318321   4.129   0.902   6.675 -0.3556 -0.5792  0.1825
  153DOPC   H3R18322   4.116   0.795   6.705 -0.1831  0.2930  3.8728
  153DOPC   H3S18323   4.199   0.923   6.592 -0.0386  0.7430  0.7627
  153DOPC   C2418324   3.988   0.965   6.643  0.5943  0.5681  0.1332
  153DOPC   H4R18325   3.924   0.967   6.734 -0.0677  0.0521 -0.3148
  153DOPC   H4S18326   3.947   0.907   6.558  0.3042  0.9573  0.0078
  153DOPC   C2518327   3.995   1.106   6.601 -0.3325  0.1591  0.0509
  153DOPC   H5R18328   4.050   1.156   6.684  0.4540 -1.6241  0.6370
  153DOPC   H5S18329   3.891   1.146   6.602 -0.0618  0.9536 -1.0739
  153DOPC   C2618330   4.074   1.133   6.468  0.0215  0.2672 -0.3690
  153DOPC   H6R18331   4.181   1.112   6.490 -0.7072 -1.9955  1.5165
  153DOPC   H6S18332   4.055   1.239   6.444 -1.2179  0.2635  0.4553
  153DOPC   C2718333   4.014   1.060   6.346  0.3957 -0.5828  0.6025
  153DOPC   H7R18334   4.027   0.950   6.357 -1.1143 -0.5746  3.2984
  153DOPC   H7S18335   4.075   1.092   6.258  0.5047  1.3062  1.3225
  153DOPC   C2818336   3.862   1.080   6.330  0.0273 -0.1263 -0.1520
  153DOPC   H8R18337   3.833   1.187   6.331 -1.8842 -0.6091  1.0775
  153DOPC   H8S18338   3.802   1.033   6.410 -1.2121 -0.2828 -1.1394
  153DOPC   C2918339   3.823   1.010   6.196  0.2558 -0.6429  0.2157
  153DOPC   H9R18340   3.786   0.909   6.215 -0.1109 -0.6810 -0.6388
  153DOPC  C21018341   3.827   1.051   6.069  0.1494 -0.2966 -0.1344
  153DOPC  H10R18342   3.819   0.979   5.986  0.6053 -0.2932 -0.1841
  153DOPC  C21118343   3.884   1.190   6.042 -0.8550 -0.5785  0.2568
  153DOPC  H11R18344   3.983   1.206   6.091 -0.4785  0.3122 -0.7482
  153DOPC  H11S18345   3.816   1.267   6.085 -0.3432  0.2839 -0.4339
  153DOPC  C21218346   3.888   1.227   5.893 -0.1397  0.2559 -0.6119
  153DOPC  H12R18347   3.939   1.152   5.829 -0.6746  0.1604 -0.9341
  153DOPC  H12S18348   3.950   1.319   5.899 -0.6650  0.5384  0.9821
  153DOPC  C21318349   3.755   1.270   5.844  0.5194 -0.1221 -0.6403
  153DOPC  H13R18350   3.713   1.357   5.899  0.2749  0.4678 -1.7184
  153DOPC  H13S18351   3.690   1.180   5.846 -2.7876  2.0685  0.6139
  153DOPC  C21418352   3.770   1.317   5.697 -0.6336  0.9501  0.1835
  153DOPC  H14R18353   3.770   1.226   5.632  0.2916  1.3271 -0.3695
  153DOPC  H14S18354   3.861   1.381   5.693 -0.9065  1.3364  0.1063
  153DOPC  C21518355   3.657   1.400   5.647 -0.1306 -0.4765  0.2945
  153DOPC  H15R18356   3.686   1.414   5.541  1.4233  0.4344  0.8055
  153DOPC  H15S18357   3.646   1.498   5.700 -2.3827 -0.9606  0.8267
  153DOPC  C21618358   3.510   1.337   5.655 -0.6247 -0.4251 -0.5992
  153DOPC  H16R18359   3.437   1.396   5.596  0.2656  0.8550 -0.4534
  153DOPC  H16S18360   3.476   1.322   5.759 -2.1541  1.7088 -0.7456
  153DOPC  C21718361   3.500   1.195   5.602  0.8453 -0.3954 -0.1375
  153DOPC  H17R18362   3.534   1.113   5.670  0.9529 -1.0126 -0.9220
  153DOPC  H17S18363   3.563   1.188   5.511 -4.0423  0.9465 -4.0655
  153DOPC  C21818364   3.364   1.156   5.552  0.4011  0.2358 -0.2460
  153DOPC  H18R18365   3.326   1.219   5.469  0.7376 -0.4423 -0.9212
  153DOPC  H18S18366   3.286   1.154   5.631 -0.2006  0.3256 -0.8298
  153DOPC  H18T18367   3.377   1.052   5.516  1.3066  0.5142 -0.7482
  153DOPC   C3318368   4.470   0.258   6.752  1.0511  0.2173  0.2324
  153DOPC   H3X18369   4.500   0.202   6.844 -0.3087 -1.0883 -0.0885
  153DOPC   H3Y18370   4.556   0.322   6.724  0.2225  0.9488 -0.6968
  153DOPC   C3418371   4.442   0.150   6.642  0.3293  0.2151 -0.4674
  153DOPC   H4X18372   4.356   0.090   6.677  1.0094  0.7950  2.4797
  153DOPC   H4Y18373   4.536   0.091   6.642  0.7628  0.8895 -0.7714
  153DOPC   C3518374   4.406   0.202   6.508 -0.3587 -0.3454  0.0159
  153DOPC   H5X18375   4.487   0.257   6.455  0.2734 -1.5085 -0.2550
  153DOPC   H5Y18376   4.319   0.269   6.522  1.4468  1.5653  3.3807
  153DOPC   C3618377   4.362   0.093   6.410  0.4793  0.0445  0.2989
  153DOPC   H6X18378   4.425   0.003   6.424 -0.9189 -0.7115  2.0758
  153DOPC   H6Y18379   4.264   0.057   6.446  0.1287  0.0785 -0.5929
  153DOPC   C3718380   4.350   0.145   6.267 -0.0599  0.8913 -0.7018
  153DOPC   H7X18381   4.262   0.212   6.262 -0.5195  0.5121  1.3005
  153DOPC   H7Y18382   4.437   0.200   6.225 -0.0419  0.4739 -1.2149
  153DOPC   C3818383   4.334   0.031   6.162 -0.5879 -1.0972 -0.9372
  153DOPC   H8X18384   4.409  -0.043   6.197 -0.8437 -1.1505 -0.4977
  153DOPC   H8Y18385   4.375   0.066   6.064 -1.0898 -0.0728 -0.7885
  153DOPC   C3918386   4.194  -0.021   6.147 -0.2524  0.3031  0.3597
  153DOPC   H9X18387   4.120   0.021   6.218 -1.9494 -0.9676 -0.5700
  153DOPC  C31018388   4.147  -0.110   6.059 -0.0889 -0.3419  0.7352
  153DOPC  H10X18389   4.039  -0.127   6.057 -0.4814  1.9144 -0.3359
  153DOPC  C31118390   4.223  -0.187   5.953 -0.6373 -0.1675 -0.2175
  153DOPC  H11X18391   4.319  -0.135   5.934 -0.8689  0.7914  1.1280
  153DOPC  H11Y18392   4.154  -0.187   5.866  0.6341 -0.6978 -1.2727
  153DOPC  C31218393   4.242  -0.329   6.013  0.0344 -0.6849  0.6092
  153DOPC  H12X18394   4.147  -0.379   6.041 -1.4726  0.6405 -1.7650
  153DOPC  H12Y18395   4.301  -0.325   6.107  1.9835 -0.9679 -0.5374
  153DOPC  C31318396   4.302  -0.429   5.912  0.4021 -0.1984 -0.5840
  153DOPC  H13X18397   4.308  -0.379   5.813  1.0338  2.0482  0.5245
  153DOPC  H13Y18398   4.401  -0.457   5.955  0.7158 -0.3809 -1.3993
  153DOPC  C31418399   4.213  -0.545   5.883 -0.3716  0.2934  0.1233
  153DOPC  H14X18400   4.196  -0.609   5.972  0.3719  0.5552  0.4556
  153DOPC  H14Y18401   4.111  -0.504   5.867 -1.4197 -1.3537  2.0731
  153DOPC  C31518402   4.253  -0.636   5.769 -0.6757 -0.6769 -0.3081
  153DOPC  H15X18403   4.340  -0.701   5.792  0.4408  0.5645 -0.9275
  153DOPC  H15Y18404   4.287  -0.569   5.687 -1.7437  1.2912  0.7827
  153DOPC  C31618405   4.134  -0.718   5.726 -0.2053 -0.2393 -0.0743
  153DOPC  H16X18406   4.082  -0.755   5.817  0.2431 -2.4284 -0.6586
  153DOPC  H16Y18407   4.063  -0.660   5.662 -0.2552 -2.4634 -2.1720
  153DOPC  C31718408   4.168  -0.836   5.636 -0.2112  0.6837 -0.0914
  153DOPC  H17X18409   4.086  -0.874   5.571 -0.9611  1.0134  0.6472
  153DOPC  H17Y18410   4.249  -0.809   5.565  2.0342 -1.7043  1.3500
  153DOPC  C31818411   4.218  -0.960   5.721 -0.1905 -0.1766 -0.1143
  153DOPC  H18X18412   4.131  -1.015   5.764  1.1937 -1.5984  0.9619
  153DOPC  H18Y18413   4.270  -1.032   5.654  0.6272  0.5211 -0.2412
  153DOPC  H18Z18414   4.293  -0.928   5.796  0.3838 -3.6257  0.9733
  154DOPC     N18415   4.788   3.901   7.571 -0.3031 -0.2946  0.1075
  154DOPC   C1218416   4.851   3.785   7.505 -0.3023  0.6307 -0.2987
  154DOPC  H12A18417   4.874   3.802   7.401  2.4708 -0.3108  0.0797
  154DOPC  H12B18418   4.783   3.702   7.509  1.0836 -0.5000  0.9632
  154DOPC   C1318419   4.871   4.027   7.545  0.8675  0.9844 -0.7252
  154DOPC  H13A18420   4.838   4.118   7.594 -0.5104  1.1621 -1.9295
  154DOPC  H13B18421   4.975   4.015   7.571  0.3274 -0.2005  1.0405
  154DOPC  H13C18422   4.868   4.048   7.439  1.7557  2.9690 -0.4135
  154DOPC   C1418423   4.776   3.883   7.716  0.2921  0.4151  0.4283
  154DOPC  H14A18424   4.724   3.793   7.745  0.2928  0.4281  0.4704
  154DOPC  H14B18425   4.878   3.865   7.749 -0.1279  1.2621  2.3678
  154DOPC  H14C18426   4.731   3.962   7.774  1.5873 -0.0400  2.1364
  154DOPC   C1518427   4.650   3.916   7.514 -0.5421 -0.2394  0.0896
  154DOPC  H15A18428   4.644   3.912   7.406  2.2668 -0.1754 -0.1422
  154DOPC  H15B18429   4.617   4.016   7.540  0.8141  0.9384 -2.2992
  154DOPC  H15C18430   4.581   3.843   7.552 -2.0688  0.4433 -1.2322
  154DOPC   C1118431   4.973   3.727   7.575 -0.2622  0.2619 -0.5533
  154DOPC  H11A18432   4.948   3.675   7.670  2.5621  1.3934  0.9471
  154DOPC  H11B18433   5.008   3.641   7.514  1.2861 -1.0751  2.0199
  154DOPC     P18434   5.222   3.781   7.644  0.3418  0.0099 -0.3213
  154DOPC   O1318435   5.219   3.655   7.724 -0.3455  0.0980 -0.4041
  154DOPC   O1418436   5.278   3.895   7.713 -0.3485 -0.3842 -0.1290
  154DOPC   O1218437   5.079   3.823   7.600  0.0529 -0.6307 -0.4779
  154DOPC   O1118438   5.301   3.762   7.510  0.0329  0.7118  0.2520
  154DOPC    C118439   5.298   3.858   7.404  0.2465  0.0566 -0.4729
  154DOPC    HA18440   5.387   3.841   7.340 -0.0554 -0.6873 -0.7102
  154DOPC    HB18441   5.290   3.965   7.435  0.7626  0.2769 -1.0844
  154DOPC    C218442   5.176   3.828   7.310 -0.7095 -0.9262 -0.1849
  154DOPC    HS18443   5.082   3.834   7.369  0.1583 -0.2512  1.1659
  154DOPC   O2118444   5.190   3.695   7.256  0.0537 -0.1710  0.2975
  154DOPC   C2118445   5.087   3.631   7.213  0.2526 -0.3398 -0.5899
  154DOPC   O2218446   4.969   3.663   7.234 -0.5262 -0.0378 -0.3326
  154DOPC   C2218447   5.131   3.517   7.130  0.3730  0.4607  0.7143
  154DOPC   H2R18448   5.052   3.440   7.140 -0.8269  1.4582 -0.5762
  154DOPC   H2S18449   5.235   3.492   7.161  1.0770  2.0870 -0.1934
  154DOPC    C318450   5.174   3.932   7.195 -0.1434 -0.0907 -0.1168
  154DOPC    HX18451   5.278   3.916   7.159  0.1053  0.8883  0.1448
  154DOPC    HY18452   5.171   4.037   7.232  2.2350  0.2809 -0.7958
  154DOPC   O3118453   5.083   3.903   7.095  0.6381  0.1678 -0.2565
  154DOPC   C3118454   4.952   3.929   7.128  0.3939 -0.8990 -0.1618
  154DOPC   O3218455   4.917   3.956   7.242 -0.1966  0.0046  0.1215
  154DOPC   C3218456   4.869   3.896   7.008 -0.1599  0.4136  0.2750
  154DOPC   H2X18457   4.926   3.873   6.916 -1.6055 -0.9248 -0.3433
  154DOPC   H2Y18458   4.824   3.799   7.039 -0.7204  0.4474 -0.4090
  154DOPC   C2318459   5.137   3.538   6.978 -0.0594 -0.8089  0.1470
  154DOPC   H3R18460   5.205   3.458   6.939 -2.2860 -2.2500 -1.0135
  154DOPC   H3S18461   5.194   3.632   6.962 -1.0098  0.0517  1.6210
  154DOPC   C2418462   5.005   3.533   6.893 -0.4612 -0.1897  0.0258
  154DOPC   H4R18463   4.915   3.571   6.947 -0.5087 -0.9064  0.4606
  154DOPC   H4S18464   4.976   3.426   6.884 -0.8261 -0.1521  0.6999
  154DOPC   C2518465   5.033   3.597   6.759  0.6135  0.4100  0.1686
  154DOPC   H5R18466   5.115   3.541   6.710 -0.8919  0.4234 -2.5566
  154DOPC   H5S18467   5.040   3.708   6.773  1.8182  0.4718 -0.8075
  154DOPC   C2618468   4.914   3.577   6.660 -0.0463  0.1657  0.6714
  154DOPC   H6R18469   4.892   3.470   6.636  0.5083  0.3461 -0.7394
  154DOPC   H6S18470   4.968   3.616   6.571  0.0130 -1.3884 -0.0092
  154DOPC   C2718471   4.793   3.662   6.696 -0.0188 -0.0700  0.0247
  154DOPC   H7R18472   4.823   3.765   6.728  1.2634 -0.7277  1.0170
  154DOPC   H7S18473   4.732   3.615   6.776 -1.1781 -2.2151 -2.0003
  154DOPC   C2818474   4.706   3.692   6.571  0.5360 -0.7629 -0.3812
  154DOPC   H8R18475   4.667   3.589   6.550 -1.1787  0.1222 -1.8800
  154DOPC   H8S18476   4.771   3.724   6.486  2.5995 -0.2049  1.3257
  154DOPC   C2918477   4.591   3.790   6.608 -0.3448  0.1958  0.6147
  154DOPC   H9R18478   4.520   3.751   6.682  0.7833  0.3992  1.8252
  154DOPC  C21018479   4.557   3.904   6.548  0.4288 -0.5484 -0.2867
  154DOPC  H10R18480   4.461   3.952   6.571  1.7005  1.8709  0.3757
  154DOPC  C21118481   4.638   3.955   6.432  0.0328 -0.5077 -0.0527
  154DOPC  H11R18482   4.679   3.874   6.368  2.6590  0.4826  0.2792
  154DOPC  H11S18483   4.723   4.018   6.465  0.7249  0.1166 -2.7522
  154DOPC  C21218484   4.542   4.030   6.341 -1.1172  0.3196  0.8579
  154DOPC  H12R18485   4.505   4.125   6.385  0.0726  1.4322 -0.4167
  154DOPC  H12S18486   4.464   3.960   6.305 -1.9407  0.8340  1.5984
  154DOPC  C21318487   4.624   4.072   6.214 -0.1458  1.0066 -1.0387
  154DOPC  H13R18488   4.652   3.981   6.156 -0.9714  1.0905 -1.5813
  154DOPC  H13S18489   4.717   4.110   6.262  0.0489 -1.4270  0.7465
  154DOPC  C21418490   4.562   4.174   6.123  0.2073 -1.0066  0.2755
  154DOPC  H14R18491   4.609   4.185   6.023 -0.2471  2.8425  0.3527
  154DOPC  H14S18492   4.589   4.265   6.181 -0.9044 -0.0960 -0.5954
  154DOPC  C21518493   4.418   4.152   6.104 -1.0403  0.1800 -0.3806
  154DOPC  H15R18494   4.355   4.168   6.194  0.9759 -2.1634  1.6010
  154DOPC  H15S18495   4.414   4.046   6.072  0.2862 -0.5340  1.5944
  154DOPC  C21618496   4.364   4.251   5.992  0.8222 -0.0918 -0.5376
  154DOPC  H16R18497   4.398   4.355   6.005 -1.0438  0.6459 -1.1962
  154DOPC  H16S18498   4.254   4.236   6.000  1.0454 -2.1934 -0.7820
  154DOPC  C21718499   4.412   4.216   5.858  0.1609  0.3106 -0.5996
  154DOPC  H17R18500   4.523   4.211   5.858  0.2977  1.9947  1.3875
  154DOPC  H17S18501   4.383   4.295   5.786  0.5166  2.4459  1.4868
  154DOPC  C21818502   4.360   4.082   5.806 -0.0811 -0.1417 -0.5108
  154DOPC  H18R18503   4.249   4.096   5.803  0.0462  1.4264  0.5349
  154DOPC  H18S18504   4.389   3.993   5.866 -0.7732 -0.2525 -0.3267
  154DOPC  H18T18505   4.391   4.055   5.703 -0.5163  1.1508 -1.0040
  154DOPC   C3318506   4.748   3.992   6.974  0.2772  0.1434 -0.4669
  154DOPC   H3X18507   4.674   3.995   7.057  0.0866 -0.6237 -0.6001
  154DOPC   H3Y18508   4.700   3.954   6.881 -0.5554  0.5663 -0.2202
  154DOPC   C3418509   4.805   4.137   6.941  0.0357  0.7681  0.4674
  154DOPC   H4X18510   4.893   4.129   6.873  1.6214 -0.2740  2.5488
  154DOPC   H4Y18511   4.852   4.173   7.035 -0.4315 -0.6547  1.2841
  154DOPC   C3518512   4.704   4.238   6.886  0.6773  0.3399  0.7297
  154DOPC   H5X18513   4.739   4.340   6.860 -0.8043  0.3722 -1.4067
  154DOPC   H5Y18514   4.632   4.248   6.970  0.8234  1.6580  0.7117
  154DOPC   C3618515   4.612   4.193   6.770 -0.2534  0.3423 -0.0090
  154DOPC   H6X18516   4.679   4.200   6.682 -0.5199 -1.9837 -0.4713
  154DOPC   H6Y18517   4.579   4.087   6.773 -0.9924  0.4938 -1.7955
  154DOPC   C3718518   4.481   4.269   6.734  0.2426  0.5318 -0.1098
  154DOPC   H7X18519   4.438   4.229   6.640 -3.2711  0.8803  1.1830
  154DOPC   H7Y18520   4.399   4.236   6.802  0.6232  3.1386  1.7509
  154DOPC   C3818521   4.489   4.422   6.722 -0.3322 -0.0867  0.3052
  154DOPC   H8X18522   4.537   4.474   6.807 -1.5256  3.6766 -1.1310
  154DOPC   H8Y18523   4.387   4.462   6.704 -0.5695 -0.4493  0.8516
  154DOPC   C3918524   4.580   4.447   6.605  0.2586  0.0055  0.7639
  154DOPC   H9X18525   4.688   4.439   6.621  0.3674 -0.8928 -0.2479
  154DOPC  C31018526   4.544   4.482   6.479 -0.1600 -0.2071  0.1615
  154DOPC  H10X18527   4.622   4.484   6.402 -1.7026  0.2803 -1.4408
  154DOPC  C31118528   4.405   4.489   6.428 -0.3640 -0.0540  0.0606
  154DOPC  H11X18529   4.339   4.528   6.509 -0.2925  2.5230 -1.0106
  154DOPC  H11Y18530   4.369   4.385   6.414  2.9719 -1.4199  0.6544
  154DOPC  C31218531   4.393   4.579   6.312  0.4431 -0.2823  1.0484
  154DOPC  H12X18532   4.480   4.563   6.245  0.6067 -0.0383  1.2007
  154DOPC  H12Y18533   4.412   4.681   6.351  0.6865 -0.2120  0.7475
  154DOPC  C31318534   4.263   4.558   6.226 -0.3449 -0.3980 -0.7304
  154DOPC  H13X18535   4.256   4.460   6.175 -2.4598 -0.1872 -0.9491
  154DOPC  H13Y18536   4.166   4.575   6.278  0.2532 -1.1243  0.6865
  154DOPC  C31418537   4.249   4.660   6.113  0.5668  0.3478  0.3711
  154DOPC  H14X18538   4.267   4.763   6.149  0.0131  0.2081  1.0799
  154DOPC  H14Y18539   4.330   4.641   6.040  1.1524  1.4697  0.7068
  154DOPC  C31518540   4.109   4.653   6.042 -0.6964 -0.4279 -0.0474
  154DOPC  H15X18541   4.071   4.744   5.991  0.5467  1.2002  1.8041
  154DOPC  H15Y18542   4.034   4.641   6.122 -1.5781 -0.7008 -0.9000
  154DOPC  C31618543   4.092   4.549   5.935 -0.1651 -0.7625 -0.0132
  154DOPC  H16X18544   4.157   4.459   5.949  0.4523 -0.1311  1.2791
  154DOPC  H16Y18545   3.985   4.524   5.919 -0.1502 -1.6533  1.1461
  154DOPC  C31718546   4.126   4.606   5.793  0.2568 -0.1563  0.8607
  154DOPC  H17X18547   4.052   4.682   5.759 -0.6293 -0.5774  1.8135
  154DOPC  H17Y18548   4.225   4.656   5.802  0.4150 -0.0890 -0.8200
  154DOPC  C31818549   4.132   4.491   5.692  0.0123  0.7370 -0.1629
  154DOPC  H18X18550   4.030   4.467   5.656 -0.2928  0.4881  0.8326
  154DOPC  H18Y18551   4.198   4.523   5.608  1.1801  2.3051  1.2741
  154DOPC  H18Z18552   4.187   4.405   5.736 -2.5195 -0.1902  1.3849
  155DOPC     N18553   2.625   1.909   7.220 -0.0646 -0.3886 -0.1086
  155DOPC   C1218554   2.540   2.031   7.213 -0.3711 -0.3073 -0.1247
  155DOPC  H12A18555   2.437   1.997   7.207 -0.8109  0.6241  1.5885
  155DOPC  H12B18556   2.556   2.084   7.121 -0.0225 -0.2393 -0.0263
  155DOPC   C1318557   2.563   1.792   7.144 -0.0875  0.1735 -0.2118
  155DOPC  H13A18558   2.489   1.752   7.213  0.1336 -0.5604 -0.3886
  155DOPC  H13B18559   2.528   1.818   7.046 -0.4349 -0.1932 -0.1883
  155DOPC  H13C18560   2.638   1.716   7.129 -2.3298 -2.3529  0.4033
  155DOPC   C1418561   2.643   1.863   7.358  0.9750  0.4342 -0.7474
  155DOPC  H14A18562   2.706   1.776   7.370 -0.2216 -0.2738  0.7350
  155DOPC  H14B18563   2.685   1.943   7.418  1.7390 -2.1164  2.3785
  155DOPC  H14C18564   2.551   1.834   7.407  1.4600  0.7962  0.4313
  155DOPC   C1518565   2.759   1.936   7.157 -0.5634  0.1319 -0.1340
  155DOPC  H15A18566   2.811   2.019   7.203  0.7670 -0.5066 -0.4581
  155DOPC  H15B18567   2.749   1.944   7.050 -1.7562 -1.2670 -0.1615
  155DOPC  H15C18568   2.821   1.848   7.164 -0.6676  0.1696  1.9189
  155DOPC   C1118569   2.560   2.143   7.317  0.3618  0.3217  0.4017
  155DOPC  H11A18570   2.479   2.215   7.294 -1.4254 -2.1309 -1.5477
  155DOPC  H11B18571   2.561   2.101   7.420  2.4209  0.4073  0.4680
  155DOPC     P18572   2.712   2.310   7.189  0.1900  0.0842 -0.7277
  155DOPC   O1318573   2.861   2.318   7.166 -0.8208  0.1410 -0.0810
  155DOPC   O1418574   2.647   2.436   7.230 -0.2172 -0.4398 -0.3121
  155DOPC   O1218575   2.690   2.198   7.297 -0.2076 -0.0274  0.0883
  155DOPC   O1118576   2.642   2.244   7.068  0.4426 -0.6627  0.5338
  155DOPC    C118577   2.592   2.318   6.958 -0.2104  0.1285  0.2291
  155DOPC    HA18578   2.628   2.423   6.950 -0.7649  0.1863 -1.8814
  155DOPC    HB18579   2.481   2.327   6.966 -0.2667 -0.5284  0.2074
  155DOPC    C218580   2.646   2.257   6.830 -0.1353  0.0251  0.6880
  155DOPC    HS18581   2.613   2.151   6.837  3.4610 -1.1454  2.1169
  155DOPC   O2118582   2.785   2.275   6.811 -0.4449  0.5140 -0.0479
  155DOPC   C2118583   2.862   2.165   6.815  0.3470  0.0009  0.0032
  155DOPC   O2218584   2.825   2.055   6.841 -0.0047  0.1673  0.3741
  155DOPC   C2218585   3.015   2.204   6.780  0.2942  1.4019  0.2693
  155DOPC   H2R18586   3.061   2.120   6.724  0.5301  2.2552 -0.8499
  155DOPC   H2S18587   3.061   2.192   6.881 -0.8932  0.0321  0.6808
  155DOPC    C318588   2.564   2.317   6.712  0.0892 -0.3396 -0.6259
  155DOPC    HX18589   2.609   2.285   6.615  1.0544 -0.2076 -0.2291
  155DOPC    HY18590   2.589   2.425   6.714  1.8137 -0.6716 -1.8277
  155DOPC   O3118591   2.427   2.284   6.741  0.3227  0.1212  0.4789
  155DOPC   C3118592   2.368   2.196   6.661  0.6887 -0.2278  0.5637
  155DOPC   O3218593   2.420   2.140   6.567 -0.1436 -0.3783  0.3264
  155DOPC   C3218594   2.216   2.200   6.688  0.4129  0.4275  0.6694
  155DOPC   H2X18595   2.204   2.206   6.798 -1.7893  1.7793  0.4117
  155DOPC   H2Y18596   2.168   2.289   6.641 -0.6801 -1.0125 -1.1028
  155DOPC   C2318597   3.030   2.325   6.694 -0.5131 -0.2756 -0.1190
  155DOPC   H3R18598   3.138   2.352   6.693 -1.0638  2.0801 -1.3822
  155DOPC   H3S18599   2.982   2.413   6.742 -0.0556 -0.4726  0.7326
  155DOPC   C2418600   2.994   2.316   6.546  0.5394 -0.1220 -0.0900
  155DOPC   H4R18601   2.895   2.267   6.553  1.9285 -3.1445 -0.0440
  155DOPC   H4S18602   3.049   2.241   6.486  1.7247 -0.5338  1.4453
  155DOPC   C2518603   2.980   2.454   6.484 -0.7416 -0.1392 -0.2197
  155DOPC   H5R18604   3.082   2.496   6.489  0.2259 -2.4405  0.9975
  155DOPC   H5S18605   2.897   2.514   6.527 -1.2481 -0.3667 -0.8533
  155DOPC   C2618606   2.948   2.443   6.331  0.0200 -1.1048  0.2967
  155DOPC   H6R18607   2.842   2.411   6.326 -0.7301  1.2764  0.0216
  155DOPC   H6S18608   3.020   2.376   6.278  1.0574  1.6527 -2.0200
  155DOPC   C2718609   2.949   2.572   6.248  0.5304  0.8547  0.6414
  155DOPC   H7R18610   2.970   2.535   6.145 -1.0852  0.1497  0.5446
  155DOPC   H7S18611   3.028   2.640   6.287  0.3127  1.8513 -0.5960
  155DOPC   C2818612   2.827   2.662   6.269 -0.1018  0.3239 -0.0757
  155DOPC   H8R18613   2.854   2.757   6.217 -0.9166  0.9961  0.7029
  155DOPC   H8S18614   2.802   2.688   6.374  1.5704  0.0038  0.4265
  155DOPC   C2918615   2.703   2.605   6.203 -0.4872 -0.4041  0.0970
  155DOPC   H9R18616   2.655   2.518   6.252 -0.2820  1.6418  4.3862
  155DOPC  C21018617   2.656   2.650   6.085  0.3171 -0.8302 -0.2274
  155DOPC  H10R18618   2.577   2.596   6.031 -1.6726  0.5521  1.1775
  155DOPC  C21118619   2.721   2.757   6.000  0.4395  0.3542 -0.5514
  155DOPC  H11R18620   2.827   2.779   6.024  0.5035 -0.6223  0.1403
  155DOPC  H11S18621   2.663   2.851   6.013 -1.0200 -0.1715 -2.6862
  155DOPC  C21218622   2.728   2.700   5.855 -0.6725 -0.2907  0.4128
  155DOPC  H12R18623   2.633   2.660   5.814 -0.1775  0.0532 -1.1384
  155DOPC  H12S18624   2.789   2.607   5.851 -1.3639 -0.7124 -0.3659
  155DOPC  C21318625   2.808   2.785   5.758  0.4796  0.1359 -0.5165
  155DOPC  H13R18626   2.916   2.779   5.786  0.7461 -1.0219 -1.6401
  155DOPC  H13S18627   2.778   2.891   5.756  0.7782  0.3045  1.6884
  155DOPC  C21418628   2.793   2.723   5.626  0.3932 -0.9921  0.0362
  155DOPC  H14R18629   2.685   2.708   5.605  0.1564  0.2484  0.3352
  155DOPC  H14S18630   2.825   2.616   5.633 -1.6786 -1.5657  1.9173
  155DOPC  C21518631   2.863   2.798   5.513 -0.1834 -0.2232  0.0622
  155DOPC  H15R18632   2.969   2.819   5.540  0.2017 -0.6754 -1.0415
  155DOPC  H15S18633   2.806   2.890   5.485  1.7066  0.3848 -2.2048
  155DOPC  C21618634   2.879   2.705   5.388  0.5915 -0.0412  0.1718
  155DOPC  H16R18635   2.777   2.697   5.346  0.1619 -0.7512  1.2988
  155DOPC  H16S18636   2.896   2.598   5.415  1.4356  0.2479  0.8320
  155DOPC  C21718637   2.990   2.740   5.288 -0.1573 -0.0516  0.6809
  155DOPC  H17R18638   3.078   2.759   5.355  1.0587 -0.3899 -0.7639
  155DOPC  H17S18639   2.966   2.838   5.242  1.6027 -0.1775 -0.6074
  155DOPC  C21818640   3.025   2.641   5.175 -0.1858 -0.2816  0.2191
  155DOPC  H18R18641   3.033   2.535   5.207  0.9402 -0.2934 -0.0720
  155DOPC  H18S18642   3.114   2.691   5.133 -2.1275  1.3011 -2.3745
  155DOPC  H18T18643   2.957   2.634   5.087 -2.4831  1.4019  1.7128
  155DOPC   C3318644   2.136   2.072   6.636 -0.0647  0.6364  0.8577
  155DOPC   H3X18645   2.071   2.032   6.716 -2.9792  2.0879 -0.6476
  155DOPC   H3Y18646   2.206   1.988   6.621  0.1473  0.6782  1.5730
  155DOPC   C3418647   2.057   2.106   6.512  0.3673  0.4439  0.9174
  155DOPC   H4X18648   1.990   2.192   6.536  0.0088  0.5140 -0.2631
  155DOPC   H4Y18649   1.996   2.017   6.485 -0.1156  1.1159 -0.2639
  155DOPC   C3518650   2.130   2.113   6.379 -0.4037  0.4994 -0.1088
  155DOPC   H5X18651   2.183   2.016   6.365 -1.7242 -0.2829  0.2089
  155DOPC   H5Y18652   2.211   2.186   6.399  0.8676 -1.0192  0.4908
  155DOPC   C3618653   2.042   2.152   6.257 -0.6046 -0.5588  0.1479
  155DOPC   H6X18654   1.975   2.065   6.238  1.0588 -1.9034  0.2972
  155DOPC   H6Y18655   1.979   2.239   6.287 -0.6202  0.1922 -1.9006
  155DOPC   C3718656   2.126   2.163   6.131 -0.0637 -0.6766  0.1277
  155DOPC   H7X18657   2.213   2.228   6.157 -0.7749  0.3732 -0.0606
  155DOPC   H7Y18658   2.153   2.066   6.085  2.2787 -0.2545  0.4934
  155DOPC   C3818659   2.048   2.242   6.025 -0.2336 -0.5633 -0.2026
  155DOPC   H8X18660   2.113   2.298   5.955 -0.3329 -0.0564  0.1058
  155DOPC   H8Y18661   1.997   2.325   6.079  1.2155  1.0425 -1.2086
  155DOPC   C3918662   1.941   2.167   5.957 -0.1396  0.1861 -0.3438
  155DOPC   H9X18663   1.881   2.102   6.023  1.8815 -1.5260 -0.0845
  155DOPC  C31018664   1.949   2.122   5.832 -0.0520  0.2349  0.0971
  155DOPC  H10X18665   1.865   2.060   5.796 -1.7243  0.1032  3.7415
  155DOPC  C31118666   2.061   2.152   5.735 -0.3066 -0.0697  0.2809
  155DOPC  H11X18667   2.153   2.092   5.750  0.9629  1.0299 -2.4300
  155DOPC  H11Y18668   2.083   2.259   5.751  0.4788 -0.3313  0.9797
  155DOPC  C31218669   2.031   2.143   5.585  0.1991  0.8051 -0.1383
  155DOPC  H12X18670   2.121   2.155   5.520  0.2358 -0.0912 -0.2613
  155DOPC  H12Y18671   1.979   2.240   5.568  2.9461  2.7762  1.7997
  155DOPC  C31318672   1.960   2.015   5.543 -0.6034  0.4945  0.5269
  155DOPC  H13X18673   2.011   1.932   5.597  1.4213  1.4896  0.2489
  155DOPC  H13Y18674   1.852   2.018   5.569 -0.8218 -2.2832  0.2361
  155DOPC  C31418675   1.963   1.982   5.385  0.4456 -0.2633 -0.9471
  155DOPC  H14X18676   1.912   2.075   5.351  1.1077  0.9961  1.3013
  155DOPC  H14Y18677   2.070   1.986   5.354  0.6188  0.8821 -0.2744
  155DOPC  C31518678   1.887   1.856   5.344  0.0777 -0.2093  0.0306
  155DOPC  H15X18679   1.783   1.864   5.382 -0.1541 -1.3045 -0.3332
  155DOPC  H15Y18680   1.928   1.771   5.403 -2.9636 -2.4549 -0.8476
  155DOPC  C31618681   1.890   1.813   5.194 -1.0064 -0.0311  0.5222
  155DOPC  H16X18682   1.995   1.806   5.157 -0.8326  0.8374  0.8066
  155DOPC  H16Y18683   1.856   1.708   5.187  0.9918 -0.6327 -1.7989
  155DOPC  C31718684   1.812   1.896   5.091 -0.4689 -0.5417 -0.0109
  155DOPC  H17X18685   1.859   1.996   5.094 -0.1684 -0.6918  0.8491
  155DOPC  H17Y18686   1.833   1.853   4.991 -3.4456  1.1490 -1.4933
  155DOPC  C31818687   1.665   1.893   5.115  0.7681  0.2652 -1.1578
  155DOPC  H18X18688   1.620   1.798   5.151 -4.5948  3.0893  0.6580
  155DOPC  H18Y18689   1.630   1.978   5.177  2.1026 -0.4086  0.5977
  155DOPC  H18Z18690   1.618   1.911   5.016  0.3666  0.2890 -0.9648
  156DOPC     N18691   4.843   5.686   7.876  0.6539  0.4616  0.2333
  156DOPC   C1218692   4.882   5.567   7.792 -0.1465 -0.0676 -0.2212
  156DOPC  H12A18693   4.788   5.532   7.752 -0.8346 -0.1238  1.3731
  156DOPC  H12B18694   4.904   5.478   7.849  2.6874  0.1554 -0.8060
  156DOPC   C1318695   4.801   5.810   7.800 -0.0903  0.3352  0.2603
  156DOPC  H13A18696   4.715   5.797   7.736 -0.6545 -3.1913  1.5308
  156DOPC  H13B18697   4.783   5.887   7.874  0.0125  0.0928  0.5384
  156DOPC  H13C18698   4.886   5.843   7.743 -2.0657  1.3722 -2.3063
  156DOPC   C1418699   4.958   5.718   7.969 -0.3181 -0.2372 -0.3421
  156DOPC  H14A18700   5.049   5.734   7.913 -0.6782 -0.4167 -0.9795
  156DOPC  H14B18701   4.931   5.797   8.038 -1.4261 -1.5172  0.7546
  156DOPC  H14C18702   4.975   5.637   8.039 -1.4085  1.2900  1.8207
  156DOPC   C1518703   4.719   5.645   7.962 -0.7997 -0.6782 -0.4418
  156DOPC  H15A18704   4.637   5.630   7.894  1.8224 -0.0598 -4.0393
  156DOPC  H15B18705   4.688   5.725   8.029 -0.4072 -0.5938 -0.3601
  156DOPC  H15C18706   4.743   5.557   8.020 -0.2927 -1.2056 -1.4423
  156DOPC   C1118707   4.985   5.585   7.675  0.0425 -0.1720 -0.0360
  156DOPC  H11A18708   4.994   5.495   7.611 -1.4165 -0.5916  0.3180
  156DOPC  H11B18709   4.946   5.672   7.618  2.6334  1.8517  1.0413
  156DOPC     P18710   5.219   5.512   7.741 -0.3730 -0.1424 -0.2386
  156DOPC   O1318711   5.156   5.382   7.772  0.7839  0.1030 -0.8269
  156DOPC   O1418712   5.333   5.568   7.823  0.4959 -0.3068 -0.3709
  156DOPC   O1218713   5.113   5.622   7.730  0.2625  0.1500  0.1554
  156DOPC   O1118714   5.276   5.496   7.594  0.5226  0.4551  0.0396
  156DOPC    C118715   5.294   5.621   7.525 -0.0895  0.1256  0.5203
  156DOPC    HA18716   5.397   5.661   7.539  0.5175 -0.0602 -2.7318
  156DOPC    HB18717   5.229   5.707   7.555  1.0855  0.5184  2.1126
  156DOPC    C218718   5.272   5.595   7.370  0.2015  0.3509  0.7221
  156DOPC    HS18719   5.273   5.688   7.308 -2.4718 -0.2867 -0.3935
  156DOPC   O2118720   5.150   5.523   7.343 -0.0989  0.1722  0.0265
  156DOPC   C2118721   5.044   5.599   7.344 -0.2595  0.1924  1.0297
  156DOPC   O2218722   5.037   5.715   7.379 -0.1628 -0.0706  0.2832
  156DOPC   C2218723   4.925   5.520   7.297 -0.4884  0.1782 -0.3072
  156DOPC   H2R18724   4.902   5.435   7.364  1.3557 -0.5018 -0.4907
  156DOPC   H2S18725   4.936   5.479   7.194 -0.3572  2.1482 -1.1214
  156DOPC    C318726   5.389   5.507   7.323  0.1217  0.6003 -0.1480
  156DOPC    HX18727   5.378   5.414   7.383  2.2189  0.3374 -0.0757
  156DOPC    HY18728   5.484   5.557   7.352 -0.3965  0.7383  1.3778
  156DOPC   O3118729   5.388   5.476   7.178 -0.4295 -0.2292  0.0811
  156DOPC   C3118730   5.362   5.349   7.140  0.0873  0.3555 -0.1366
  156DOPC   O3218731   5.385   5.254   7.210  0.4171  0.4659  1.0416
  156DOPC   C3218732   5.312   5.336   6.995  0.8694  0.1648 -0.0135
  156DOPC   H2X18733   5.294   5.229   6.973 -0.0767 -0.2235  2.2867
  156DOPC   H2Y18734   5.215   5.390   6.992  0.7837  0.1281  1.3313
  156DOPC   C2318735   4.789   5.608   7.293  0.9445 -0.4192 -0.1432
  156DOPC   H3R18736   4.784   5.679   7.378  0.2759 -0.4515 -0.1525
  156DOPC   H3S18737   4.706   5.535   7.309 -0.3323  0.8578 -0.7683
  156DOPC   C2418738   4.766   5.679   7.156  0.2777  0.2155  0.1791
  156DOPC   H4R18739   4.763   5.594   7.084 -0.0681 -0.7743  1.3295
  156DOPC   H4S18740   4.866   5.722   7.136  0.1458  0.3699 -0.1715
  156DOPC   C2518741   4.660   5.784   7.141  0.6360  0.9950  0.1076
  156DOPC   H5R18742   4.641   5.839   7.236 -1.5343 -0.4465  0.6108
  156DOPC   H5S18743   4.559   5.742   7.121  0.7865 -0.5198  2.1639
  156DOPC   C2618744   4.691   5.880   7.031  0.3025  0.1957  0.2243
  156DOPC   H6R18745   4.728   5.821   6.944 -1.0108 -0.6705  0.2167
  156DOPC   H6S18746   4.764   5.956   7.064  2.5088 -1.1794 -1.1770
  156DOPC   C2718747   4.561   5.940   6.966 -0.1281  0.5566 -0.0090
  156DOPC   H7R18748   4.516   6.006   7.043  2.0396  0.4651  1.4329
  156DOPC   H7S18749   4.484   5.864   6.939 -0.2490  0.9777 -0.9089
  156DOPC   C2818750   4.586   6.023   6.835  0.1634  0.1411  0.2210
  156DOPC   H8R18751   4.495   6.050   6.778  0.2344  0.2460  0.1552
  156DOPC   H8S18752   4.649   5.971   6.759  1.2595  2.7385 -0.7577
  156DOPC   C2918753   4.652   6.157   6.867  0.0554 -0.2853  0.5047
  156DOPC   H9R18754   4.591   6.228   6.926 -2.0128 -0.7586 -0.9850
  156DOPC  C21018755   4.767   6.199   6.813 -0.1463  0.1636  0.0245
  156DOPC  H10R18756   4.812   6.290   6.856  4.1899 -1.8120  0.0777
  156DOPC  C21118757   4.865   6.119   6.732 -0.2339  0.1165  0.5822
  156DOPC  H11R18758   4.896   6.171   6.639  2.5385 -1.1122  0.6970
  156DOPC  H11S18759   4.822   6.023   6.696  1.4714 -0.0918 -1.1080
  156DOPC  C21218760   4.992   6.071   6.810  0.3871  0.5594  0.3798
  156DOPC  H12R18761   4.950   6.005   6.888 -1.6989  0.3481 -0.8608
  156DOPC  H12S18762   5.027   6.158   6.871  2.5177 -1.3624  2.0734
  156DOPC  C21318763   5.095   6.003   6.724  0.0383 -0.0629  0.2785
  156DOPC  H13R18764   5.120   6.077   6.646  1.1146  0.1972  0.8430
  156DOPC  H13S18765   5.058   5.911   6.673  0.5792  1.0705 -2.3025
  156DOPC  C21418766   5.230   5.967   6.790 -0.3653 -0.4466 -0.4754
  156DOPC  H14R18767   5.260   6.057   6.848 -0.8625 -0.6457  0.1097
  156DOPC  H14S18768   5.302   5.940   6.709  1.7184  2.4936  0.2387
  156DOPC  C21518769   5.221   5.841   6.880 -0.0827  0.0403 -0.1721
  156DOPC  H15R18770   5.186   5.764   6.808  0.1119  0.3693 -0.6286
  156DOPC  H15S18771   5.143   5.858   6.957 -1.1949 -3.8931 -0.2349
  156DOPC  C21618772   5.357   5.804   6.954 -0.4961 -0.3106 -0.2262
  156DOPC  H16R18773   5.342   5.708   7.006  1.2732 -0.7822 -0.5177
  156DOPC  H16S18774   5.377   5.882   7.030 -2.9825  0.1686  0.0335
  156DOPC  C21718775   5.476   5.796   6.853 -1.1366  0.5937 -0.1395
  156DOPC  H17R18776   5.491   5.898   6.811 -0.9929 -0.3989 -2.6667
  156DOPC  H17S18777   5.460   5.724   6.770 -0.6747  1.3029 -0.8513
  156DOPC  C21818778   5.613   5.756   6.922 -0.2910  0.1183 -0.6855
  156DOPC  H18R18779   5.605   5.650   6.954 -1.6096  0.9701  2.0496
  156DOPC  H18S18780   5.636   5.824   7.006  1.9351 -1.3826 -0.0021
  156DOPC  H18T18781   5.700   5.761   6.852 -0.0220 -0.6688 -0.4197
  156DOPC   C3318782   5.399   5.407   6.892  0.2883 -0.4319  0.3737
  156DOPC   H3X18783   5.405   5.518   6.900  0.9855 -0.4468  0.1115
  156DOPC   H3Y18784   5.351   5.385   6.794  2.7020 -1.9188 -0.5485
  156DOPC   C3418785   5.538   5.347   6.881 -0.3548  0.2733  0.2067
  156DOPC   H4X18786   5.532   5.238   6.902 -1.2098  0.1656 -0.5615
  156DOPC   H4Y18787   5.599   5.377   6.969  0.0716 -1.2090  0.4518
  156DOPC   C3518788   5.605   5.372   6.745  0.4269 -0.4520 -0.2317
  156DOPC   H5X18789   5.610   5.481   6.722 -0.3542 -0.3892 -0.1271
  156DOPC   H5Y18790   5.545   5.322   6.666 -0.1595  1.4153 -1.0208
  156DOPC   C3618791   5.750   5.333   6.746 -0.1822 -0.2916  0.2356
  156DOPC   H6X18792   5.795   5.381   6.836  0.8559 -0.8572  0.0416
  156DOPC   H6Y18793   5.752   5.223   6.755  0.2862 -0.3797 -0.7488
  156DOPC   C3718794   5.848   5.381   6.636  0.3862  0.6073 -0.2094
  156DOPC   H7X18795   5.940   5.320   6.650 -1.0085 -1.1124  2.3246
  156DOPC   H7Y18796   5.804   5.355   6.538  0.6746 -0.6168 -0.0327
  156DOPC   C3818797   5.873   5.534   6.650 -0.3479  1.3947 -0.4872
  156DOPC   H8X18798   5.897   5.552   6.757  1.3187  2.4241 -0.9981
  156DOPC   H8Y18799   5.780   5.587   6.619 -1.2441 -0.1105 -0.4939
  156DOPC   C3918800   5.994   5.571   6.568 -0.3568 -0.5179 -0.1076
  156DOPC   H9X18801   6.089   5.556   6.622 -1.3960 -2.7336  1.2458
  156DOPC  C31018802   5.990   5.633   6.447 -0.4901 -0.0075 -0.3325
  156DOPC  H10X18803   6.087   5.661   6.404 -1.6386 -0.9689 -3.9499
  156DOPC  C31118804   5.873   5.669   6.365 -0.4083 -0.4005 -0.7261
  156DOPC  H11X18805   5.875   5.779   6.348  1.9554 -0.2607  0.0218
  156DOPC  H11Y18806   5.774   5.660   6.414 -0.3808  0.8826 -0.3901
  156DOPC  C31218807   5.879   5.589   6.232 -0.3823 -0.4641 -0.3559
  156DOPC  H12X18808   5.858   5.482   6.253  1.0075 -0.7253 -0.1505
  156DOPC  H12Y18809   5.979   5.599   6.183 -0.1044  1.2480  0.4884
  156DOPC  C31318810   5.771   5.643   6.136 -0.0663 -0.6769  0.7066
  156DOPC  H13X18811   5.676   5.651   6.193 -0.1796 -1.2332  0.6025
  156DOPC  H13Y18812   5.796   5.742   6.091  1.8152 -0.5043  2.0119
  156DOPC  C31418813   5.748   5.552   6.018 -0.1467  0.0151 -0.0872
  156DOPC  H14X18814   5.697   5.611   5.939  3.1531 -0.1752 -2.5697
  156DOPC  H14Y18815   5.846   5.526   5.974 -0.6783  0.1915 -1.4154
  156DOPC  C31518816   5.669   5.429   6.051  0.8847  0.6473  0.3853
  156DOPC  H15X18817   5.572   5.475   6.076  0.7961  1.2522 -1.0180
  156DOPC  H15Y18818   5.710   5.381   6.143  1.8950 -0.7243 -0.7303
  156DOPC  C31618819   5.655   5.329   5.937 -0.3652 -1.2003  0.0740
  156DOPC  H16X18820   5.564   5.267   5.949  1.6625 -4.5513 -0.6612
  156DOPC  H16Y18821   5.630   5.383   5.843 -1.8267 -0.3060  0.9397
  156DOPC  C31718822   5.772   5.228   5.919 -0.2003 -0.3318  0.1875
  156DOPC  H17X18823   5.861   5.294   5.913  1.3788 -2.3287  0.6136
  156DOPC  H17Y18824   5.778   5.163   6.009 -1.3075  0.2177  0.6799
  156DOPC  C31818825   5.763   5.149   5.785  0.6082  0.8161 -0.3163
  156DOPC  H18X18826   5.660   5.110   5.773  0.3034  1.4658  0.1229
  156DOPC  H18Y18827   5.780   5.217   5.699  0.8304  1.1083 -0.0467
  156DOPC  H18Z18828   5.839   5.068   5.786 -0.5010 -0.2575 -0.7101
  157DOPC     N18829   5.263   2.322   7.798 -0.0836 -0.5357 -0.0240
  157DOPC   C1218830   5.292   2.287   7.654 -0.3296 -0.0637  0.6317
  157DOPC  H12A18831   5.288   2.373   7.589  0.5322  0.2855  1.0220
  157DOPC  H12B18832   5.207   2.230   7.621 -0.2784  1.2306 -1.9499
  157DOPC   C1318833   5.121   2.367   7.801  0.0543 -0.2299 -0.7992
  157DOPC  H13A18834   5.096   2.452   7.739 -0.3607 -1.1854 -1.9887
  157DOPC  H13B18835   5.054   2.282   7.789 -1.1301  0.6076 -0.3188
  157DOPC  H13C18836   5.100   2.397   7.902  2.4530 -1.3921  0.1276
  157DOPC   C1418837   5.344   2.440   7.848  0.3488  0.7329 -0.0836
  157DOPC  H14A18838   5.335   2.521   7.776  0.9338  1.7414  0.9477
  157DOPC  H14B18839   5.319   2.467   7.950 -0.0433  0.1763 -0.0289
  157DOPC  H14C18840   5.447   2.411   7.849  0.6411  1.7367  0.0949
  157DOPC   C1518841   5.278   2.208   7.894  0.8251 -0.3391 -0.6513
  157DOPC  H15A18842   5.239   2.230   7.992 -0.0178  0.1150 -1.0838
  157DOPC  H15B18843   5.385   2.192   7.900  1.0588  1.1767 -0.5773
  157DOPC  H15C18844   5.218   2.122   7.870  0.8308 -1.0595  1.6358
  157DOPC   C1118845   5.417   2.200   7.636  0.6102  0.3795  0.3157
  157DOPC  H11A18846   5.437   2.214   7.528 -3.2454  0.1066 -0.5724
  157DOPC  H11B18847   5.496   2.245   7.700  1.5074  0.5790 -0.8905
  157DOPC     P18848   5.339   1.953   7.589 -0.2767  0.2821 -0.2246
  157DOPC   O1318849   5.211   1.914   7.658  0.3271  0.0959 -1.1114
  157DOPC   O1418850   5.443   1.846   7.581  0.0952 -0.3780 -0.3033
  157DOPC   O1218851   5.394   2.066   7.677 -0.6551 -0.2782  0.4225
  157DOPC   O1118852   5.298   2.021   7.448 -0.2606 -0.3011 -0.1858
  157DOPC    C118853   5.401   2.028   7.344 -0.0483  0.0046 -0.6891
  157DOPC    HA18854   5.505   2.019   7.382  0.2072  2.8327 -0.5333
  157DOPC    HB18855   5.390   2.124   7.289  0.2983 -0.3294 -1.3423
  157DOPC    C218856   5.389   1.919   7.235 -0.3332  0.5614  0.3380
  157DOPC    HS18857   5.452   1.953   7.151 -2.4323  0.7238 -1.2472
  157DOPC   O2118858   5.249   1.902   7.194 -0.2952  0.0435 -0.1838
  157DOPC   C2118859   5.199   1.989   7.105 -0.5538 -0.4293 -0.2506
  157DOPC   O2218860   5.263   2.067   7.039  0.0004  0.1032  0.2666
  157DOPC   C2218861   5.049   1.966   7.096 -0.0568 -0.1712  0.6930
  157DOPC   H2R18862   5.009   1.958   7.199 -2.4281 -1.6909 -0.2635
  157DOPC   H2S18863   5.040   1.872   7.038  2.6962 -0.2331  0.2114
  157DOPC    C318864   5.449   1.779   7.268  0.3017  0.7792 -0.2861
  157DOPC    HX18865   5.383   1.726   7.339 -2.1969  2.4156 -1.2171
  157DOPC    HY18866   5.545   1.801   7.318 -0.7095  0.6451  1.8188
  157DOPC   O3118867   5.470   1.707   7.144  0.1674  0.6690  0.4728
  157DOPC   C3118868   5.472   1.571   7.153  0.5277  0.6967  0.0779
  157DOPC   O3218869   5.479   1.514   7.267  0.0903  0.4414  0.1787
  157DOPC   C3218870   5.464   1.501   7.017 -0.5227  0.4318 -0.3659
  157DOPC   H2X18871   5.569   1.498   6.979 -0.5282  0.0753 -0.3498
  157DOPC   H2Y18872   5.438   1.396   7.040 -0.3519  0.9922  2.8308
  157DOPC   C2318873   4.968   2.077   7.019 -0.2422  0.3283 -0.4717
  157DOPC   H3R18874   5.033   2.166   7.005  1.0725 -0.5186  0.0905
  157DOPC   H3S18875   4.875   2.095   7.077 -0.5470 -0.3351 -0.7330
  157DOPC   C2418876   4.937   2.030   6.872  0.1929 -0.4528  0.3855
  157DOPC   H4R18877   4.883   2.120   6.835  2.8675  2.3304  2.7679
  157DOPC   H4S18878   4.874   1.938   6.879  0.7726 -0.7681  1.5766
  157DOPC   C2518879   5.068   2.015   6.787 -0.0295  0.7193  0.3476
  157DOPC   H5R18880   5.127   1.926   6.817 -1.9920  0.1043  2.6549
  157DOPC   H5S18881   5.129   2.107   6.799 -0.0154  0.6530  0.8054
  157DOPC   C2618882   5.048   2.009   6.639 -0.1243  1.0085  0.8759
  157DOPC   H6R18883   4.995   2.097   6.596 -0.5388  1.3171  2.0015
  157DOPC   H6S18884   4.986   1.922   6.607  2.6611 -0.3584 -1.2171
  157DOPC   C2718885   5.177   1.989   6.564 -0.4666 -0.1657  0.4759
  157DOPC   H7R18886   5.225   1.894   6.599 -0.2126 -1.4794 -3.0571
  157DOPC   H7S18887   5.258   2.063   6.583  0.2123 -0.2567 -1.7402
  157DOPC   C2818888   5.159   1.961   6.414 -0.2729 -0.3884  0.3820
  157DOPC   H8R18889   5.085   1.878   6.408  0.0338 -0.8374  2.2498
  157DOPC   H8S18890   5.253   1.929   6.364  0.8930  0.4678  1.9477
  157DOPC   C2918891   5.109   2.083   6.339  0.4647 -1.0050  0.3921
  157DOPC   H9R18892   5.081   2.164   6.408 -0.7651 -1.4271  0.4031
  157DOPC  C21018893   5.089   2.094   6.202  0.7244 -0.6271 -0.6701
  157DOPC  H10R18894   5.038   2.187   6.175 -0.1976 -1.1851 -0.9056
  157DOPC  C21118895   5.135   1.995   6.093 -0.1229 -0.4391 -0.2270
  157DOPC  H11R18896   5.235   1.955   6.117 -0.7800 -1.7265  0.4751
  157DOPC  H11S18897   5.139   2.047   5.994 -0.0732  0.7445  0.3757
  157DOPC  C21218898   5.041   1.885   6.063 -0.3639 -0.0594 -0.9331
  157DOPC  H12R18899   4.944   1.935   6.041 -0.4433  0.8211  1.2399
  157DOPC  H12S18900   5.032   1.828   6.157  0.2387 -0.6097 -1.1998
  157DOPC  C21318901   5.086   1.780   5.961 -0.1429 -0.6003 -0.0322
  157DOPC  H13R18902   5.159   1.709   6.005  0.9201  1.3734  1.5352
  157DOPC  H13S18903   5.121   1.826   5.867 -0.2139 -0.4433  0.0184
  157DOPC  C21418904   4.967   1.685   5.926  0.4123  0.5858 -0.3523
  157DOPC  H14R18905   4.879   1.735   5.882 -2.4095 -4.2389 -0.8547
  157DOPC  H14S18906   4.924   1.634   6.015 -0.9428  1.3383 -0.5561
  157DOPC  C21518907   5.016   1.569   5.840 -1.0186 -0.3748  0.0923
  157DOPC  H15R18908   5.105   1.523   5.889 -0.2424  1.9992  1.0138
  157DOPC  H15S18909   5.053   1.602   5.741  0.1483 -1.1821  0.2343
  157DOPC  C21618910   4.901   1.470   5.820 -0.4988  0.0695  0.3886
  157DOPC  H16R18911   4.831   1.506   5.742  0.1448 -0.3260 -0.3866
  157DOPC  H16S18912   4.846   1.462   5.916  1.3648 -0.5892  1.4492
  157DOPC  C21718913   4.961   1.331   5.778 -0.1252  0.6457 -0.3074
  157DOPC  H17R18914   5.022   1.290   5.862 -1.0172  0.4300  0.2421
  157DOPC  H17S18915   5.025   1.339   5.688  0.3530 -0.9493 -0.1408
  157DOPC  C21818916   4.852   1.223   5.752 -0.0348 -0.1046  0.1575
  157DOPC  H18R18917   4.898   1.142   5.691 -2.3331 -1.8101  0.5486
  157DOPC  H18S18918   4.761   1.249   5.693 -1.0839  1.6579  2.4028
  157DOPC  H18T18919   4.814   1.185   5.849 -0.8255  1.6691  0.5904
  157DOPC   C3318920   5.365   1.558   6.907  0.1805  0.1263  0.3109
  157DOPC   H3X18921   5.380   1.504   6.812  1.4346  1.8693 -0.5444
  157DOPC   H3Y18922   5.396   1.661   6.880  2.5435 -0.6628 -0.2448
  157DOPC   C3418923   5.219   1.546   6.945 -0.2877  0.2448  0.2205
  157DOPC   H4X18924   5.207   1.607   7.037 -1.2931 -0.0545  0.2947
  157DOPC   H4Y18925   5.179   1.444   6.965 -3.4533  1.3614  0.0400
  157DOPC   C3518926   5.135   1.616   6.834  0.6361  0.1442 -0.3765
  157DOPC   H5X18927   5.189   1.598   6.738  2.7796  1.8440  0.4397
  157DOPC   H5Y18928   5.138   1.725   6.856 -2.3803  0.2133  0.0673
  157DOPC   C3618929   4.988   1.571   6.840 -0.5556 -0.0709 -0.1392
  157DOPC   H6X18930   4.972   1.465   6.812  2.1505 -0.7376  0.4769
  157DOPC   H6Y18931   4.966   1.586   6.948 -0.1409 -0.5398  0.0162
  157DOPC   C3718932   4.904   1.657   6.746 -0.4808 -0.2319  0.2406
  157DOPC   H7X18933   4.893   1.758   6.790 -2.3520 -0.5534  0.5697
  157DOPC   H7Y18934   4.952   1.672   6.647 -2.3652 -0.9325 -0.8221
  157DOPC   C3818935   4.768   1.587   6.725 -0.4759  1.0194  0.5630
  157DOPC   H8X18936   4.731   1.550   6.823 -0.6904 -0.5582 -0.0756
  157DOPC   H8Y18937   4.777   1.494   6.665 -0.3794  0.8563  0.8298
  157DOPC   C3918938   4.665   1.668   6.638 -0.3264  0.3371 -0.1029
  157DOPC   H9X18939   4.576   1.708   6.689 -0.4677  0.3338 -0.3405
  157DOPC  C31018940   4.669   1.684   6.507 -0.0258  0.4071 -0.5398
  157DOPC  H10X18941   4.583   1.736   6.462 -0.6867 -0.3531 -0.1840
  157DOPC  C31118942   4.777   1.633   6.415  0.1969 -0.4859  0.4057
  157DOPC  H11X18943   4.858   1.584   6.474 -0.8535 -1.3534  1.1837
  157DOPC  H11Y18944   4.825   1.717   6.361 -0.8202 -0.2952 -0.2407
  157DOPC  C31218945   4.735   1.538   6.305  0.1681 -0.2302  0.2651
  157DOPC  H12X18946   4.664   1.464   6.347 -1.2943  1.2299  0.4370
  157DOPC  H12Y18947   4.821   1.486   6.257  0.1103  0.0559 -0.1536
  157DOPC  C31318948   4.661   1.614   6.192 -0.4662  0.3263  0.6310
  157DOPC  H13X18949   4.578   1.670   6.239  1.2832  2.2322  1.5854
  157DOPC  H13Y18950   4.734   1.687   6.150  0.0558 -0.8605 -0.6269
  157DOPC  C31418951   4.627   1.514   6.084  0.2029 -0.0072  0.0014
  157DOPC  H14X18952   4.710   1.450   6.049  0.4303  0.2903 -0.0088
  157DOPC  H14Y18953   4.539   1.451   6.110  0.9448 -0.2588  2.0607
  157DOPC  C31518954   4.578   1.597   5.957 -0.5836  0.6325 -0.4004
  157DOPC  H15X18955   4.670   1.648   5.922  0.1282  0.5047  1.1898
  157DOPC  H15Y18956   4.509   1.672   6.001  0.0161  1.2271 -0.4687
  157DOPC  C31618957   4.515   1.516   5.846  0.5360  0.0901 -0.2214
  157DOPC  H16X18958   4.585   1.436   5.811 -1.4884 -1.6161 -0.5448
  157DOPC  H16Y18959   4.428   1.456   5.878  1.1120 -0.2839  0.7027
  157DOPC  C31718960   4.452   1.593   5.726 -0.3341  0.7804 -0.4738
  157DOPC  H17X18961   4.380   1.671   5.756 -0.4540  1.0108 -1.3252
  157DOPC  H17Y18962   4.537   1.644   5.675 -0.1965 -0.5014 -1.6002
  157DOPC  C31818963   4.384   1.500   5.617 -0.2800 -0.2531  0.1496
  157DOPC  H18X18964   4.455   1.426   5.574 -0.1163 -0.9625  1.5806
  157DOPC  H18Y18965   4.310   1.440   5.674  0.5040 -2.6820 -1.2658
  157DOPC  H18Z18966   4.327   1.563   5.546  0.4346 -0.4252 -0.5859
  158DOPC     N18967   4.636   6.597   7.798  0.0254  0.0229  1.0045
  158DOPC   C1218968   4.509   6.680   7.838 -0.4003  0.0099  0.1850
  158DOPC  H12A18969   4.506   6.678   7.946  0.9634 -0.2760  0.2353
  158DOPC  H12B18970   4.417   6.632   7.810 -0.7194  0.5862  0.2214
  158DOPC   C1318971   4.747   6.664   7.870  0.2841  0.4870 -0.5462
  158DOPC  H13A18972   4.754   6.769   7.848  0.6018  0.4574 -0.5968
  158DOPC  H13B18973   4.739   6.643   7.976  1.2597  0.4143 -0.4750
  158DOPC  H13C18974   4.840   6.617   7.842  0.0749 -1.4842  1.7277
  158DOPC   C1418975   4.684   6.601   7.653 -0.2340  0.2023 -0.3401
  158DOPC  H14A18976   4.781   6.554   7.645  0.2868  1.3207 -0.8956
  158DOPC  H14B18977   4.631   6.533   7.588  1.9550 -1.2099 -0.7524
  158DOPC  H14C18978   4.687   6.701   7.612 -1.9131  0.7075  0.6642
  158DOPC   C1518979   4.630   6.455   7.840  0.2267  0.0589  0.0002
  158DOPC  H15A18980   4.612   6.451   7.947 -0.8097 -1.7347 -0.2057
  158DOPC  H15B18981   4.720   6.402   7.814  0.5812  1.0114 -0.7977
  158DOPC  H15C18982   4.539   6.415   7.799 -1.3103  1.4638  1.8556
  158DOPC   C1118983   4.504   6.834   7.822 -0.4169 -0.1615  0.1080
  158DOPC  H11A18984   4.403   6.867   7.855  0.3499  0.5182  1.8678
  158DOPC  H11B18985   4.578   6.869   7.897  1.4993 -0.2545 -1.6659
  158DOPC     P18986   4.422   6.858   7.577 -0.3208 -0.0991 -0.0575
  158DOPC   O1318987   4.357   6.990   7.555  0.0537  0.5672  0.7352
  158DOPC   O1418988   4.333   6.742   7.605 -0.0914  0.0465  0.4069
  158DOPC   O1218989   4.538   6.868   7.687 -0.2700 -0.4191 -0.0215
  158DOPC   O1118990   4.510   6.821   7.448  0.0897  0.2656  0.6758
  158DOPC    C118991   4.614   6.914   7.401 -0.1914  0.8023  0.1680
  158DOPC    HA18992   4.694   6.858   7.349 -0.3533 -0.8086  1.5672
  158DOPC    HB18993   4.653   6.985   7.477  1.5710  2.6311 -2.2899
  158DOPC    C218994   4.553   6.991   7.284  0.7173  0.1809  0.7825
  158DOPC    HS18995   4.463   7.041   7.326  0.5936  1.4795 -0.9326
  158DOPC   O2118996   4.525   6.900   7.178  0.7776 -0.3213  0.1450
  158DOPC   C2118997   4.416   6.937   7.109  0.3502  0.7431  0.8389
  158DOPC   O2218998   4.338   7.025   7.142  0.5272  0.3163 -0.0073
  158DOPC   C2218999   4.405   6.840   6.988 -0.5237 -0.5194 -0.4675
  158DOPC   H2R19000   4.308   6.850   6.934 -1.9883 -0.5655  2.0428
  158DOPC   H2S19001   4.408   6.742   7.041  4.3925 -0.5779 -0.3610
  158DOPC    C319002   4.639   7.113   7.235  0.1181  0.1102  0.2119
  158DOPC    HX19003   4.666   7.185   7.315  0.3557 -0.1594  0.3782
  158DOPC    HY19004   4.566   7.170   7.173 -1.2154 -1.5386  0.1945
  158DOPC   O3119005   4.752   7.071   7.157  0.3406  0.2206 -0.9946
  158DOPC   C3119006   4.863   7.065   7.231  0.3815  0.0802  0.9176
  158DOPC   O3219007   4.883   7.089   7.347  0.5078 -0.2238 -0.1416
  158DOPC   C3219008   4.977   7.036   7.131 -0.4019 -0.7386  0.7596
  158DOPC   H2X19009   4.931   7.045   7.030 -1.2878 -2.2364  1.0004
  158DOPC   H2Y19010   5.050   7.118   7.146 -1.5299  0.0898  1.8701
  158DOPC   C2319011   4.523   6.850   6.884  0.2141 -0.6814 -0.1103
  158DOPC   H3R19012   4.534   6.751   6.835  0.1211 -0.3045 -0.9043
  158DOPC   H3S19013   4.613   6.869   6.947 -0.2738  0.7909  0.1945
  158DOPC   C2419014   4.486   6.946   6.770 -0.0091 -0.1636  0.5421
  158DOPC   H4R19015   4.381   6.917   6.750  0.2769 -3.3777  2.9368
  158DOPC   H4S19016   4.560   6.923   6.690 -0.8096  0.5752 -0.4427
  158DOPC   C2519017   4.503   7.096   6.812  0.1548 -0.2331  0.4813
  158DOPC   H5R19018   4.455   7.120   6.909 -3.1342 -1.4690 -0.6809
  158DOPC   H5S19019   4.447   7.173   6.754 -2.3809 -1.4657  1.1298
  158DOPC   C2619020   4.656   7.133   6.811 -0.1468  0.2256 -0.2452
  158DOPC   H6R19021   4.699   7.105   6.713 -0.8073  1.8904 -1.0436
  158DOPC   H6S19022   4.704   7.076   6.893 -1.8372 -1.1091 -0.1254
  158DOPC   C2719023   4.675   7.285   6.845 -0.6533 -0.1267  0.1882
  158DOPC   H7R19024   4.618   7.317   6.934 -1.4122 -1.4698  0.2172
  158DOPC   H7S19025   4.631   7.343   6.761  0.1002  2.6980  1.6132
  158DOPC   C2819026   4.821   7.333   6.886  0.2034 -0.5247  0.0836
  158DOPC   H8R19027   4.839   7.284   6.984 -0.4039 -1.2742 -0.1671
  158DOPC   H8S19028   4.817   7.444   6.895  0.0648 -0.5430  0.2357
  158DOPC   C2919029   4.911   7.279   6.779  0.0089 -0.3994 -0.5977
  158DOPC   H9R19030   4.926   7.170   6.783  1.7561 -0.1452  0.6328
  158DOPC  C21019031   4.983   7.343   6.682 -0.0633 -1.0153  1.1093
  158DOPC  H10R19032   5.035   7.285   6.604 -1.4833 -0.3178 -0.4360
  158DOPC  C21119033   4.973   7.493   6.667  0.4920 -0.7163  0.6288
  158DOPC  H11R19034   5.057   7.544   6.615  0.0073  0.6043  1.1031
  158DOPC  H11S19035   4.960   7.545   6.764  0.7306  3.0812 -1.1999
  158DOPC  C21219036   4.835   7.542   6.602  0.0528  0.1812  0.6698
  158DOPC  H12R19037   4.837   7.653   6.594 -0.4518  0.2041  0.8429
  158DOPC  H12S19038   4.751   7.508   6.667 -2.8983  1.6340 -2.1011
  158DOPC  C21319039   4.800   7.486   6.460  0.0470  0.2528  0.1201
  158DOPC  H13R19040   4.710   7.543   6.432  1.5986  2.6792 -0.2011
  158DOPC  H13S19041   4.786   7.376   6.458  4.4008 -0.4922 -0.2046
  158DOPC  C21419042   4.909   7.527   6.358  0.0335  0.3213 -0.2550
  158DOPC  H14R19043   5.000   7.503   6.417 -1.4411 -1.2742  1.4725
  158DOPC  H14S19044   4.904   7.638   6.366  0.6586  0.2547  1.2339
  158DOPC  C21519045   4.896   7.449   6.230 -0.0743  0.1151 -0.1709
  158DOPC  H15R19046   4.879   7.340   6.244  3.1483 -0.2532  2.1800
  158DOPC  H15S19047   4.995   7.442   6.180  0.1331 -0.9214  0.3547
  158DOPC  C21619048   4.792   7.516   6.129  0.3536  0.6468 -0.1581
  158DOPC  H16R19049   4.789   7.626   6.143  0.2635  0.8529 -1.6031
  158DOPC  H16S19050   4.694   7.479   6.166  1.3073  0.9548  2.9131
  158DOPC  C21719051   4.810   7.472   5.986  0.0894 -0.5917  0.0400
  158DOPC  H17R19052   4.811   7.360   5.986 -0.6967 -0.6166  1.0413
  158DOPC  H17S19053   4.907   7.508   5.945 -0.5494 -0.0769 -1.0510
  158DOPC  C21819054   4.710   7.537   5.899  0.6241 -0.6716  0.1110
  158DOPC  H18R19055   4.732   7.500   5.797 -1.8384  2.3299 -1.7037
  158DOPC  H18S19056   4.715   7.648   5.901 -0.4458 -0.6171  1.7705
  158DOPC  H18T19057   4.604   7.520   5.929  0.0158 -0.3176 -1.7528
  158DOPC   C3319058   5.032   6.897   7.140 -0.5702  0.2399  0.2958
  158DOPC   H3X19059   5.045   6.876   7.249 -1.3278 -0.7029  0.2158
  158DOPC   H3Y19060   5.130   6.889   7.089 -1.3314  0.8598 -1.3395
  158DOPC   C3419061   4.944   6.784   7.089 -0.0352  0.2455 -0.0650
  158DOPC   H4X19062   4.844   6.771   7.137 -1.8806  2.2647 -3.0366
  158DOPC   H4Y19063   5.001   6.688   7.094  0.5642  0.3560 -3.0352
  158DOPC   C3519064   4.908   6.804   6.939  0.6797  0.5095  0.8507
  158DOPC   H5X19065   4.995   6.841   6.880  0.0359  1.0089  0.1888
  158DOPC   H5Y19066   4.828   6.881   6.932  0.5560  0.2961 -0.4346
  158DOPC   C3619067   4.845   6.676   6.873  0.0619  0.4843 -0.1281
  158DOPC   H6X19068   4.907   6.584   6.880 -3.3281 -2.0798 -0.6338
  158DOPC   H6Y19069   4.755   6.648   6.933  2.1854 -0.5630  2.7626
  158DOPC   C3719070   4.800   6.670   6.727  0.7136 -0.1718 -0.0261
  158DOPC   H7X19071   4.736   6.757   6.702 -1.4793 -1.3526  1.1714
  158DOPC   H7Y19072   4.873   6.642   6.648 -0.8300 -2.6965 -0.7030
  158DOPC   C3819073   4.716   6.545   6.700  0.9121 -0.6842  0.6345
  158DOPC   H8X19074   4.691   6.496   6.796  0.5750  0.6199  1.2290
  158DOPC   H8Y19075   4.767   6.464   6.643 -1.4805  0.2318 -3.1716
  158DOPC   C3919076   4.585   6.569   6.620 -0.0947  0.2035  0.0087
  158DOPC   H9X19077   4.491   6.573   6.676 -0.2281 -0.3626 -0.1751
  158DOPC  C31019078   4.584   6.589   6.486  0.8360 -0.0323  0.0986
  158DOPC  H10X19079   4.483   6.574   6.445 -0.7968  0.9983  3.3298
  158DOPC  C31119080   4.702   6.597   6.395 -0.0815 -0.1951  0.1508
  158DOPC  H11X19081   4.785   6.644   6.451  1.6079 -2.2065 -0.5436
  158DOPC  H11Y19082   4.686   6.664   6.308 -0.4347 -1.1615 -0.5565
  158DOPC  C31219083   4.748   6.455   6.345  0.5997 -0.3973 -0.5826
  158DOPC  H12X19084   4.665   6.406   6.290  0.8333  2.2737 -3.5922
  158DOPC  H12Y19085   4.782   6.393   6.431 -1.8805 -1.1295 -0.0743
  158DOPC  C31319086   4.871   6.460   6.244 -0.1951 -0.5140  0.5481
  158DOPC  H13X19087   4.843   6.512   6.150  1.8348 -1.0049 -0.3942
  158DOPC  H13Y19088   4.959   6.513   6.286  0.3440  0.8803 -2.1043
  158DOPC  C31419089   4.922   6.318   6.221  0.8542 -0.3410 -0.0299
  158DOPC  H14X19090   4.942   6.276   6.322 -0.9985  0.2519  0.6232
  158DOPC  H14Y19091   4.842   6.255   6.175 -0.2259 -0.9635  2.5168
  158DOPC  C31519092   5.043   6.323   6.128  0.5099 -0.3306 -0.3712
  158DOPC  H15X19093   5.125   6.370   6.186  0.6988 -2.2484  1.0080
  158DOPC  H15Y19094   5.016   6.383   6.039 -1.8322 -0.4098  0.2082
  158DOPC  C31619095   5.099   6.186   6.078  0.0926  0.6212 -0.2297
  158DOPC  H16X19096   5.188   6.173   6.143  0.7170  1.3151 -0.9279
  158DOPC  H16Y19097   5.031   6.101   6.099  1.5627 -1.3069 -2.6568
  158DOPC  C31719098   5.142   6.185   5.923  0.2155  0.5678 -0.2128
  158DOPC  H17X19099   5.194   6.282   5.909  1.2377  0.1094  0.3240
  158DOPC  H17Y19100   5.220   6.108   5.907 -0.9910 -1.1993  1.8336
  158DOPC  C31819101   5.033   6.156   5.829 -0.0785  0.0834 -0.2097
  158DOPC  H18X19102   5.004   6.052   5.854  3.0833 -0.6734  0.7636
  158DOPC  H18Y19103   4.948   6.224   5.850  0.0707  0.2751 -0.2225
  158DOPC  H18Z19104   5.066   6.163   5.723 -0.2261 -2.3484 -0.4611
  159DOPC     N19105   5.646   1.581   7.969  0.6835  0.4970  0.0731
  159DOPC   C1219106   5.678   1.448   7.904 -1.0803  0.1175  0.0514
  159DOPC  H12A19107   5.601   1.428   7.831 -1.3632 -1.3092  0.6981
  159DOPC  H12B19108   5.665   1.373   7.981 -2.5669 -0.5200 -0.7738
  159DOPC   C1319109   5.501   1.593   7.995  0.2350 -0.2821 -0.1745
  159DOPC  H13A19110   5.472   1.689   8.034 -0.4952 -0.2921 -0.6911
  159DOPC  H13B19111   5.450   1.576   7.902 -0.3001 -1.5621  0.3308
  159DOPC  H13C19112   5.458   1.514   8.055  0.9863 -0.7753 -0.2631
  159DOPC   C1419113   5.682   1.688   7.870 -0.2689 -0.5128  0.4434
  159DOPC  H14A19114   5.765   1.652   7.811 -0.6484 -0.6516 -0.0066
  159DOPC  H14B19115   5.600   1.719   7.807 -1.7958 -0.4145  2.3964
  159DOPC  H14C19116   5.726   1.771   7.924  0.3576 -1.4045  1.3354
  159DOPC   C1519117   5.712   1.598   8.098 -0.3279  0.1139 -0.9261
  159DOPC  H15A19118   5.678   1.526   8.171 -3.1328  2.0177 -0.2095
  159DOPC  H15B19119   5.695   1.689   8.152  0.7741  0.6099 -1.3694
  159DOPC  H15C19120   5.816   1.574   8.078 -0.6267 -3.3762  0.9385
  159DOPC   C1119121   5.819   1.417   7.838 -0.8037 -0.2138 -0.4327
  159DOPC  H11A19122   5.825   1.323   7.779  0.0386  0.2323 -1.0704
  159DOPC  H11B19123   5.837   1.489   7.756 -1.5095 -1.1232 -1.4182
  159DOPC     P19124   5.970   1.308   8.010 -0.2842 -0.0280 -0.3634
  159DOPC   O1319125   5.855   1.253   8.083 -0.5408 -0.1489 -0.2208
  159DOPC   O1419126   6.093   1.339   8.087  0.9051  0.2313 -0.3630
  159DOPC   O1219127   5.921   1.430   7.933  0.1194  0.0943 -0.4611
  159DOPC   O1119128   6.009   1.195   7.906 -0.0816 -0.5856  0.0299
  159DOPC    C119129   6.140   1.187   7.857 -0.2752  0.5737  0.1139
  159DOPC    HA19130   6.148   1.093   7.797 -3.7909  0.7281 -0.8196
  159DOPC    HB19131   6.214   1.193   7.940  0.0819 -2.1280  0.0879
  159DOPC    C219132   6.182   1.296   7.757  0.1463 -0.1710 -0.5286
  159DOPC    HS19133   6.156   1.389   7.813  0.5770 -0.7759  0.7007
  159DOPC   O2119134   6.108   1.267   7.636  0.7522 -0.6225  0.2906
  159DOPC   C2119135   6.070   1.369   7.576 -0.3364  0.4624 -0.3981
  159DOPC   O2219136   6.092   1.489   7.601 -0.3469  0.2602 -0.2339
  159DOPC   C2219137   5.974   1.322   7.467  0.0809 -0.4084 -0.0261
  159DOPC   H2R19138   5.866   1.317   7.495  0.4931  0.0563  1.7228
  159DOPC   H2S19139   6.003   1.219   7.436 -0.5524 -0.1940 -1.4583
  159DOPC    C319140   6.329   1.276   7.722  0.2659 -0.2190 -0.3223
  159DOPC    HX19141   6.340   1.188   7.654  0.5991 -1.3750  1.1704
  159DOPC    HY19142   6.402   1.245   7.800  2.3768  2.7321 -0.9910
  159DOPC   O3119143   6.384   1.384   7.646  0.5371  0.0407 -0.1687
  159DOPC   C3119144   6.454   1.472   7.723  0.4613  0.5156 -0.2110
  159DOPC   O3219145   6.449   1.474   7.842  0.5971  0.0222  0.1567
  159DOPC   C3219146   6.525   1.567   7.632  0.2881 -0.6494 -0.5366
  159DOPC   H2X19147   6.616   1.523   7.586  0.3595 -2.2072  0.9844
  159DOPC   H2Y19148   6.455   1.587   7.549 -0.9433  1.8161  0.9772
  159DOPC   C2319149   5.987   1.407   7.336  0.2054  0.7187  0.0282
  159DOPC   H3R19150   6.092   1.411   7.302  0.1923  3.7430  0.1023
  159DOPC   H3S19151   5.960   1.511   7.367  0.9126  0.5932  1.1142
  159DOPC   C2419152   5.889   1.375   7.221 -0.2792  0.3325 -0.7253
  159DOPC   H4R19153   5.917   1.445   7.139 -1.3255  0.1925 -1.2136
  159DOPC   H4S19154   5.783   1.390   7.249  0.0073 -3.1809  3.1245
  159DOPC   C2519155   5.912   1.227   7.172 -0.0938 -0.0129 -0.0535
  159DOPC   H5R19156   5.854   1.231   7.077 -0.5903 -0.1158  0.2470
  159DOPC   H5S19157   5.860   1.149   7.231 -1.6776  0.0145 -1.3527
  159DOPC   C2619158   6.060   1.180   7.150  0.5233  0.1682 -0.1580
  159DOPC   H6R19159   6.103   1.169   7.252 -0.5686 -1.7554  0.1632
  159DOPC   H6S19160   6.108   1.266   7.099  0.9169  1.2830  1.9805
  159DOPC   C2719161   6.055   1.050   7.074  0.7965  0.2614  0.1928
  159DOPC   H7R19162   5.971   1.052   7.001  2.2746 -0.4079 -1.5931
  159DOPC   H7S19163   6.042   0.972   7.152 -0.0510  0.8798  0.6916
  159DOPC   C2819164   6.191   1.022   7.020  0.1294 -0.1200  0.4756
  159DOPC   H8R19165   6.216   0.916   6.997  2.4753  0.4751  0.0283
  159DOPC   H8S19166   6.261   1.051   7.101  0.1195  0.8762  0.1345
  159DOPC   C2919167   6.215   1.117   6.898 -0.0883 -0.2313  0.1407
  159DOPC   H9R19168   6.227   1.222   6.925  0.9926 -0.6430  1.3494
  159DOPC  C21019169   6.249   1.089   6.771 -0.6082 -0.4444 -0.4926
  159DOPC  H10R19170   6.256   1.173   6.701 -0.9452  0.0648  0.0742
  159DOPC  C21119171   6.265   0.947   6.718  0.2453 -0.0289 -0.4732
  159DOPC  H11R19172   6.186   0.881   6.759  1.1146 -0.7553  0.0655
  159DOPC  H11S19173   6.360   0.900   6.751  1.5925  2.2262 -0.9112
  159DOPC  C21219174   6.263   0.923   6.565  0.2703  0.3842  0.2059
  159DOPC  H12R19175   6.265   0.814   6.541 -0.9718 -0.2182  2.4636
  159DOPC  H12S19176   6.361   0.959   6.530  0.1437 -0.6588 -1.3130
  159DOPC  C21319177   6.153   0.985   6.484  0.2012 -0.0129  0.4649
  159DOPC  H13R19178   6.157   1.096   6.481 -1.0828  0.0844  1.4630
  159DOPC  H13S19179   6.055   0.944   6.516  2.0171 -2.5168  3.3851
  159DOPC  C21419180   6.152   0.941   6.335  0.2785  0.2718 -0.2874
  159DOPC  H14R19181   6.252   0.960   6.292  0.5694  1.7254  0.9269
  159DOPC  H14S19182   6.089   1.017   6.282  2.0961  1.0900 -1.3622
  159DOPC  C21519183   6.099   0.800   6.305 -0.1488 -0.5371 -0.0866
  159DOPC  H15R19184   5.987   0.799   6.303 -0.1616 -2.2565  0.3946
  159DOPC  H15S19185   6.148   0.733   6.377 -0.9285 -0.2639  0.7195
  159DOPC  C21619186   6.136   0.740   6.167 -0.2179  0.4077 -0.3793
  159DOPC  H16R19187   6.085   0.796   6.085 -0.2677  0.1947 -0.4938
  159DOPC  H16S19188   6.093   0.638   6.167 -2.1692  1.0377  3.3651
  159DOPC  C21719189   6.283   0.743   6.141 -0.4555 -0.1953 -0.5188
  159DOPC  H17R19190   6.337   0.702   6.230 -3.6258  0.4266  1.8745
  159DOPC  H17S19191   6.322   0.844   6.118 -0.0521 -0.6911 -2.1493
  159DOPC  C21819192   6.323   0.652   6.032 -0.0678  0.1319  0.1787
  159DOPC  H18R19193   6.271   0.555   6.037  1.3235 -0.8864 -2.7494
  159DOPC  H18S19194   6.433   0.639   6.041 -0.3624 -1.4440  2.4128
  159DOPC  H18T19195   6.295   0.704   5.938  0.4869  0.2236  0.0579
  159DOPC   C3319196   6.551   1.713   7.698  0.3675  0.4168  0.3032
  159DOPC   H3X19197   6.595   1.768   7.611 -2.3499  0.2134 -1.3199
  159DOPC   H3Y19198   6.627   1.703   7.778 -0.5671 -0.8490  1.0655
  159DOPC   C3419199   6.425   1.783   7.740 -0.5189  0.5980 -0.0120
  159DOPC   H4X19200   6.446   1.848   7.828 -0.5887  0.4546  0.1102
  159DOPC   H4Y19201   6.353   1.715   7.791 -1.6497  1.1240 -0.8667
  159DOPC   C3519202   6.344   1.855   7.631 -0.3945 -0.0433 -0.1966
  159DOPC   H5X19203   6.252   1.886   7.686  0.4338 -3.1988  3.3946
  159DOPC   H5Y19204   6.318   1.785   7.548 -1.3291  1.4761 -1.2336
  159DOPC   C3619205   6.409   1.971   7.570 -0.4267 -0.6076  0.1539
  159DOPC   H6X19206   6.423   2.045   7.652 -0.1266  1.0700 -1.3564
  159DOPC   H6Y19207   6.512   1.958   7.529 -0.5374 -1.8074  0.2133
  159DOPC   C3719208   6.324   2.041   7.466  0.4157  0.0912  1.2795
  159DOPC   H7X19209   6.280   1.967   7.395  0.4867  1.5174 -0.3285
  159DOPC   H7Y19210   6.236   2.081   7.521 -3.3242 -3.3401 -1.5082
  159DOPC   C3819211   6.379   2.162   7.389 -0.1485  0.4029 -0.1930
  159DOPC   H8X19212   6.289   2.189   7.330 -1.4712 -2.5706  0.2860
  159DOPC   H8Y19213   6.456   2.117   7.322 -2.2609 -1.2576 -1.6210
  159DOPC   C3919214   6.429   2.276   7.476 -0.4425  0.3682  0.3074
  159DOPC   H9X19215   6.503   2.260   7.556  0.5889 -1.1855 -0.8813
  159DOPC  C31019216   6.383   2.400   7.483  0.0857 -0.1129  0.3022
  159DOPC  H10X19217   6.417   2.459   7.570  1.5429  0.0634 -0.3576
  159DOPC  C31119218   6.285   2.482   7.399 -0.3425  0.0713 -0.6204
  159DOPC  H11X19219   6.210   2.519   7.472 -0.5232 -1.1066 -0.1856
  159DOPC  H11Y19220   6.237   2.415   7.324  0.1648  1.5302 -2.3366
  159DOPC  C31219221   6.365   2.593   7.324  0.7923 -0.1313 -0.5877
  159DOPC  H12X19222   6.476   2.597   7.335  0.8304  0.3913 -1.0642
  159DOPC  H12Y19223   6.322   2.687   7.365 -0.0033 -1.1057  0.8997
  159DOPC  C31319224   6.342   2.592   7.175  0.0966  0.4076  0.3863
  159DOPC  H13X19225   6.375   2.488   7.154 -1.2108  0.4039 -2.0379
  159DOPC  H13Y19226   6.233   2.600   7.157 -0.1817  0.9166  2.1357
  159DOPC  C31419227   6.418   2.697   7.093 -1.0884 -0.3762 -0.0756
  159DOPC  H14X19228   6.354   2.788   7.088 -1.8696 -0.9602 -1.6675
  159DOPC  H14Y19229   6.515   2.714   7.144 -0.5348 -2.9301 -0.1603
  159DOPC  C31519230   6.440   2.646   6.947  0.2308  0.3877  0.3379
  159DOPC  H15X19231   6.460   2.537   6.951  1.2524  0.3923 -2.5657
  159DOPC  H15Y19232   6.526   2.701   6.902  0.4326 -0.8959 -0.8989
  159DOPC  C31619233   6.313   2.663   6.861 -0.0360 -0.1019  0.6001
  159DOPC  H16X19234   6.254   2.569   6.868 -1.3428  0.6028 -0.3944
  159DOPC  H16Y19235   6.246   2.749   6.883 -1.2571  0.1577 -3.3750
  159DOPC  C31719236   6.333   2.699   6.710 -0.8449  0.5557  0.1520
  159DOPC  H17X19237   6.377   2.801   6.717 -1.4826  0.7886  0.9859
  159DOPC  H17Y19238   6.405   2.625   6.671 -0.2933  1.5989 -0.8739
  159DOPC  C31819239   6.206   2.714   6.627  0.6419  0.1572 -0.0362
  159DOPC  H18X19240   6.139   2.792   6.668 -0.5652 -0.2050 -1.2340
  159DOPC  H18Y19241   6.233   2.734   6.521 -2.6356 -2.2017 -1.4773
  159DOPC  H18Z19242   6.141   2.624   6.624 -0.2486  0.6230  2.5451
  160DOPC     N19243   2.407   7.643   7.512  0.2685  0.1600 -0.4545
  160DOPC   C1219244   2.426   7.550   7.395 -0.9052  0.0250  0.2967
  160DOPC  H12A19245   2.337   7.544   7.334 -0.2699  1.1601 -0.7644
  160DOPC  H12B19246   2.440   7.457   7.448  3.5190  0.7479  0.7843
  160DOPC   C1319247   2.367   7.784   7.471  0.5959 -0.3303  0.3619
  160DOPC  H13A19248   2.436   7.814   7.394  0.2906  0.4707  0.3904
  160DOPC  H13B19249   2.267   7.793   7.431 -0.2428 -1.1495  2.1405
  160DOPC  H13C19250   2.362   7.855   7.552 -0.7724  0.9778 -0.8060
  160DOPC   C1419251   2.528   7.647   7.594  0.7409 -0.1945 -0.0551
  160DOPC  H14A19252   2.596   7.719   7.550 -1.2068  0.5989 -1.9582
  160DOPC  H14B19253   2.501   7.682   7.692  0.3910  1.1850 -0.6131
  160DOPC  H14C19254   2.562   7.545   7.605  0.7798 -0.1623  0.1144
  160DOPC   C1519255   2.299   7.587   7.596  0.6868  0.3385  0.0056
  160DOPC  H15A19256   2.284   7.644   7.686 -0.7016  1.5626 -0.9547
  160DOPC  H15B19257   2.307   7.481   7.614  3.2905  0.8041  2.1826
  160DOPC  H15C19258   2.206   7.600   7.543 -1.0414 -1.2973  2.4520
  160DOPC   C1119259   2.544   7.574   7.304  0.0282  0.1098  0.1854
  160DOPC  H11A19260   2.634   7.589   7.367 -0.1073  1.6459  0.0505
  160DOPC  H11B19261   2.567   7.484   7.242  1.4182  0.2901  0.3944
  160DOPC     P19262   2.451   7.703   7.095  0.0571 -0.1170 -0.0596
  160DOPC   O1319263   2.486   7.832   7.033  0.5260 -0.2575 -1.1755
  160DOPC   O1419264   2.307   7.686   7.119  0.0158  0.2088 -0.1572
  160DOPC   O1219265   2.532   7.689   7.226 -0.2110 -0.7366 -0.0760
  160DOPC   O1119266   2.508   7.597   6.994 -0.2101 -0.4039 -0.0558
  160DOPC    C119267   2.429   7.488   6.952 -0.1025 -0.5134  0.0421
  160DOPC    HA19268   2.355   7.452   7.026 -1.0090 -1.6129 -1.3312
  160DOPC    HB19269   2.494   7.397   6.950 -1.2843 -1.3733 -0.3158
  160DOPC    C219270   2.373   7.502   6.802 -0.9220 -1.1563  0.4670
  160DOPC    HS19271   2.362   7.406   6.748  1.4191 -0.9744 -0.4340
  160DOPC   O2119272   2.465   7.582   6.720  0.2553  0.1572 -0.4355
  160DOPC   C2119273   2.589   7.548   6.714 -0.0142 -0.5991  0.0786
  160DOPC   O2219274   2.638   7.440   6.747 -0.4117  0.2719 -0.1496
  160DOPC   C2219275   2.663   7.669   6.649 -0.3731  0.4131  0.1131
  160DOPC   H2R19276   2.691   7.731   6.736  0.8561  1.0445 -0.7024
  160DOPC   H2S19277   2.591   7.733   6.593 -0.0431  0.6793 -0.0112
  160DOPC    C319278   2.234   7.573   6.798  0.1875 -0.0990  0.1771
  160DOPC    HX19279   2.242   7.666   6.859  0.4447 -1.2310  1.9445
  160DOPC    HY19280   2.160   7.507   6.847 -0.2962 -0.0114 -0.4333
  160DOPC   O3119281   2.200   7.591   6.660 -0.3293  0.3104  0.2265
  160DOPC   C3119282   2.229   7.710   6.605  0.5534  0.1741  0.7965
  160DOPC   O3219283   2.293   7.798   6.662 -0.1199 -0.4754 -0.1829
  160DOPC   C3219284   2.163   7.716   6.464  0.1203 -0.0726  0.2793
  160DOPC   H2X19285   2.079   7.788   6.471  0.8972  1.1460 -1.8286
  160DOPC   H2Y19286   2.241   7.761   6.399  0.6782 -1.1370  0.1783
  160DOPC   C2319287   2.781   7.626   6.557 -0.3239 -0.3014 -0.8884
  160DOPC   H3R19288   2.740   7.584   6.463  1.2286  0.3728 -1.9218
  160DOPC   H3S19289   2.848   7.549   6.600 -1.2428 -0.5820  0.0609
  160DOPC   C2419290   2.868   7.748   6.509 -0.6061 -0.1542 -0.3000
  160DOPC   H4R19291   2.941   7.771   6.590 -0.0887 -0.6331 -0.6232
  160DOPC   H4S19292   2.807   7.841   6.499  0.5764  1.1440  2.9933
  160DOPC   C2519293   2.949   7.707   6.384  0.4650 -0.0873 -0.9985
  160DOPC   H5R19294   2.886   7.718   6.293  0.6556  2.4627 -0.9110
  160DOPC   H5S19295   2.977   7.602   6.404 -2.7554 -0.7372  0.7542
  160DOPC   C2619296   3.089   7.779   6.371  0.3298  0.3211  0.3936
  160DOPC   H6R19297   3.155   7.768   6.459  1.4237 -2.4828 -0.6457
  160DOPC   H6S19298   3.073   7.888   6.354  1.1592  0.7795  2.3430
  160DOPC   C2719299   3.167   7.712   6.253  1.3548  0.1835  0.4554
  160DOPC   H7R19300   3.097   7.695   6.168  0.7654 -2.9779  1.4285
  160DOPC   H7S19301   3.187   7.605   6.278 -0.9370 -0.3781  0.0984
  160DOPC   C2819302   3.289   7.790   6.215  0.5960  0.0647 -0.4002
  160DOPC   H8R19303   3.358   7.806   6.301  0.4786  2.4055 -0.6889
  160DOPC   H8S19304   3.261   7.890   6.176 -1.5045  0.7526  2.5323
  160DOPC   C2919305   3.357   7.717   6.105  0.4741 -0.3632 -0.5167
  160DOPC   H9R19306   3.385   7.614   6.133 -2.2608 -0.9742  0.3517
  160DOPC  C21019307   3.406   7.763   5.997  0.5630  0.1491  0.3079
  160DOPC  H10R19308   3.446   7.686   5.928  0.2349  0.8490 -0.6880
  160DOPC  C21119309   3.385   7.894   5.930  0.2551 -0.3300  0.1891
  160DOPC  H11R19310   3.295   7.943   5.974 -1.3853 -3.6005  0.7713
  160DOPC  H11S19311   3.358   7.873   5.824  2.4329  0.7849 -0.6354
  160DOPC  C21219312   3.501   7.996   5.930  0.2780  0.1956  0.3261
  160DOPC  H12R19313   3.583   7.955   5.867  0.9657 -0.2278  1.4638
  160DOPC  H12S19314   3.533   8.021   6.034 -2.6932  0.2930  1.3170
  160DOPC  C21319315   3.464   8.132   5.873 -0.1545 -0.1962  0.2847
  160DOPC  H13R19316   3.406   8.198   5.941 -0.9542  0.6930 -1.1909
  160DOPC  H13S19317   3.403   8.131   5.780 -1.4933  1.7478  1.0640
  160DOPC  C21419318   3.596   8.213   5.842  0.6763  0.3333  0.2075
  160DOPC  H14R19319   3.658   8.161   5.765 -0.0882  0.0676 -0.2372
  160DOPC  H14S19320   3.653   8.215   5.937  1.7554 -1.0966 -0.3734
  160DOPC  C21519321   3.578   8.354   5.794  0.3538 -0.4818 -0.8077
  160DOPC  H15R19322   3.528   8.414   5.873  0.6291 -0.6967 -0.4647
  160DOPC  H15S19323   3.497   8.358   5.719 -0.4999 -0.0292  0.1105
  160DOPC  C21619324   3.704   8.423   5.743 -0.1665  0.4302  0.6634
  160DOPC  H16R19325   3.751   8.367   5.659 -1.1687 -0.0729  0.4194
  160DOPC  H16S19326   3.776   8.432   5.827 -0.6149  0.6975  1.0226
  160DOPC  C21719327   3.684   8.565   5.688 -0.1719  0.2167  0.3206
  160DOPC  H17R19328   3.671   8.623   5.782  1.2744  1.5617 -0.2627
  160DOPC  H17S19329   3.599   8.569   5.618  2.0488  1.8558 -2.5251
  160DOPC  C21819330   3.811   8.625   5.618  0.2180 -0.3819 -0.2351
  160DOPC  H18R19331   3.870   8.663   5.704  0.6069 -0.5937 -0.4083
  160DOPC  H18S19332   3.777   8.719   5.570 -1.4589 -1.4127 -1.1496
  160DOPC  H18T19333   3.868   8.560   5.548  4.2316  0.9400  1.5009
  160DOPC   C3319334   2.116   7.580   6.412  0.1262  0.8666 -1.0836
  160DOPC   H3X19335   2.016   7.567   6.458  0.4061  0.3288 -0.6091
  160DOPC   H3Y19336   2.181   7.496   6.446  1.0401  2.0901  0.3105
  160DOPC   C3419337   2.104   7.558   6.267 -0.3563 -0.0839  0.3834
  160DOPC   H4X19338   2.198   7.578   6.210  0.0803  2.8920  1.9316
  160DOPC   H4Y19339   2.033   7.637   6.233  0.0831 -0.2271 -0.9523
  160DOPC   C3519340   2.026   7.430   6.235  0.2558  0.3271 -0.8159
  160DOPC   H5X19341   1.955   7.414   6.319  1.9862 -1.1062  0.4536
  160DOPC   H5Y19342   2.103   7.350   6.235 -0.5905 -0.5935  2.0403
  160DOPC   C3619343   1.949   7.428   6.099 -0.0479  0.5509 -0.5357
  160DOPC   H6X19344   1.910   7.325   6.087 -0.7581  0.3777  2.4075
  160DOPC   H6Y19345   1.854   7.484   6.117 -0.3150 -0.0112 -0.1593
  160DOPC   C3719346   2.021   7.463   5.969  0.4279  0.1907 -0.5993
  160DOPC   H7X19347   2.049   7.570   5.973 -0.7719  0.5666 -1.6715
  160DOPC   H7Y19348   2.114   7.403   5.956 -1.2376 -2.6235 -0.3832
  160DOPC   C3819349   1.952   7.444   5.836  0.2190 -0.6069 -0.2368
  160DOPC   H8X19350   1.947   7.336   5.812 -0.8052 -0.1718 -2.2327
  160DOPC   H8Y19351   2.015   7.503   5.766 -1.3796  1.6517  0.1096
  160DOPC   C3919352   1.819   7.508   5.840 -0.1774  0.1102 -0.6962
  160DOPC   H9X19353   1.802   7.581   5.921  2.0163 -0.7071  0.6057
  160DOPC  C31019354   1.724   7.492   5.746 -1.0415 -0.5272  0.1836
  160DOPC  H10X19355   1.629   7.544   5.762 -0.7162 -0.0477  0.6193
  160DOPC  C31119356   1.726   7.411   5.617 -0.7033 -0.5457 -0.6080
  160DOPC  H11X19357   1.647   7.333   5.617 -1.1213 -0.1311 -0.1392
  160DOPC  H11Y19358   1.827   7.364   5.614 -0.4506 -0.0962  0.3779
  160DOPC  C31219359   1.718   7.480   5.480 -0.1033 -0.0378 -0.0615
  160DOPC  H12X19360   1.731   7.397   5.407  1.6796 -1.4016  1.6801
  160DOPC  H12Y19361   1.795   7.551   5.444 -0.5648  0.0764 -0.8474
  160DOPC  C31319362   1.581   7.565   5.470 -0.0521  0.7349 -0.1245
  160DOPC  H13X19363   1.488   7.507   5.484  0.2783  0.5170  1.3555
  160DOPC  H13Y19364   1.576   7.628   5.562  1.9886 -0.7571  1.1074
  160DOPC  C31419365   1.596   7.660   5.354 -0.1541  0.3232  0.2494
  160DOPC  H14X19366   1.513   7.733   5.358 -2.0596 -1.8139  2.3416
  160DOPC  H14Y19367   1.687   7.724   5.358  0.5264 -0.5670 -0.2060
  160DOPC  C31519368   1.608   7.585   5.225 -0.3197 -0.0955  0.1775
  160DOPC  H15X19369   1.533   7.503   5.223 -2.1055  1.4993 -0.9812
  160DOPC  H15Y19370   1.703   7.529   5.212 -0.4366 -0.0510 -1.0052
  160DOPC  C31619371   1.599   7.683   5.109  0.1370  0.9665 -0.6220
  160DOPC  H16X19372   1.562   7.629   5.019 -1.0850  0.6262  0.0707
  160DOPC  H16Y19373   1.528   7.764   5.133 -0.6400  0.5851 -1.5678
  160DOPC  C31719374   1.727   7.764   5.081 -0.0950  0.6637 -0.0310
  160DOPC  H17X19375   1.754   7.814   5.177  0.1954 -2.1212  1.4657
  160DOPC  H17Y19376   1.809   7.692   5.059 -0.1731  0.3218  0.7435
  160DOPC  C31819377   1.711   7.865   4.964 -0.2911  0.2227 -0.2593
  160DOPC  H18X19378   1.691   7.815   4.866  1.6422 -1.3278  0.0856
  160DOPC  H18Y19379   1.634   7.938   4.996  1.0274  0.3975  2.7645
  160DOPC  H18Z19380   1.801   7.928   4.954 -1.1108  1.4924  0.1830
  161DOPC     N19381   3.521   0.808   7.691  0.4605  0.0663  0.3789
  161DOPC   C1219382   3.569   0.800   7.544 -0.5491  0.3341 -0.2753
  161DOPC  H12A19383   3.554   0.697   7.515 -2.4982  0.6830 -0.6518
  161DOPC  H12B19384   3.673   0.832   7.547 -0.4783  0.3735 -2.0693
  161DOPC   C1319385   3.518   0.946   7.743 -0.3994 -0.1091 -0.4966
  161DOPC  H13A19386   3.474   1.018   7.675  2.4583  1.2758 -1.0319
  161DOPC  H13B19387   3.470   0.951   7.839  0.0497 -0.4082 -0.2533
  161DOPC  H13C19388   3.621   0.978   7.753  0.0412 -0.5252 -2.9508
  161DOPC   C1419389   3.605   0.726   7.790  0.3316  0.3201 -0.9707
  161DOPC  H14A19390   3.707   0.759   7.799 -0.3146  1.9594  1.4701
  161DOPC  H14B19391   3.575   0.734   7.893  0.1138  1.3520 -1.1000
  161DOPC  H14C19392   3.598   0.623   7.759  1.0125  0.1631 -0.5999
  161DOPC   C1519393   3.374   0.760   7.696  0.5065 -0.1864  0.2314
  161DOPC  H15A19394   3.346   0.730   7.796  3.0461 -1.4628  0.6511
  161DOPC  H15B19395   3.348   0.670   7.642 -1.8830  0.6348 -0.1371
  161DOPC  H15C19396   3.308   0.837   7.659 -0.4587 -1.7703 -1.5667
  161DOPC   C1119397   3.508   0.896   7.443 -0.0714 -0.0149  0.6923
  161DOPC  H11A19398   3.534   0.874   7.337 -3.3840  0.6212 -0.3547
  161DOPC  H11B19399   3.400   0.869   7.439 -0.1290  0.3552 -1.2654
  161DOPC     P19400   3.645   1.117   7.443  0.1526  0.1066  0.0997
  161DOPC   O1319401   3.757   1.097   7.535 -0.6523 -0.0303  0.2222
  161DOPC   O1419402   3.603   1.258   7.443 -0.0847  0.0956 -0.1861
  161DOPC   O1219403   3.519   1.028   7.479  0.0628 -0.3094  0.8679
  161DOPC   O1119404   3.692   1.065   7.301 -0.3559  0.3960 -0.3174
  161DOPC    C119405   3.822   1.091   7.248 -0.1221  0.2803  0.8845
  161DOPC    HA19406   3.902   1.075   7.323  1.0640  4.2955  0.7355
  161DOPC    HB19407   3.828   1.201   7.237  0.3008  0.2223  0.4640
  161DOPC    C219408   3.849   1.023   7.110 -0.0207  0.5388  0.2284
  161DOPC    HS19409   3.947   1.059   7.071 -0.6687  2.6964  0.4466
  161DOPC   O2119410   3.744   1.060   7.012 -0.0985 -0.2773  0.0242
  161DOPC   C2119411   3.755   1.173   6.949 -0.5252 -0.4771  0.2652
  161DOPC   O2219412   3.843   1.252   6.963 -0.6102 -0.2885  0.1725
  161DOPC   C2219413   3.622   1.199   6.881  0.2701  0.7511 -0.2318
  161DOPC   H2R19414   3.545   1.209   6.960  1.3272 -0.7710  1.0703
  161DOPC   H2S19415   3.603   1.102   6.830  0.5488 -0.3630  1.6615
  161DOPC    C319416   3.859   0.867   7.124 -0.3393  0.1137 -0.4358
  161DOPC    HX19417   3.758   0.832   7.154 -0.3400  0.2594 -0.2600
  161DOPC    HY19418   3.938   0.842   7.198  0.5613  1.0791 -1.0444
  161DOPC   O3119419   3.895   0.801   7.000  0.0141 -0.0061 -0.1051
  161DOPC   C3119420   3.916   0.674   7.017  0.0606  0.2815  0.4545
  161DOPC   O3219421   3.909   0.617   7.126  0.7917 -0.8310  0.1559
  161DOPC   C3219422   3.949   0.605   6.883  0.5527  0.1672  0.3158
  161DOPC   H2X19423   3.914   0.666   6.798  0.4447  0.1810  0.3693
  161DOPC   H2Y19424   4.059   0.607   6.870  0.3903 -0.6297 -1.4823
  161DOPC   C2319425   3.624   1.305   6.774  0.5319  0.4941 -0.4435
  161DOPC   H3R19426   3.727   1.305   6.733  1.2841  0.8623  1.3726
  161DOPC   H3S19427   3.613   1.405   6.820 -1.8868  0.3746 -0.6077
  161DOPC   C2419428   3.525   1.275   6.665 -0.0160  0.5913  0.2483
  161DOPC   H4R19429   3.428   1.266   6.718 -0.5344 -0.0621 -0.7786
  161DOPC   H4S19430   3.546   1.178   6.615 -1.1390 -0.2305  1.3023
  161DOPC   C2519431   3.512   1.375   6.552  0.2234 -0.6226 -0.0717
  161DOPC   H5R19432   3.613   1.399   6.512  0.1668 -0.6268 -0.2175
  161DOPC   H5S19433   3.472   1.474   6.585  1.1075 -0.6178  1.0507
  161DOPC   C2619434   3.419   1.318   6.455  0.0990  0.4578 -0.0190
  161DOPC   H6R19435   3.334   1.266   6.504  0.5046 -2.5895 -2.2977
  161DOPC   H6S19436   3.461   1.229   6.404  1.7442  1.0898  0.1764
  161DOPC   C2719437   3.366   1.430   6.368  0.4972  0.5252  0.0484
  161DOPC   H7R19438   3.449   1.484   6.320 -1.1014  0.9437 -2.4254
  161DOPC   H7S19439   3.307   1.502   6.428  0.1977  0.4522 -0.1555
  161DOPC   C2819440   3.274   1.371   6.259  0.0622 -0.1457  0.1141
  161DOPC   H8R19441   3.223   1.455   6.207  0.7863  2.8451  3.7754
  161DOPC   H8S19442   3.189   1.315   6.304  1.9334 -3.3084  0.0021
  161DOPC   C2919443   3.336   1.270   6.166 -0.5698 -0.6200  0.0635
  161DOPC   H9R19444   3.445   1.268   6.176 -0.5628 -0.3833  0.0344
  161DOPC  C21019445   3.280   1.215   6.060 -0.6388  0.1226  0.5609
  161DOPC  H10R19446   3.350   1.162   5.995 -0.8137  0.3596  0.1779
  161DOPC  C21119447   3.139   1.233   6.007 -0.1138  0.1747 -0.2621
  161DOPC  H11R19448   3.070   1.294   6.070  0.7216  2.4151 -1.4076
  161DOPC  H11S19449   3.093   1.132   6.008  2.5865 -1.1444  0.6258
  161DOPC  C21219450   3.121   1.268   5.855  0.2983  0.0269 -0.1761
  161DOPC  H12R19451   3.020   1.239   5.820 -0.2677  1.0266  0.5678
  161DOPC  H12S19452   3.198   1.205   5.804 -1.5323 -1.2910 -1.4207
  161DOPC  C21319453   3.146   1.418   5.825 -0.2219  0.3901 -0.1034
  161DOPC  H13R19454   3.243   1.434   5.877 -0.9037 -2.2420  2.2505
  161DOPC  H13S19455   3.069   1.486   5.867 -0.6339 -0.1097 -0.0365
  161DOPC  C21419456   3.136   1.439   5.670 -0.1623 -0.1207  0.1450
  161DOPC  H14R19457   3.166   1.349   5.612  1.3708 -1.0264  2.2245
  161DOPC  H14S19458   3.202   1.519   5.629 -1.0246  0.6249  0.1672
  161DOPC  C21519459   3.001   1.473   5.617  0.1599 -0.5296  1.1241
  161DOPC  H15R19460   2.956   1.566   5.658 -2.2369 -1.0607 -0.1300
  161DOPC  H15S19461   2.928   1.391   5.635 -0.7984  0.0065 -0.1861
  161DOPC  C21619462   3.011   1.498   5.466 -0.1565  0.0240 -0.3126
  161DOPC  H16R19463   3.043   1.406   5.414  0.9881  0.4909 -0.4636
  161DOPC  H16S19464   3.079   1.581   5.436 -1.7057  0.9396 -1.4042
  161DOPC  C21719465   2.867   1.536   5.412 -0.1036  0.2839 -0.8808
  161DOPC  H17R19466   2.823   1.605   5.486 -1.4238 -0.6123 -0.7846
  161DOPC  H17S19467   2.812   1.439   5.411  2.9480 -1.6508  0.8473
  161DOPC  C21819468   2.879   1.617   5.281  0.1741  0.3727 -0.1797
  161DOPC  H18R19469   2.779   1.630   5.235  0.5803  0.0357 -1.1930
  161DOPC  H18S19470   2.932   1.554   5.206  0.0368 -0.4778  0.4278
  161DOPC  H18T19471   2.926   1.717   5.290 -0.1985  0.4346  1.3690
  161DOPC   C3319472   3.896   0.459   6.872  0.0420 -0.0904  0.3036
  161DOPC   H3X19473   3.787   0.457   6.894 -0.0784 -0.2412 -0.3077
  161DOPC   H3Y19474   3.940   0.401   6.956 -0.2366  0.0185  0.5267
  161DOPC   C3419475   3.931   0.404   6.732  0.3166  0.2847 -0.3773
  161DOPC   H4X19476   4.039   0.415   6.710  0.1244  2.3062 -0.4854
  161DOPC   H4Y19477   3.878   0.473   6.663  0.9937  1.9718  0.7423
  161DOPC   C3519478   3.894   0.255   6.712 -0.4311  0.1107 -0.0756
  161DOPC   H5X19479   3.790   0.228   6.742 -0.6529 -0.0047 -0.9296
  161DOPC   H5Y19480   3.957   0.192   6.778 -2.2871 -1.4235  0.3299
  161DOPC   C3619481   3.917   0.204   6.566 -0.1420  0.0761 -0.1281
  161DOPC   H6X19482   3.865   0.271   6.495  1.2306 -0.6591 -1.9079
  161DOPC   H6Y19483   4.026   0.213   6.543 -0.4482  0.7656 -1.3937
  161DOPC   C3719484   3.873   0.055   6.541  0.5066  0.2914 -0.0150
  161DOPC   H7X19485   3.928  -0.021   6.600  0.0530  0.5215  0.7354
  161DOPC   H7Y19486   3.764   0.044   6.563  0.2107  1.2902 -0.9063
  161DOPC   C3819487   3.891   0.015   6.397 -0.7925  0.9054 -0.7405
  161DOPC   H8X19488   3.999   0.025   6.376  0.1535 -2.2196  1.7672
  161DOPC   H8Y19489   3.854   0.089   6.323  1.1405  0.8769 -1.7955
  161DOPC   C3919490   3.847  -0.123   6.357 -0.0025  0.0047  0.0884
  161DOPC   H9X19491   3.883  -0.206   6.420 -0.9308  1.9435  3.4102
  161DOPC  C31019492   3.767  -0.160   6.257 -0.1112 -0.1507 -0.1294
  161DOPC  H10X19493   3.748  -0.267   6.239 -0.1906 -0.0649 -0.5749
  161DOPC  C31119494   3.690  -0.066   6.171 -0.3273  0.4712  0.7361
  161DOPC  H11X19495   3.660   0.027   6.224 -1.2715  1.1265 -0.8722
  161DOPC  H11Y19496   3.595  -0.114   6.139 -0.1127 -0.2035  1.0994
  161DOPC  C31219497   3.762  -0.011   6.039 -0.1620 -0.0712  0.0165
  161DOPC  H12X19498   3.864   0.015   6.073  0.7010 -2.9463 -0.0738
  161DOPC  H12Y19499   3.726   0.089   6.006  1.6579  0.8407  0.6886
  161DOPC  C31319500   3.768  -0.093   5.910 -0.2524 -0.8785  0.3308
  161DOPC  H13X19501   3.806  -0.190   5.947 -1.6142 -1.1146  1.1662
  161DOPC  H13Y19502   3.668  -0.113   5.867  1.2203 -1.9346 -2.8979
  161DOPC  C31419503   3.857  -0.035   5.800 -0.1562 -0.5366 -0.3462
  161DOPC  H14X19504   3.964  -0.015   5.821 -0.2435 -1.7456  1.4655
  161DOPC  H14Y19505   3.855  -0.115   5.723 -0.8912 -0.9735  0.1092
  161DOPC  C31519506   3.789   0.093   5.736 -0.0964  0.6053  0.5716
  161DOPC  H15X19507   3.793   0.180   5.805 -1.4310  0.1989  1.1833
  161DOPC  H15Y19508   3.687   0.054   5.717 -0.8791  3.0561 -0.6491
  161DOPC  C31619509   3.858   0.140   5.602  0.7017 -0.4936  0.1916
  161DOPC  H16X19510   3.962   0.167   5.630  0.6066  2.2849 -1.7052
  161DOPC  H16Y19511   3.870   0.062   5.524  2.5890 -1.3400  1.2464
  161DOPC  C31719512   3.798   0.274   5.549 -0.0091 -0.2438  0.1882
  161DOPC  H17X19513   3.799   0.354   5.627  0.3138 -0.4110  0.3555
  161DOPC  H17Y19514   3.867   0.307   5.468 -0.4873  0.8549  0.2000
  161DOPC  C31819515   3.661   0.262   5.500  0.4676 -0.2314  0.5565
  161DOPC  H18X19516   3.631   0.174   5.439  0.5619 -1.0790  1.7062
  161DOPC  H18Y19517   3.604   0.257   5.595  1.4977  0.5417  1.2374
  161DOPC  H18Z19518   3.614   0.352   5.454 -0.0754 -1.4432 -1.3670
  162DOPC     N19519   1.392   6.942   7.237 -0.0881  0.0069  0.4460
  162DOPC   C1219520   1.417   6.925   7.089 -0.9545  0.0226 -0.5722
  162DOPC  H12A19521   1.509   6.977   7.067 -0.8712  1.4354  2.4961
  162DOPC  H12B19522   1.329   6.974   7.048 -2.1211  0.3270  2.0421
  162DOPC   C1319523   1.491   6.857   7.313 -0.0749 -0.4166 -0.1607
  162DOPC  H13A19524   1.485   6.752   7.290 -1.4122 -0.7641  1.5674
  162DOPC  H13B19525   1.591   6.874   7.275  0.7499 -2.1366  1.1131
  162DOPC  H13C19526   1.496   6.879   7.418 -0.5275  0.7417 -0.3717
  162DOPC   C1419527   1.258   6.892   7.281  0.1255 -0.0142 -0.8646
  162DOPC  H14A19528   1.174   6.919   7.219 -0.6591  1.3605  0.7243
  162DOPC  H14B19529   1.263   6.784   7.277 -0.9064 -0.0848 -0.6400
  162DOPC  H14C19530   1.223   6.924   7.378 -2.1954 -1.8413 -1.0065
  162DOPC   C1519531   1.399   7.093   7.260  0.1800  0.2770 -0.4389
  162DOPC  H15A19532   1.499   7.120   7.232  0.8186  0.0582  1.4837
  162DOPC  H15B19533   1.391   7.104   7.367  3.7009  0.6776 -0.1084
  162DOPC  H15C19534   1.331   7.153   7.202 -1.7933 -0.1655  1.2613
  162DOPC   C1119535   1.416   6.788   7.024 -0.8322 -0.3385  0.2375
  162DOPC  H11A19536   1.439   6.808   6.917 -0.0712  0.9421  0.6185
  162DOPC  H11B19537   1.481   6.707   7.063  1.4123  0.4359 -1.6977
  162DOPC     P19538   1.161   6.770   6.940 -0.0833 -0.0918 -0.1304
  162DOPC   O1319539   1.165   6.915   6.902 -0.0178  0.0506  0.0938
  162DOPC   O1419540   1.043   6.725   7.012 -0.0100 -0.0789  0.2364
  162DOPC   O1219541   1.283   6.728   7.031  0.8046 -0.4412 -0.2269
  162DOPC   O1119542   1.174   6.674   6.814  0.3004 -0.5344 -0.6117
  162DOPC    C119543   1.289   6.592   6.797 -0.3687 -0.1728  0.1004
  162DOPC    HA19544   1.340   6.557   6.889  2.9123 -1.6441 -2.0831
  162DOPC    HB19545   1.367   6.654   6.747 -1.8403 -1.3277 -3.9861
  162DOPC    C219546   1.268   6.470   6.713 -0.3400 -0.7303 -1.0852
  162DOPC    HS19547   1.355   6.416   6.671 -0.1891  0.2616 -2.0972
  162DOPC   O2119548   1.189   6.505   6.601 -0.1199  0.5614 -0.5058
  162DOPC   C2119549   1.249   6.580   6.510 -0.0058  0.5768 -0.1787
  162DOPC   O2219550   1.370   6.599   6.502  0.1157  0.5454  0.2621
  162DOPC   C2219551   1.147   6.631   6.421 -0.2561  0.4062  0.3164
  162DOPC   H2R19552   1.078   6.691   6.485  0.7579  0.0749  1.7579
  162DOPC   H2S19553   1.086   6.543   6.392 -2.2347  2.0878 -0.9393
  162DOPC    C319554   1.203   6.358   6.796  0.7336  0.1620 -0.6433
  162DOPC    HX19555   1.117   6.399   6.855 -0.2501 -3.8016  0.9615
  162DOPC    HY19556   1.282   6.318   6.862  1.5921  1.4543 -0.8398
  162DOPC   O3119557   1.156   6.242   6.719 -0.1942 -1.0546  0.2082
  162DOPC   C3119558   1.029   6.251   6.661  0.4021 -0.5601 -0.0175
  162DOPC   O3219559   0.953   6.338   6.687 -0.4507 -0.3387  0.2129
  162DOPC   C3219560   1.003   6.123   6.570 -0.0071 -0.1622 -0.9812
  162DOPC   H2X19561   1.094   6.062   6.590  0.2815  0.4807 -0.2727
  162DOPC   H2Y19562   0.909   6.076   6.605 -0.3223  0.4074 -1.0443
  162DOPC   C2319563   1.200   6.716   6.301  0.0392  0.0287 -0.4717
  162DOPC   H3R19564   1.252   6.657   6.222 -1.0499 -2.1914  0.3876
  162DOPC   H3S19565   1.273   6.790   6.338 -0.1047 -1.2194  2.6417
  162DOPC   C2419566   1.089   6.787   6.220  0.4002 -0.3790 -0.2614
  162DOPC   H4R19567   1.034   6.856   6.287  0.6206 -0.6974  0.2546
  162DOPC   H4S19568   1.002   6.723   6.195 -0.1328 -0.0947  0.7944
  162DOPC   C2519569   1.140   6.852   6.086  0.1266 -0.1633 -0.5046
  162DOPC   H5R19570   1.187   6.775   6.022  1.6612  1.8979 -1.9895
  162DOPC   H5S19571   1.205   6.939   6.110 -0.7880  0.7061 -1.0794
  162DOPC   C2619572   1.028   6.923   6.008 -0.5460 -0.2571  0.1536
  162DOPC   H6R19573   0.948   6.849   5.991  0.4114 -1.4129  0.5554
  162DOPC   H6S19574   1.073   6.954   5.912 -0.0854  0.0610  0.4630
  162DOPC   C2719575   0.977   7.054   6.062 -0.0379 -0.3737  0.5876
  162DOPC   H7R19576   0.927   7.046   6.162  0.0872  0.8788  0.7655
  162DOPC   H7S19577   0.899   7.083   5.988 -0.9550 -2.2041  0.7762
  162DOPC   C2819578   1.092   7.155   6.060  0.2639 -0.5174 -0.4306
  162DOPC   H8R19579   1.147   7.155   5.964 -0.0214  0.6281 -0.5995
  162DOPC   H8S19580   1.156   7.132   6.149 -1.7027 -0.1194  1.1555
  162DOPC   C2919581   1.057   7.301   6.088 -0.0391 -0.0874  0.1598
  162DOPC   H9R19582   1.018   7.316   6.190 -0.4373 -0.3852  0.0518
  162DOPC  C21019583   1.053   7.406   6.006 -0.6558  0.5006  1.2195
  162DOPC  H10R19584   1.026   7.506   6.042  0.8672  1.2296  0.4365
  162DOPC  C21119585   1.085   7.414   5.854  0.4528 -0.2054 -0.2884
  162DOPC  H11R19586   1.036   7.331   5.798 -0.7566  0.2502  0.0612
  162DOPC  H11S19587   1.190   7.407   5.819  0.7877  0.2580  0.6032
  162DOPC  C21219588   1.045   7.551   5.788  0.1640 -0.1721  0.0700
  162DOPC  H12R19589   1.121   7.623   5.824  0.7432  0.0905 -1.6258
  162DOPC  H12S19590   0.942   7.584   5.815  0.2297  0.4536 -0.4145
  162DOPC  C21319591   1.052   7.551   5.637  0.7661  0.1349  0.1631
  162DOPC  H13R19592   1.158   7.537   5.608  0.3241  2.0597 -2.8355
  162DOPC  H13S19593   1.021   7.654   5.611  0.4663  0.1076  0.4061
  162DOPC  C21419594   0.975   7.441   5.555 -0.1501  0.1324 -0.0162
  162DOPC  H14R19595   0.874   7.481   5.535 -0.2036 -0.9853 -2.3482
  162DOPC  H14S19596   0.954   7.344   5.604 -1.9501 -0.9008 -2.5863
  162DOPC  C21519597   1.035   7.413   5.417  0.4372  0.1369  0.4186
  162DOPC  H15R19598   0.977   7.330   5.372 -0.4929  1.6358 -1.3264
  162DOPC  H15S19599   1.140   7.387   5.444  0.9040  3.5718  2.5830
  162DOPC  C21619600   1.039   7.534   5.323  0.5399 -0.0683  0.1909
  162DOPC  H16R19601   1.071   7.626   5.376 -0.1311  0.5822 -0.5141
  162DOPC  H16S19602   0.934   7.543   5.287 -0.2638 -2.3774  1.7524
  162DOPC  C21719603   1.135   7.532   5.200  0.5185  0.7382 -0.9324
  162DOPC  H17R19604   1.125   7.437   5.144  0.9889 -2.0951  3.3291
  162DOPC  H17S19605   1.242   7.544   5.228  0.2138 -0.9897  1.1650
  162DOPC  C21819606   1.082   7.646   5.116  0.1692  0.2735  0.0384
  162DOPC  H18R19607   1.141   7.656   5.023  1.1143  2.8761  0.8058
  162DOPC  H18S19608   1.098   7.743   5.169 -0.5639  0.7450 -0.5697
  162DOPC  H18T19609   0.976   7.647   5.083  0.2515  1.4956 -0.2332
  162DOPC   C3319610   1.001   6.150   6.420 -0.7323  0.4873 -0.4978
  162DOPC   H3X19611   1.009   6.054   6.366  0.1685  1.3233 -1.9168
  162DOPC   H3Y19612   1.089   6.211   6.390  0.7021 -0.6820  1.1615
  162DOPC   C3419613   0.885   6.228   6.376  0.1593  0.3640  0.1163
  162DOPC   H4X19614   0.884   6.327   6.427 -2.2114 -0.5154  1.9802
  162DOPC   H4Y19615   0.793   6.183   6.419  0.8950 -1.3846 -0.0568
  162DOPC   C3519616   0.874   6.253   6.221 -0.1014  0.1800  0.6316
  162DOPC   H5X19617   0.923   6.173   6.162 -1.2126  1.0779 -1.6116
  162DOPC   H5Y19618   0.911   6.352   6.186  0.4058 -0.2627 -0.1141
  162DOPC   C3619619   0.722   6.241   6.193  0.4593 -0.3972  0.1063
  162DOPC   H6X19620   0.682   6.147   6.235  0.3951 -0.5088 -0.2010
  162DOPC   H6Y19621   0.671   6.329   6.238 -0.2439 -0.4716 -0.5341
  162DOPC   C3719622   0.683   6.241   6.041 -0.3753  0.0725  0.2002
  162DOPC   H7X19623   0.708   6.343   6.004 -0.9693  0.4824  0.9051
  162DOPC   H7Y19624   0.741   6.164   5.986 -1.6811 -1.0276  0.3159
  162DOPC   C3819625   0.530   6.224   6.028  0.2409  0.1978 -0.7155
  162DOPC   H8X19626   0.501   6.242   5.922 -1.2676 -0.0640 -0.3713
  162DOPC   H8Y19627   0.475   6.303   6.084  0.4078  0.0965 -0.4070
  162DOPC   C3919628   0.484   6.085   6.078 -0.0877 -0.5950  0.0309
  162DOPC   H9X19629   0.471   6.073   6.187 -1.3988 -1.5126 -0.2013
  162DOPC  C31019630   0.440   5.993   5.994  0.2915 -0.6082 -1.3187
  162DOPC  H10X19631   0.401   5.900   6.038 -0.9628 -0.4239 -1.9840
  162DOPC  C31119632   0.444   6.005   5.843  0.2382  0.0650 -1.0325
  162DOPC  H11X19633   0.545   5.981   5.803 -0.2147 -0.3693 -1.9621
  162DOPC  H11Y19634   0.413   6.107   5.811  2.1927  0.7941 -0.6822
  162DOPC  C31219635   0.341   5.910   5.790  0.2085  0.8939 -0.1546
  162DOPC  H12X19636   0.343   5.812   5.842 -1.7544  0.4741 -0.7754
  162DOPC  H12Y19637   0.366   5.888   5.684  1.1466 -1.8136  0.5490
  162DOPC  C31319638   0.200   5.958   5.814  0.8743  0.1042  0.6653
  162DOPC  H13X19639   0.164   5.949   5.919 -2.0636 -0.7837 -0.3179
  162DOPC  H13Y19640   0.188   6.061   5.775  0.1933 -0.0360  0.4873
  162DOPC  C31419641   0.103   5.877   5.719 -0.0216 -0.7095 -0.2473
  162DOPC  H14X19642   0.136   5.888   5.614  1.4766 -0.6864  0.2071
  162DOPC  H14Y19643   0.130   5.771   5.742  0.2563 -0.5037  0.3824
  162DOPC  C31519644  -0.054   5.896   5.721  0.4433  0.1649 -0.3282
  162DOPC  H15X19645  -0.078   5.991   5.667 -0.9855 -0.0968 -0.1922
  162DOPC  H15Y19646  -0.107   5.888   5.818 -1.8146  1.6457 -1.3400
  162DOPC  C31619647  -0.124   5.781   5.657 -0.5422 -0.1983  0.4383
  162DOPC  H16X19648  -0.104   5.789   5.548  0.2590  1.6972  0.6794
  162DOPC  H16Y19649  -0.097   5.678   5.686 -3.3029 -1.6392 -1.5895
  162DOPC  C31719650  -0.277   5.780   5.675  0.6904 -0.4578  1.0572
  162DOPC  H17X19651  -0.306   5.750   5.778 -3.0513  1.5938  0.7934
  162DOPC  H17Y19652  -0.324   5.877   5.648 -1.3764 -1.7760 -0.3836
  162DOPC  C31819653  -0.349   5.694   5.576 -0.4869  0.4476  0.3912
  162DOPC  H18X19654  -0.347   5.588   5.609 -1.3490  0.0272 -0.8221
  162DOPC  H18Y19655  -0.456   5.724   5.565 -0.3596  0.2598 -1.6872
  162DOPC  H18Z19656  -0.309   5.703   5.473  0.4771 -2.0171  0.4763
  163DOPC     N19657   6.995   2.725   8.480 -0.1344  0.1726 -0.3212
  163DOPC   C1219658   7.137   2.700   8.435  0.2211  0.3305  0.2804
  163DOPC  H12A19659   7.138   2.600   8.393 -1.4281  1.6425 -3.2749
  163DOPC  H12B19660   7.207   2.700   8.518  0.3183  0.5774  0.1972
  163DOPC   C1319661   6.993   2.852   8.559 -0.5629 -0.3507 -0.0792
  163DOPC  H13A19662   6.898   2.871   8.607  0.1072 -1.1348  1.6679
  163DOPC  H13B19663   7.069   2.846   8.636 -1.5121 -1.6385  0.8048
  163DOPC  H13C19664   7.014   2.922   8.480 -3.2046  0.3345 -0.2697
  163DOPC   C1419665   6.951   2.613   8.577 -0.0039 -0.9060  0.0411
  163DOPC  H14A19666   6.853   2.628   8.620 -0.4590 -0.1182 -1.2188
  163DOPC  H14B19667   6.941   2.521   8.521 -1.3816 -0.1409 -1.0078
  163DOPC  H14C19668   7.031   2.605   8.649 -1.2848  3.0133  2.1842
  163DOPC   C1519669   6.897   2.734   8.368  0.1458  0.6441 -0.0699
  163DOPC  H15A19670   6.946   2.767   8.277  0.3984 -1.0573 -0.5894
  163DOPC  H15B19671   6.818   2.802   8.396 -2.1060 -1.6550 -0.4767
  163DOPC  H15C19672   6.862   2.633   8.350  3.0409 -0.8712  1.8659
  163DOPC   C1119673   7.200   2.790   8.322 -0.3088  0.1280  0.2557
  163DOPC  H11A19674   7.205   2.896   8.355  1.0471 -0.2693  1.4358
  163DOPC  H11B19675   7.306   2.761   8.303 -0.2877  0.0927  0.4250
  163DOPC     P19676   7.153   2.687   8.096 -0.2914  0.3134 -0.1475
  163DOPC   O1319677   7.029   2.658   8.024 -0.3217 -0.1059 -0.3726
  163DOPC   O1419678   7.223   2.571   8.158  0.3185  0.3362  0.1064
  163DOPC   O1219679   7.126   2.796   8.207 -0.7047 -0.3860  0.3714
  163DOPC   O1119680   7.249   2.755   8.002  0.6131 -0.1303 -0.2542
  163DOPC    C119681   7.224   2.873   7.922  0.2201  0.0050  0.3311
  163DOPC    HA19682   7.322   2.921   7.901  1.3601 -1.8815  1.0067
  163DOPC    HB19683   7.154   2.947   7.967 -1.1371 -0.1961 -1.3187
  163DOPC    C219684   7.163   2.838   7.784 -0.1756 -0.3287 -0.2342
  163DOPC    HS19685   7.069   2.781   7.802 -0.5817 -0.0268 -1.3572
  163DOPC   O2119686   7.257   2.759   7.708 -0.1253 -0.5506 -0.0944
  163DOPC   C2119687   7.215   2.651   7.641 -0.2156 -0.5519  0.0775
  163DOPC   O2219688   7.102   2.607   7.653  0.3160 -0.2327 -0.2805
  163DOPC   C2219689   7.334   2.612   7.550  0.5474 -0.2202  0.2997
  163DOPC   H2R19690   7.429   2.658   7.585  0.7635  1.1293 -1.9191
  163DOPC   H2S19691   7.317   2.666   7.455 -2.8369  2.2755  2.1177
  163DOPC    C319692   7.118   2.968   7.712  0.1032  0.2094 -0.2333
  163DOPC    HX19693   7.205   3.020   7.666 -1.0419  0.2832 -2.4498
  163DOPC    HY19694   7.075   3.035   7.789 -1.0009 -1.0586  0.2899
  163DOPC   O3119695   7.029   2.946   7.611 -0.4315  0.1252  0.4949
  163DOPC   C3119696   6.897   2.952   7.649 -0.2500  0.3202 -0.3932
  163DOPC   O3219697   6.849   2.994   7.753 -0.2401 -0.2179 -0.1234
  163DOPC   C3219698   6.806   2.908   7.532 -0.2600 -0.6113 -0.0073
  163DOPC   H2X19699   6.751   2.824   7.579 -0.8220 -0.1180  0.2279
  163DOPC   H2Y19700   6.728   2.987   7.522 -2.4314 -2.3946  1.7644
  163DOPC   C2319701   7.351   2.458   7.521  0.6891  0.5469 -0.2251
  163DOPC   H3R19702   7.251   2.421   7.551  0.4246  3.3989  3.0863
  163DOPC   H3S19703   7.430   2.426   7.593 -0.8797 -1.2148  0.7995
  163DOPC   C2419704   7.380   2.433   7.371 -0.0247 -0.2161  0.6029
  163DOPC   H4R19705   7.302   2.480   7.307  0.5393 -1.3481 -1.0007
  163DOPC   H4S19706   7.362   2.327   7.341 -1.9345  0.1087  0.4542
  163DOPC   C2519707   7.507   2.488   7.321 -0.6295  0.4635 -0.4109
  163DOPC   H5R19708   7.592   2.428   7.358 -1.2011 -0.8802 -1.1868
  163DOPC   H5S19709   7.514   2.594   7.353  0.1065  0.5945 -0.9639
  163DOPC   C2619710   7.516   2.484   7.165 -0.4296  0.7509  0.3518
  163DOPC   H6R19711   7.432   2.541   7.121 -1.9431 -2.2439 -0.9058
  163DOPC   H6S19712   7.517   2.377   7.134  1.8088  0.9236 -0.3812
  163DOPC   C2719713   7.660   2.528   7.117 -0.1143  0.0333  0.5453
  163DOPC   H7R19714   7.727   2.450   7.161 -0.7481  0.1232  1.7161
  163DOPC   H7S19715   7.699   2.626   7.151  4.4002 -0.5810 -1.9699
  163DOPC   C2819716   7.678   2.506   6.964  0.2330 -1.1254  0.4415
  163DOPC   H8R19717   7.612   2.425   6.927 -0.3077 -0.6091  0.2659
  163DOPC   H8S19718   7.787   2.489   6.952  0.4642 -0.0527  0.9124
  163DOPC   C2919719   7.658   2.638   6.888 -0.2520 -0.1674  0.0224
  163DOPC   H9R19720   7.690   2.720   6.953 -0.3381 -1.6934  2.0823
  163DOPC  C21019721   7.614   2.667   6.763 -0.7739 -0.5651 -0.4623
  163DOPC  H10R19722   7.608   2.771   6.728 -1.1998 -0.3419  0.2583
  163DOPC  C21119723   7.574   2.566   6.659 -0.3862 -0.1253 -0.9452
  163DOPC  H11R19724   7.464   2.568   6.643 -0.4657  0.0008 -0.4062
  163DOPC  H11S19725   7.581   2.461   6.693  0.1822  0.7403  1.8598
  163DOPC  C21219726   7.644   2.596   6.529 -0.1634 -0.1620  0.3692
  163DOPC  H12R19727   7.754   2.580   6.526  0.2379  2.3559 -0.5626
  163DOPC  H12S19728   7.638   2.700   6.492  0.8081 -1.1607 -2.9459
  163DOPC  C21319729   7.573   2.515   6.421  0.0597  0.0708 -0.5781
  163DOPC  H13R19730   7.472   2.558   6.405 -0.6585 -2.1189 -2.4131
  163DOPC  H13S19731   7.562   2.411   6.458  2.3337 -0.9707 -2.5204
  163DOPC  C21419732   7.641   2.519   6.284  0.2012  0.0955  0.5642
  163DOPC  H14R19733   7.745   2.487   6.304  0.3155  0.9423  1.3949
  163DOPC  H14S19734   7.636   2.611   6.222 -1.4166 -1.1279 -1.2424
  163DOPC  C21519735   7.585   2.415   6.182  0.7960 -0.1210 -0.4708
  163DOPC  H15R19736   7.487   2.439   6.137  1.2421 -1.5897 -2.3774
  163DOPC  H15S19737   7.572   2.330   6.253  2.3698  1.8749  2.4114
  163DOPC  C21619738   7.678   2.359   6.076 -0.0665  0.7027 -0.2942
  163DOPC  H16R19739   7.638   2.267   6.027 -2.4479  1.6166 -0.2314
  163DOPC  H16S19740   7.773   2.336   6.129 -0.0435  0.9262 -0.2385
  163DOPC  C21719741   7.722   2.457   5.966 -0.5440  0.2818  0.4041
  163DOPC  H17R19742   7.810   2.413   5.913 -0.6449  1.5094 -0.8316
  163DOPC  H17S19743   7.748   2.547   6.025 -0.9382  0.2583  0.6160
  163DOPC  C21819744   7.625   2.496   5.856 -0.1962  0.2038 -0.3930
  163DOPC  H18R19745   7.659   2.592   5.811  0.4466  0.2601  0.2023
  163DOPC  H18S19746   7.525   2.523   5.896  0.4252 -0.2756  1.5734
  163DOPC  H18T19747   7.610   2.417   5.779 -0.7255 -1.9602  1.8090
  163DOPC   C3319748   6.880   2.873   7.402 -0.0145 -0.2400 -0.0359
  163DOPC   H3X19749   6.947   2.785   7.409 -0.5610 -0.6871 -0.3333
  163DOPC   H3Y19750   6.942   2.958   7.367 -1.1501  0.7403  0.2602
  163DOPC   C3419751   6.779   2.840   7.292 -0.0917  0.4722 -0.2969
  163DOPC   H4X19752   6.698   2.914   7.309 -0.3607  0.6576 -2.1035
  163DOPC   H4Y19753   6.727   2.743   7.310 -0.3126  1.0537  2.6147
  163DOPC   C3519754   6.841   2.853   7.147 -0.1571 -0.0254 -0.2783
  163DOPC   H5X19755   6.919   2.774   7.138 -1.6819 -1.8426  1.3495
  163DOPC   H5Y19756   6.890   2.952   7.153 -0.3260 -0.0500  2.7312
  163DOPC   C3619757   6.740   2.840   7.024  0.3859 -0.0335 -1.0831
  163DOPC   H6X19758   6.702   2.736   7.019  2.2874 -0.7362 -1.9976
  163DOPC   H6Y19759   6.659   2.911   7.049  0.8349 -0.1486  0.8702
  163DOPC   C3719760   6.803   2.889   6.890 -0.2202  0.4177 -0.3562
  163DOPC   H7X19761   6.716   2.920   6.828 -0.0743  0.7197 -0.4102
  163DOPC   H7Y19762   6.859   2.974   6.934 -1.7746  0.8042  0.9609
  163DOPC   C3819763   6.898   2.784   6.827 -0.0113  0.2215  0.8643
  163DOPC   H8X19764   6.845   2.690   6.803  1.9068 -0.8604  0.7505
  163DOPC   H8Y19765   6.961   2.748   6.911 -0.4996 -0.9459  0.7450
  163DOPC   C3919766   6.984   2.842   6.716 -0.2918  0.6694 -0.1381
  163DOPC   H9X19767   7.087   2.872   6.742 -0.6279  0.2911  1.7831
  163DOPC  C31019768   6.940   2.889   6.600 -0.0820 -0.0389  0.0347
  163DOPC  H10X19769   7.006   2.944   6.533 -0.4022 -0.7973 -0.9381
  163DOPC  C31119770   6.802   2.882   6.542  1.3624 -0.0567 -0.5584
  163DOPC  H11X19771   6.727   2.845   6.616  0.8559 -1.7575 -1.8450
  163DOPC  H11Y19772   6.803   2.814   6.454 -1.4282  0.9630 -1.4963
  163DOPC  C31219773   6.760   3.019   6.484 -0.0954 -0.4731 -0.7721
  163DOPC  H12X19774   6.815   3.048   6.392 -0.9039  0.5890 -0.9451
  163DOPC  H12Y19775   6.787   3.096   6.560 -0.1131 -0.2446 -0.9991
  163DOPC  C31319776   6.612   3.042   6.442  0.2166  0.4125 -0.1110
  163DOPC  H13X19777   6.545   3.051   6.531 -0.8871  0.7017 -0.9445
  163DOPC  H13Y19778   6.613   3.141   6.393 -0.2099  0.8535  0.7453
  163DOPC  C31419779   6.566   2.936   6.346  0.0025 -0.4913  0.5906
  163DOPC  H14X19780   6.648   2.913   6.275  0.5137 -0.2295  1.0846
  163DOPC  H14Y19781   6.552   2.841   6.402  0.4532 -1.7823 -1.3899
  163DOPC  C31519782   6.436   2.968   6.262 -0.0038  0.1455 -0.6698
  163DOPC  H15X19783   6.445   3.052   6.190  0.2251  1.5690  0.9618
  163DOPC  H15Y19784   6.354   3.002   6.328  0.4373  0.1455 -0.1172
  163DOPC  C31619785   6.376   2.840   6.197  0.5727  0.0966 -0.3456
  163DOPC  H16X19786   6.363   2.765   6.278 -0.0403  0.0749 -0.4621
  163DOPC  H16Y19787   6.270   2.860   6.169  0.8934  2.7792  0.1269
  163DOPC  C31719788   6.451   2.794   6.072  1.1620  0.8385 -0.3904
  163DOPC  H17X19789   6.454   2.877   5.997  4.2167  0.8609 -0.3767
  163DOPC  H17Y19790   6.557   2.765   6.087  0.6001 -0.2831  1.8159
  163DOPC  C31819791   6.385   2.671   6.002  0.0707 -0.1332 -0.8139
  163DOPC  H18X19792   6.428   2.646   5.903 -2.8327 -1.4960 -1.8411
  163DOPC  H18Y19793   6.404   2.585   6.070  0.9735 -0.4911 -1.4926
  163DOPC  H18Z19794   6.277   2.688   5.980 -0.5211 -2.0659  0.3237
  164DOPC     N19795   2.509   1.211   6.907 -0.4244  0.5182 -0.1693
  164DOPC   C1219796   2.607   1.310   6.968  1.0115 -0.2565 -0.4837
  164DOPC  H12A19797   2.550   1.368   7.040 -0.9845 -3.2052  0.5264
  164DOPC  H12B19798   2.635   1.381   6.892  0.6803  1.0091  0.5390
  164DOPC   C1319799   2.419   1.264   6.805 -0.0740  0.3598  0.1200
  164DOPC  H13A19800   2.365   1.190   6.748 -1.7360  0.8093  1.0434
  164DOPC  H13B19801   2.348   1.331   6.852 -2.1957 -0.7129 -1.4066
  164DOPC  H13C19802   2.472   1.326   6.734  0.5514  0.7953  0.9405
  164DOPC   C1419803   2.422   1.143   7.015  0.2572  0.4218 -0.6278
  164DOPC  H14A19804   2.470   1.069   7.077 -0.8281 -0.5436 -0.9041
  164DOPC  H14B19805   2.388   1.226   7.076  0.1968  1.2923 -1.8176
  164DOPC  H14C19806   2.335   1.100   6.968 -0.8572  0.1946  1.5335
  164DOPC   C1519807   2.583   1.110   6.822  0.7038  0.1963 -0.3634
  164DOPC  H15A19808   2.509   1.049   6.774  0.4311 -0.4889  0.8906
  164DOPC  H15B19809   2.644   1.043   6.880 -0.9122  1.4892  3.1335
  164DOPC  H15C19810   2.651   1.148   6.747  1.8885 -0.1896  0.4907
  164DOPC   C1119811   2.719   1.245   7.055 -0.3574  1.0046 -0.4605
  164DOPC  H11A19812   2.684   1.164   7.123  0.3144 -0.0407 -1.3257
  164DOPC  H11B19813   2.790   1.191   6.989 -0.2944 -0.2169  0.5776
  164DOPC     P19814   2.859   1.464   7.054 -0.0920  0.0839  0.3057
  164DOPC   O1319815   2.993   1.483   7.115 -0.1505  0.3002 -0.1574
  164DOPC   O1419816   2.778   1.586   7.042  0.0615  0.2146  0.3735
  164DOPC   O1219817   2.775   1.353   7.128  0.2225  0.3926  0.0871
  164DOPC   O1119818   2.868   1.408   6.910  0.0399 -0.3031  0.4857
  164DOPC    C119819   2.961   1.452   6.805  0.4790  0.3969 -0.0790
  164DOPC    HA19820   3.066   1.463   6.839  0.5805 -1.2210  0.2177
  164DOPC    HB19821   2.922   1.551   6.772 -0.3537  0.4981  1.1000
  164DOPC    C219822   2.943   1.349   6.687 -0.3875  0.1608  0.2500
  164DOPC    HS19823   3.003   1.378   6.599 -1.5370 -0.1891 -0.6726
  164DOPC   O2119824   2.802   1.322   6.655  0.4493  0.5261  0.3489
  164DOPC   C2119825   2.765   1.385   6.545 -0.0625 -0.4558 -0.1616
  164DOPC   O2219826   2.832   1.432   6.456 -0.0592 -0.4417 -0.3031
  164DOPC   C2219827   2.609   1.390   6.535 -0.7785 -0.4470  0.3504
  164DOPC   H2R19828   2.567   1.475   6.595 -2.5666 -0.4527 -0.8067
  164DOPC   H2S19829   2.564   1.298   6.578 -0.4491 -1.8177 -2.0920
  164DOPC    C319830   3.003   1.214   6.730 -0.6862 -0.2312 -0.3259
  164DOPC    HX19831   2.942   1.157   6.804 -2.1432  0.6697 -0.7934
  164DOPC    HY19832   3.096   1.242   6.784 -1.6102 -0.4947  1.4890
  164DOPC   O3119833   3.036   1.139   6.609  0.0592  0.4416  0.0241
  164DOPC   C3119834   2.948   1.055   6.561 -0.5119 -0.0199  0.9117
  164DOPC   O3219835   2.867   0.993   6.627  0.5314 -0.5926  0.4960
  164DOPC   C3219836   2.970   1.045   6.406 -0.5285  0.4568  0.2481
  164DOPC   H2X19837   3.013   1.139   6.366  0.7902 -1.3389 -2.9643
  164DOPC   H2Y19838   3.049   0.967   6.402 -0.6152  0.1644  2.7305
  164DOPC   C2319839   2.553   1.408   6.390  0.5093 -0.1574  1.2466
  164DOPC   H3R19840   2.588   1.332   6.317 -3.0236 -0.2908 -0.5273
  164DOPC   H3S19841   2.582   1.512   6.366 -2.1411  0.9933  2.6010
  164DOPC   C2419842   2.396   1.420   6.366  0.1054  1.1112  0.8280
  164DOPC   H4R19843   2.361   1.503   6.430  0.2930  1.6198  0.2866
  164DOPC   H4S19844   2.355   1.320   6.392  2.2141 -0.2762 -0.7682
  164DOPC   C2519845   2.357   1.440   6.213  0.1160 -0.0261  0.8007
  164DOPC   H5R19846   2.248   1.459   6.205  0.1150 -0.1562  0.5138
  164DOPC   H5S19847   2.374   1.346   6.157  0.8974  1.2895 -1.2532
  164DOPC   C2619848   2.422   1.566   6.144 -0.4941  0.4236 -0.2863
  164DOPC   H6R19849   2.381   1.579   6.042 -0.4547 -2.3240 -0.7327
  164DOPC   H6S19850   2.528   1.537   6.129  0.2530  2.9160 -0.2802
  164DOPC   C2719851   2.427   1.696   6.232  0.4595  1.1636 -0.1082
  164DOPC   H7R19852   2.465   1.674   6.334  1.1593  2.1940 -0.1412
  164DOPC   H7S19853   2.320   1.727   6.239 -0.0285 -0.6825  1.5632
  164DOPC   C2819854   2.515   1.810   6.182  0.3035  0.9440  0.4527
  164DOPC   H8R19855   2.480   1.839   6.081 -0.7673 -3.3986 -0.6357
  164DOPC   H8S19856   2.622   1.786   6.161  0.0567 -0.4740  0.6844
  164DOPC   C2919857   2.502   1.930   6.271 -0.4384 -0.3543  1.0493
  164DOPC   H9R19858   2.444   1.922   6.364 -0.3049  1.4188  1.3287
  164DOPC  C21019859   2.535   2.062   6.252 -0.2135  0.6450  0.0861
  164DOPC  H10R19860   2.495   2.137   6.322  0.6825  1.0213  0.2094
  164DOPC  C21119861   2.593   2.113   6.123  0.2983  0.1926 -0.4569
  164DOPC  H11R19862   2.642   2.041   6.054  1.5491  0.5043  0.0889
  164DOPC  H11S19863   2.664   2.192   6.157  0.3345  0.2657 -0.6981
  164DOPC  C21219864   2.488   2.185   6.035 -0.6435 -0.6477  0.9717
  164DOPC  H12R19865   2.456   2.276   6.090  2.5083  0.9444  0.3711
  164DOPC  H12S19866   2.397   2.123   6.021 -1.5972  0.9248 -0.0814
  164DOPC  C21319867   2.545   2.236   5.904  0.1735  0.3174  0.0600
  164DOPC  H13R19868   2.588   2.148   5.851 -0.1007 -0.1393  0.5932
  164DOPC  H13S19869   2.631   2.306   5.914  0.7057 -0.4536  1.0419
  164DOPC  C21419870   2.430   2.302   5.815  0.1732  1.8226  0.4723
  164DOPC  H14R19871   2.377   2.373   5.881 -0.3048  1.7981  0.1208
  164DOPC  H14S19872   2.364   2.216   5.789  2.8564  0.4229 -2.3006
  164DOPC  C21519873   2.478   2.377   5.692 -0.1852 -0.1794  0.5191
  164DOPC  H15R19874   2.539   2.466   5.716  1.4365 -0.6625 -1.4983
  164DOPC  H15S19875   2.380   2.401   5.645 -0.3909 -0.0857  0.9935
  164DOPC  C21619876   2.551   2.290   5.592  0.3533 -0.1332  0.9478
  164DOPC  H16R19877   2.541   2.325   5.487 -0.1594 -0.1551  0.9847
  164DOPC  H16S19878   2.517   2.185   5.609  1.1517 -0.6389 -0.4126
  164DOPC  C21719879   2.705   2.289   5.599  0.0356  0.0943  0.2088
  164DOPC  H17R19880   2.738   2.263   5.702 -0.3425 -3.2636 -0.4006
  164DOPC  H17S19881   2.741   2.393   5.585 -0.4005  0.2178 -0.0153
  164DOPC  C21819882   2.776   2.183   5.510  0.0045 -0.1352  0.1137
  164DOPC  H18R19883   2.885   2.176   5.530 -0.0416 -0.2320  0.3350
  164DOPC  H18S19884   2.767   2.219   5.405  0.3528  1.2029  0.5180
  164DOPC  H18T19885   2.721   2.087   5.521 -1.3445  0.6141  0.1260
  164DOPC   C3319886   2.839   1.015   6.328 -0.3851  0.2391  0.3756
  164DOPC   H3X19887   2.755   1.080   6.358 -1.8345  1.0076 -4.3892
  164DOPC   H3Y19888   2.801   0.911   6.339 -4.1305  1.6485  2.3682
  164DOPC   C3419889   2.860   1.060   6.182 -1.0598 -0.2399  0.4604
  164DOPC   H4X19890   2.968   1.042   6.163 -0.9093  0.3440  0.7445
  164DOPC   H4Y19891   2.845   1.171   6.183  1.2078  0.1767 -1.5819
  164DOPC   C3519892   2.772   1.006   6.079  0.4109 -0.1132  0.2565
  164DOPC   H5X19893   2.671   1.051   6.087 -0.1659 -1.5901  2.1027
  164DOPC   H5Y19894   2.762   0.896   6.093 -0.8918 -0.2202 -1.2485
  164DOPC   C3619895   2.821   1.033   5.936  0.2220 -0.2200 -0.0225
  164DOPC   H6X19896   2.836   1.142   5.919  1.7539 -0.3167  0.5821
  164DOPC   H6Y19897   2.924   0.992   5.931  0.3980  0.2344 -0.1739
  164DOPC   C3719898   2.724   0.968   5.838 -0.0903  0.2356  0.4713
  164DOPC   H7X19899   2.702   0.869   5.882  5.5389 -0.8550  1.5751
  164DOPC   H7Y19900   2.630   1.027   5.840 -0.8336 -0.9321  1.3892
  164DOPC   C3819901   2.770   0.942   5.691 -0.0387  0.1006  0.3620
  164DOPC   H8X19902   2.684   0.910   5.629  1.0878 -0.4057 -0.9993
  164DOPC   H8Y19903   2.828   0.849   5.709 -0.0648  0.2541  1.2745
  164DOPC   C3919904   2.835   1.066   5.631 -0.3208 -0.3755  0.1953
  164DOPC   H9X19905   2.916   1.105   5.695 -1.5560 -2.0721  2.9686
  164DOPC  C31019906   2.794   1.130   5.520 -0.5546  0.2762 -0.6463
  164DOPC  H10X19907   2.853   1.217   5.487  1.4591  0.4227  2.9044
  164DOPC  C31119908   2.683   1.083   5.424  0.0330  1.2151 -0.3459
  164DOPC  H11X19909   2.602   1.159   5.421 -0.8419  0.3855  1.2147
  164DOPC  H11Y19910   2.642   0.981   5.441 -1.9369  2.1005  0.4745
  164DOPC  C31219911   2.737   1.079   5.280 -0.4875  0.1167  0.2207
  164DOPC  H12X19912   2.832   1.023   5.271 -0.6640 -0.3445  1.0751
  164DOPC  H12Y19913   2.760   1.184   5.254 -3.3762  0.1118 -2.9698
  164DOPC  C31319914   2.628   1.036   5.178  0.2143 -0.2408  0.2855
  164DOPC  H13X19915   2.593   0.936   5.211 -2.8697  1.2076  1.7803
  164DOPC  H13Y19916   2.544   1.108   5.185  0.9569  0.5002  3.0742
  164DOPC  C31419917   2.669   1.035   5.031  0.1414  0.3998  0.7478
  164DOPC  H14X19918   2.765   0.980   5.020  1.0759  2.1209 -0.2217
  164DOPC  H14Y19919   2.687   1.143   5.008 -1.8465  0.4940 -0.5749
  164DOPC  C31519920   2.558   0.979   4.936 -0.1606  0.1368  0.9140
  164DOPC  H15X19921   2.462   1.026   4.967 -2.2652 -1.7928 -2.0783
  164DOPC  H15Y19922   2.546   0.870   4.956  0.6071 -0.6180 -2.1494
  164DOPC  C31619923   2.575   1.005   4.781 -0.7085 -0.0999  0.0689
  164DOPC  H16X19924   2.528   1.103   4.758  0.6688  0.8328  0.9790
  164DOPC  H16Y19925   2.682   1.015   4.754  0.1814  0.1545  3.2230
  164DOPC  C31719926   2.500   0.896   4.700 -0.1890 -0.1608 -0.9823
  164DOPC  H17X19927   2.516   0.792   4.734 -1.4962  0.3163  1.3116
  164DOPC  H17Y19928   2.390   0.916   4.699  0.0426  1.2216 -2.3388
  164DOPC  C31819929   2.524   0.915   4.550  0.1789 -0.7959 -0.0315
  164DOPC  H18X19930   2.631   0.906   4.521  0.1801  3.3195 -1.9936
  164DOPC  H18Y19931   2.467   0.838   4.494  0.4031 -1.0762  0.1216
  164DOPC  H18Z19932   2.500   1.021   4.526  0.6089 -1.1683 -2.3499
  165DOPC     N19933   6.736   0.723   8.046  0.1417 -0.5822 -0.2143
  165DOPC   C1219934   6.879   0.681   8.084  0.2349 -0.1310  0.6852
  165DOPC  H12A19935   6.873   0.601   8.157 -1.9398 -1.2508 -0.6381
  165DOPC  H12B19936   6.924   0.759   8.143 -1.1611  0.9320  0.3890
  165DOPC   C1319937   6.665   0.797   8.158 -0.2814 -0.1017 -0.6943
  165DOPC  H13A19938   6.564   0.828   8.134 -0.3491  0.3136  0.1014
  165DOPC  H13B19939   6.671   0.751   8.255 -1.9359  2.0496  0.5227
  165DOPC  H13C19940   6.724   0.886   8.172 -2.6680  1.3868  0.6433
  165DOPC   C1419941   6.654   0.602   8.007  0.4652 -0.1664 -0.0502
  165DOPC  H14A19942   6.553   0.636   7.990 -0.5540 -2.6863  0.5045
  165DOPC  H14B19943   6.694   0.551   7.921 -0.5995 -1.6995  0.3234
  165DOPC  H14C19944   6.655   0.530   8.088 -0.5235 -0.6868 -0.4832
  165DOPC   C1519945   6.741   0.817   7.933 -0.1496  0.3067  0.2720
  165DOPC  H15A19946   6.801   0.779   7.852  0.9048  1.1024  0.6487
  165DOPC  H15B19947   6.784   0.910   7.966  0.2203  0.2702 -0.0978
  165DOPC  H15C19948   6.640   0.831   7.897  0.4660  1.8992 -0.9804
  165DOPC   C1119949   6.973   0.641   7.972 -0.6257 -0.1732  0.1631
  165DOPC  H11A19950   7.010   0.732   7.921 -0.2813 -0.0832  0.5650
  165DOPC  H11B19951   7.054   0.579   8.017 -0.9671 -0.4749  0.3662
  165DOPC     P19952   6.927   0.551   7.720 -0.0816 -0.0751  0.0934
  165DOPC   O1319953   6.914   0.415   7.669 -0.0075  0.3092 -0.0337
  165DOPC   O1419954   7.058   0.613   7.697  0.5300  0.2736 -0.9573
  165DOPC   O1219955   6.906   0.551   7.877  0.5132  0.3518  0.5662
  165DOPC   O1119956   6.815   0.664   7.684 -0.0643  0.4552  0.1024
  165DOPC    C119957   6.689   0.610   7.649 -0.7066 -0.0309  0.8544
  165DOPC    HA19958   6.605   0.683   7.662 -1.4104 -0.5726 -0.4766
  165DOPC    HB19959   6.654   0.516   7.697 -1.1432  0.1431  0.8904
  165DOPC    C219960   6.676   0.599   7.496  0.0120 -0.1407  0.0915
  165DOPC    HS19961   6.758   0.530   7.467  0.8394  1.2375 -0.9906
  165DOPC   O2119962   6.700   0.736   7.450  0.2278  0.0991  0.4263
  165DOPC   C2119963   6.749   0.742   7.333  0.0871  0.1305 -0.0798
  165DOPC   O2219964   6.794   0.645   7.271  0.0527  0.3313  0.2097
  165DOPC   C2219965   6.762   0.881   7.284 -0.0262 -0.5108  0.0404
  165DOPC   H2R19966   6.870   0.905   7.279 -0.1586  0.2483  0.7410
  165DOPC   H2S19967   6.707   0.954   7.346  0.1402 -0.3484 -0.0057
  165DOPC    C319968   6.534   0.557   7.445  0.0172  0.0790 -0.4846
  165DOPC    HX19969   6.474   0.650   7.441 -0.8284 -0.4605 -0.5242
  165DOPC    HY19970   6.478   0.484   7.507 -0.5485  0.5256 -0.4639
  165DOPC   O3119971   6.533   0.515   7.312  0.0257 -0.2947  0.4778
  165DOPC   C3119972   6.602   0.408   7.281  0.1368  0.1672  0.1622
  165DOPC   O3219973   6.647   0.327   7.362  0.0813  0.4266 -0.1265
  165DOPC   C3219974   6.599   0.393   7.125 -0.3177  0.4550  0.3051
  165DOPC   H2X19975   6.496   0.360   7.104 -0.0703 -0.7777  0.9611
  165DOPC   H2Y19976   6.625   0.488   7.073 -1.2094 -0.7914 -2.6100
  165DOPC   C2319977   6.710   0.894   7.144  0.9116 -0.3070 -0.6478
  165DOPC   H3R19978   6.600   0.886   7.152  0.8259  1.2438  0.1016
  165DOPC   H3S19979   6.731   0.801   7.086 -1.0162 -0.8939 -0.4847
  165DOPC   C2419980   6.765   1.012   7.072  0.1972 -0.1177 -0.4549
  165DOPC   H4R19981   6.875   1.025   7.081 -0.0121  0.2348  2.5259
  165DOPC   H4S19982   6.720   1.084   7.143 -0.6103 -3.0838  2.2765
  165DOPC   C2519983   6.720   1.044   6.928 -0.3027  0.3747 -0.3863
  165DOPC   H5R19984   6.611   1.061   6.940  0.0461  2.1625  0.6123
  165DOPC   H5S19985   6.750   0.968   6.853 -0.8276 -2.3260  1.9480
  165DOPC   C2619986   6.764   1.187   6.876  0.3828 -0.3474  0.4921
  165DOPC   H6R19987   6.857   1.171   6.818 -1.0465  0.0728 -2.0315
  165DOPC   H6S19988   6.793   1.251   6.962  2.4390  0.7452 -0.9418
  165DOPC   C2719989   6.667   1.264   6.778 -0.0364  0.1023 -0.2720
  165DOPC   H7R19990   6.565   1.270   6.820 -1.2219 -2.1351 -2.5579
  165DOPC   H7S19991   6.660   1.199   6.689 -0.8730  0.6670 -0.6217
  165DOPC   C2819992   6.733   1.400   6.738  0.2472 -0.0641  0.3076
  165DOPC   H8R19993   6.747   1.473   6.820 -1.0922 -1.2317  1.6509
  165DOPC   H8S19994   6.653   1.445   6.674 -0.6504  0.4091  1.7010
  165DOPC   C2919995   6.858   1.380   6.658  0.0942  0.1616 -0.0093
  165DOPC   H9R19996   6.947   1.374   6.721  1.1354  0.9038 -1.3617
  165DOPC  C21019997   6.871   1.348   6.532 -0.4398 -0.1293 -0.6191
  165DOPC  H10R19998   6.973   1.321   6.498  0.0992  0.2622  0.6322
  165DOPC  C21119999   6.756   1.366   6.437  0.7720 -0.1337 -0.8228
  165DOPC  H11R20000   6.655   1.341   6.475  2.1045 -2.8387  1.3331
  165DOPC  H11S20001   6.775   1.299   6.351  2.1987 -0.4793 -0.2665
  165DOPC  C21220002   6.763   1.514   6.381  0.7153  0.2326 -0.1325
  165DOPC  H12R20003   6.719   1.582   6.456 -2.9165 -0.0500 -1.7878
  165DOPC  H12S20004   6.694   1.521   6.295  0.7034 -1.3967 -0.2889
  165DOPC  C21320005   6.896   1.585   6.343  0.2356  0.1759 -0.0033
  165DOPC  H13R20006   6.940   1.604   6.443  0.1145  1.9282 -0.2576
  165DOPC  H13S20007   6.860   1.682   6.303 -2.4231 -1.1116 -0.9550
  165DOPC  C21420008   7.001   1.519   6.261  0.3340  0.7521  0.3548
  165DOPC  H14R20009   7.061   1.448   6.322  0.2933 -1.4488 -1.9873
  165DOPC  H14S20010   7.070   1.601   6.233  0.4625  1.1276  1.7012
  165DOPC  C21520011   6.961   1.443   6.129  0.3209 -0.0068 -0.3989
  165DOPC  H15R20012   6.866   1.493   6.102  0.9337  0.5531 -1.5364
  165DOPC  H15S20013   6.935   1.336   6.150 -1.8088  0.5567  0.1135
  165DOPC  C21620014   7.054   1.464   6.018 -0.4048  0.1884  0.5155
  165DOPC  H16R20015   7.153   1.421   6.041 -0.7066 -0.8739 -0.0980
  165DOPC  H16S20016   7.075   1.571   5.997  0.1569 -0.0113  0.0185
  165DOPC  C21720017   7.010   1.403   5.882  0.1727 -0.1917 -0.0689
  165DOPC  H17R20018   6.926   1.463   5.840 -0.3808  0.0126  1.2685
  165DOPC  H17S20019   6.961   1.305   5.899 -1.8525  0.6554 -0.6965
  165DOPC  C21820020   7.125   1.384   5.786 -0.1413 -0.5690  0.7415
  165DOPC  H18R20021   7.089   1.347   5.688 -0.9473  1.7412  0.0867
  165DOPC  H18S20022   7.198   1.305   5.813  0.3026 -0.2868  0.3858
  165DOPC  H18T20023   7.186   1.474   5.761  2.5651 -2.8134 -1.4065
  165DOPC   C3320024   6.688   0.289   7.070 -0.0027  0.7048  0.3891
  165DOPC   H3X20025   6.657   0.187   7.101  0.8633 -0.0378 -1.0395
  165DOPC   H3Y20026   6.796   0.307   7.091 -0.2328  1.3930  1.0258
  165DOPC   C3420027   6.677   0.288   6.910 -0.4396  0.0102 -0.8365
  165DOPC   H4X20028   6.661   0.391   6.870 -2.8927  0.6386  1.4610
  165DOPC   H4Y20029   6.586   0.231   6.880 -1.3196 -1.4396  3.7830
  165DOPC   C3520030   6.805   0.226   6.847 -0.1759 -0.3394  0.0823
  165DOPC   H5X20031   6.806   0.118   6.874  1.4181  0.0541  1.8297
  165DOPC   H5Y20032   6.898   0.266   6.894 -0.5231 -0.7113  1.1169
  165DOPC   C3620033   6.809   0.238   6.697 -1.1864  0.4569  0.2189
  165DOPC   H6X20034   6.733   0.167   6.657 -0.9579 -1.2942  2.6671
  165DOPC   H6Y20035   6.769   0.338   6.671  0.1133  1.0786  0.5442
  165DOPC   C3720036   6.944   0.179   6.644  0.3137 -0.0429 -0.0927
  165DOPC   H7X20037   6.972   0.081   6.690 -0.2849  0.1178  0.6304
  165DOPC   H7Y20038   7.024   0.252   6.669  2.3274 -1.2855 -2.3940
  165DOPC   C3820039   6.948   0.154   6.496  0.1992 -0.1827 -0.3900
  165DOPC   H8X20040   6.897   0.239   6.446  1.7055  0.9653 -0.0574
  165DOPC   H8Y20041   6.884   0.068   6.466  0.7847 -1.3078  1.4295
  165DOPC   C3920042   7.082   0.141   6.438  0.1677  0.2691  0.6610
  165DOPC   H9X20043   7.121   0.038   6.445 -0.4015  0.0619  0.9118
  165DOPC  C31020044   7.147   0.240   6.373  0.1858  0.2061  0.1941
  165DOPC  H10X20045   7.250   0.219   6.340  0.7042 -0.0360  1.9079
  165DOPC  C31120046   7.104   0.385   6.371  0.3536 -0.3986  0.3826
  165DOPC  H11X20047   7.190   0.448   6.404  0.3066 -0.8341  1.3810
  165DOPC  H11Y20048   7.014   0.402   6.433 -1.4512 -1.1399 -1.8709
  165DOPC  C31220049   7.060   0.446   6.235 -0.4118  0.1121  0.6294
  165DOPC  H12X20050   6.991   0.527   6.266  1.1164  2.3365 -1.4162
  165DOPC  H12Y20051   6.996   0.367   6.189  0.4389 -0.6871  0.7852
  165DOPC  C31320052   7.164   0.491   6.141 -0.4450  0.2861  0.3185
  165DOPC  H13X20053   7.220   0.581   6.173 -0.6856  0.6967 -0.3966
  165DOPC  H13Y20054   7.237   0.407   6.133 -1.8672 -1.0345  0.6928
  165DOPC  C31420055   7.097   0.528   5.999 -0.5281  0.2723 -0.5660
  165DOPC  H14X20056   7.025   0.447   5.976  0.4454 -0.5757 -0.7214
  165DOPC  H14Y20057   7.053   0.630   6.006  0.2477  0.5093  2.3165
  165DOPC  C31520058   7.203   0.537   5.887 -0.2871 -0.0264 -0.6222
  165DOPC  H15X20059   7.254   0.440   5.871 -2.5852 -1.2342 -1.0706
  165DOPC  H15Y20060   7.269   0.615   5.932 -1.8366  0.5533  0.7452
  165DOPC  C31620061   7.152   0.584   5.758  0.6501 -0.0458  0.0208
  165DOPC  H16X20062   7.245   0.607   5.702  0.9832  1.6628  1.1979
  165DOPC  H16Y20063   7.082   0.515   5.706  1.3764 -1.6236  1.0503
  165DOPC  C31720064   7.095   0.727   5.751  0.6362  0.0888  0.7524
  165DOPC  H17X20065   6.993   0.724   5.796  1.3741 -2.1616  2.4813
  165DOPC  H17Y20066   7.135   0.797   5.827 -0.7744  0.6339  1.0347
  165DOPC  C31820067   7.086   0.771   5.612 -0.0053 -0.2560  0.4917
  165DOPC  H18X20068   7.183   0.809   5.573 -0.0449 -1.0962 -0.4445
  165DOPC  H18Y20069   7.043   0.687   5.554 -0.1601 -1.1569  1.8645
  165DOPC  H18Z20070   7.012   0.854   5.606  1.3029  0.8735 -0.9282
  166DOPC     N20071   7.226   1.840   8.168  0.2948  0.0422  0.5161
  166DOPC   C1220072   7.253   1.929   8.043  0.6843 -0.4830  0.1078
  166DOPC  H12A20073   7.354   1.911   8.012  0.4568  0.1950 -1.0742
  166DOPC  H12B20074   7.245   2.033   8.071 -1.0399  0.1721 -2.4491
  166DOPC   C1320075   7.230   1.696   8.125 -0.7706  0.8145  0.2132
  166DOPC  H13A20076   7.144   1.675   8.064  1.9987 -3.2495 -2.8113
  166DOPC  H13B20077   7.309   1.660   8.061 -1.4146 -1.3206  0.5363
  166DOPC  H13C20078   7.218   1.625   8.206  0.6232 -0.2579 -0.4759
  166DOPC   C1420079   7.092   1.870   8.230  0.4850  0.1373  0.9383
  166DOPC  H14A20080   7.081   1.816   8.323 -1.5207 -1.5579 -0.2042
  166DOPC  H14B20081   7.075   1.976   8.244 -0.6132  0.0058  0.6630
  166DOPC  H14C20082   7.012   1.849   8.161  2.3612  1.3920 -1.7911
  166DOPC   C1520083   7.332   1.864   8.271 -0.0793 -0.1884 -0.7674
  166DOPC  H15A20084   7.430   1.852   8.228 -0.9968 -0.9097 -2.8088
  166DOPC  H15B20085   7.322   1.810   8.364 -0.4394 -0.5779 -1.0292
  166DOPC  H15C20086   7.321   1.963   8.313  1.2259 -0.8010  1.1666
  166DOPC   C1120087   7.154   1.919   7.925 -0.2086  1.2111  0.5113
  166DOPC  H11A20088   7.202   1.970   7.838  2.6329 -1.3574  0.4450
  166DOPC  H11B20089   7.123   1.817   7.894 -1.3172  1.2616  1.4126
  166DOPC     P20090   7.009   2.137   7.980  0.7923  0.4118 -0.3568
  166DOPC   O1320091   7.094   2.185   8.087  0.3533  0.2479 -0.2580
  166DOPC   O1420092   6.864   2.153   7.993 -0.1491  0.1957 -0.5713
  166DOPC   O1220093   7.032   1.984   7.954  0.3584  0.0784 -0.4381
  166DOPC   O1120094   7.063   2.216   7.844 -0.0935  0.3608 -0.7346
  166DOPC    C120095   6.972   2.252   7.747 -0.1690  0.5967  0.3126
  166DOPC    HA20096   7.027   2.325   7.683  0.0535  0.5522  0.4529
  166DOPC    HB20097   6.885   2.313   7.780  0.3119  1.8263 -0.6108
  166DOPC    C220098   6.925   2.138   7.661 -0.0152  0.2760  0.2648
  166DOPC    HS20099   6.869   2.078   7.735  3.2370  0.0624  2.7527
  166DOPC   O2120100   7.037   2.052   7.613  0.1891 -0.4498  0.1557
  166DOPC   C2120101   7.013   1.935   7.550  0.9721  0.2396  0.4275
  166DOPC   O2220102   6.903   1.892   7.530  0.5091 -0.3571 -0.4149
  166DOPC   C2220103   7.135   1.870   7.491  0.0068  0.1138  0.0395
  166DOPC   H2R20104   7.092   1.797   7.419  1.9440  0.0076 -1.0866
  166DOPC   H2S20105   7.193   1.829   7.577  1.0920  0.5453 -0.4624
  166DOPC    C320106   6.836   2.185   7.550  0.4194 -0.6188 -0.5651
  166DOPC    HX20107   6.743   2.229   7.592  1.1523 -0.2440  0.7123
  166DOPC    HY20108   6.791   2.096   7.501  0.6129 -1.2112  0.3006
  166DOPC   O3120109   6.895   2.265   7.450 -0.3128 -0.5152 -0.1518
  166DOPC   C3120110   6.857   2.389   7.436  0.0007  0.1437  0.7308
  166DOPC   O3220111   6.781   2.458   7.500  0.7188 -0.7127 -0.3087
  166DOPC   C3220112   6.929   2.453   7.314 -0.8132  0.4523  0.8573
  166DOPC   H2X20113   6.969   2.550   7.350  0.7692 -0.0160  0.4491
  166DOPC   H2Y20114   7.030   2.415   7.286 -0.4109  0.7064  1.9270
  166DOPC   C2320115   7.212   1.971   7.407 -0.3836  0.2631 -0.2687
  166DOPC   H3R20116   7.306   1.922   7.370 -0.8887 -0.5460 -0.5140
  166DOPC   H3S20117   7.241   2.058   7.469 -2.2686  1.2943 -0.7959
  166DOPC   C2420118   7.125   2.015   7.292 -0.9547 -0.9811  0.1168
  166DOPC   H4R20119   7.035   2.071   7.323 -0.9774 -0.8945 -0.1018
  166DOPC   H4S20120   7.107   1.932   7.220 -0.4108  0.0560 -1.2530
  166DOPC   C2520121   7.205   2.116   7.204 -0.1154  0.3618 -0.0017
  166DOPC   H5R20122   7.302   2.069   7.176 -0.0256 -0.8936  2.1787
  166DOPC   H5S20123   7.222   2.199   7.275  0.5930 -1.8297  2.5820
  166DOPC   C2620124   7.125   2.171   7.086 -0.5821 -0.7646  0.2430
  166DOPC   H6R20125   7.027   2.200   7.130 -1.4123 -2.4544 -0.4370
  166DOPC   H6S20126   7.095   2.095   7.012 -1.1861  0.8441 -1.2292
  166DOPC   C2720127   7.198   2.290   7.022  0.0910 -0.0785  0.1015
  166DOPC   H7R20128   7.298   2.250   6.995  0.7481  0.7401  1.2102
  166DOPC   H7S20129   7.210   2.377   7.090  2.6145  0.4828 -0.9564
  166DOPC   C2820130   7.116   2.341   6.895 -0.4649 -0.0208 -0.1930
  166DOPC   H8R20131   7.014   2.370   6.928  0.7211  0.5890  3.4479
  166DOPC   H8S20132   7.105   2.257   6.823 -1.6631  1.5640 -1.9785
  166DOPC   C2920133   7.189   2.451   6.819 -0.0330 -0.1264  0.1495
  166DOPC   H9R20134   7.253   2.517   6.879  0.2266  0.2951 -0.5806
  166DOPC  C21020135   7.183   2.485   6.693  0.5871 -0.0145  0.1363
  166DOPC  H10R20136   7.252   2.559   6.650  0.6713  0.7390  1.5116
  166DOPC  C21120137   7.098   2.410   6.592  0.3914  0.4864  0.3552
  166DOPC  H11R20138   7.013   2.474   6.561  0.4093  1.2557  1.7827
  166DOPC  H11S20139   7.047   2.324   6.642 -0.1594 -0.1717 -1.2851
  166DOPC  C21220140   7.179   2.358   6.470  0.2387 -0.3063 -0.0801
  166DOPC  H12R20141   7.123   2.267   6.441 -0.9913  0.0127  1.1975
  166DOPC  H12S20142   7.281   2.328   6.502  0.5061 -0.3304 -0.9234
  166DOPC  C21320143   7.192   2.460   6.356  0.8319 -0.0547 -1.1343
  166DOPC  H13R20144   7.241   2.417   6.266 -0.1469 -1.7234 -0.9203
  166DOPC  H13S20145   7.256   2.539   6.399 -0.8681  0.0040  1.5070
  166DOPC  C21420146   7.062   2.538   6.308  0.1282 -0.8267  0.6537
  166DOPC  H14R20147   7.026   2.596   6.395  1.3116 -0.0696  0.6635
  166DOPC  H14S20148   6.977   2.472   6.280  0.2930 -0.2748 -1.2943
  166DOPC  C21520149   7.086   2.633   6.189 -0.0693 -0.0817 -0.7507
  166DOPC  H15R20150   7.130   2.583   6.100 -1.6082 -3.5833  0.2900
  166DOPC  H15S20151   7.161   2.713   6.208  1.2423 -1.0277 -1.8373
  166DOPC  C21620152   6.951   2.692   6.147  0.1443 -0.1901  0.2336
  166DOPC  H16R20153   6.920   2.759   6.230  2.2045  0.3906  0.5944
  166DOPC  H16S20154   6.870   2.620   6.123 -0.8090  1.5478 -2.2268
  166DOPC  C21720155   6.970   2.769   6.014 -0.7969 -0.3495 -0.6713
  166DOPC  H17R20156   7.011   2.708   5.931  1.1875  0.4235 -0.3213
  166DOPC  H17S20157   7.046   2.848   6.032 -1.9023  0.1201  2.5393
  166DOPC  C21820158   6.847   2.838   5.956 -0.3643  0.0983 -0.2073
  166DOPC  H18R20159   6.879   2.896   5.867  0.4130  0.4074  0.2714
  166DOPC  H18S20160   6.804   2.914   6.025  1.5130  0.8308  0.2101
  166DOPC  H18T20161   6.772   2.759   5.935 -1.0831  0.9469 -0.9196
  166DOPC   C3320162   6.814   2.457   7.201  0.3782 -0.4950  0.0180
  166DOPC   H3X20163   6.855   2.511   7.113 -2.4056 -1.5001 -2.0509
  166DOPC   H3Y20164   6.724   2.512   7.236  0.3942  0.3431 -1.2114
  166DOPC   C3420165   6.761   2.327   7.149  0.4682 -0.4282 -0.9192
  166DOPC   H4X20166   6.730   2.258   7.231 -2.5933  0.7867 -0.9481
  166DOPC   H4Y20167   6.842   2.266   7.102  0.7197 -0.6922 -0.1703
  166DOPC   C3520168   6.637   2.340   7.057 -0.3208 -0.0817 -0.4464
  166DOPC   H5X20169   6.576   2.429   7.083 -0.0465  0.7605 -2.4990
  166DOPC   H5Y20170   6.567   2.254   7.060  0.8739 -1.0835  2.8854
  166DOPC   C3620171   6.684   2.365   6.909 -0.2543  0.2677 -0.2695
  166DOPC   H6X20172   6.681   2.475   6.891  0.6134  0.3346 -0.0747
  166DOPC   H6Y20173   6.784   2.317   6.916 -1.0795 -1.2468  1.8600
  166DOPC   C3720174   6.591   2.302   6.801 -1.2132 -0.5673  0.1966
  166DOPC   H7X20175   6.584   2.193   6.823 -1.3003 -1.4648 -3.5229
  166DOPC   H7Y20176   6.490   2.347   6.804 -0.2678  1.5933  2.5987
  166DOPC   C3820177   6.652   2.315   6.654  0.3368 -0.0118  0.7512
  166DOPC   H8X20178   6.585   2.247   6.597 -0.7992  1.1704  0.6177
  166DOPC   H8Y20179   6.743   2.251   6.649  0.1426 -0.2687  0.4828
  166DOPC   C3920180   6.682   2.452   6.603  0.5951 -0.0686  0.1220
  166DOPC   H9X20181   6.731   2.524   6.670  0.3295  1.0462 -0.8375
  166DOPC  C31020182   6.664   2.485   6.469  0.4927  0.5456 -0.0763
  166DOPC  H10X20183   6.688   2.587   6.433 -0.0041  1.2729  1.5696
  166DOPC  C31120184   6.616   2.381   6.371  0.3398 -0.2749  0.4933
  166DOPC  H11X20185   6.524   2.331   6.409  0.7293 -1.2813  0.1691
  166DOPC  H11Y20186   6.685   2.294   6.365  0.9250 -0.0573  3.1171
  166DOPC  C31220187   6.598   2.434   6.227  0.7474 -0.3248 -0.2379
  166DOPC  H12X20188   6.685   2.500   6.205 -0.8677  1.8213 -0.4890
  166DOPC  H12Y20189   6.510   2.501   6.216 -0.1133 -1.4181 -0.1353
  166DOPC  C31320190   6.578   2.309   6.138 -0.5936 -0.6774  0.1208
  166DOPC  H13X20191   6.658   2.302   6.061 -1.2413 -0.6908 -0.5676
  166DOPC  H13Y20192   6.575   2.218   6.201  1.1477 -1.8761 -1.4209
  166DOPC  C31420193   6.449   2.305   6.059 -0.8379  0.2274  0.0768
  166DOPC  H14X20194   6.368   2.337   6.129 -0.7046  0.3148  0.1911
  166DOPC  H14Y20195   6.465   2.363   5.965  0.9540  0.4309  0.4755
  166DOPC  C31520196   6.414   2.172   5.983  0.5016  0.1079  0.1818
  166DOPC  H15X20197   6.380   2.102   6.062 -0.4592 -2.2366 -2.1910
  166DOPC  H15Y20198   6.497   2.122   5.928  2.0278  2.4521  0.1827
  166DOPC  C31620199   6.307   2.199   5.870  0.3271 -0.0212  0.1089
  166DOPC  H16X20200   6.357   2.245   5.783 -0.1611 -0.9262 -0.6661
  166DOPC  H16Y20201   6.275   2.099   5.835  0.6736 -0.6724  1.5928
  166DOPC  C31720202   6.186   2.286   5.904  0.2180  0.2740 -0.4291
  166DOPC  H17X20203   6.147   2.250   6.002  0.9912  0.0962 -0.1728
  166DOPC  H17Y20204   6.224   2.389   5.924 -0.8612  0.5865  0.0507
  166DOPC  C31820205   6.079   2.288   5.801  0.7031  0.5633  0.5926
  166DOPC  H18X20206   6.005   2.369   5.818 -0.5296 -0.8764  2.5783
  166DOPC  H18Y20207   6.124   2.298   5.700 -1.7045  0.5081 -0.5476
  166DOPC  H18Z20208   6.019   2.194   5.803  2.0387 -0.3737 -1.0218
  167DOPC     N20209   6.023   0.931   8.169  0.0484 -0.3087  0.2789
  167DOPC   C1220210   6.005   0.929   8.016 -0.5273  0.3507  0.0879
  167DOPC  H12A20211   6.011   1.030   7.977  0.8373 -0.2495 -1.3576
  167DOPC  H12B20212   5.905   0.904   7.985 -0.0247 -0.1307 -1.2144
  167DOPC   C1320213   6.036   0.790   8.226 -0.1451  0.1218 -0.1284
  167DOPC  H13A20214   6.041   0.780   8.333  0.3466 -0.0330 -0.1660
  167DOPC  H13B20215   5.948   0.730   8.205 -0.7765  0.1779  2.0711
  167DOPC  H13C20216   6.118   0.732   8.186 -0.0442 -0.4242  0.8407
  167DOPC   C1420217   5.902   0.986   8.238 -0.4165 -0.2216 -0.1709
  167DOPC  H14A20218   5.813   0.928   8.217  0.5143 -1.1007 -1.8448
  167DOPC  H14B20219   5.912   0.981   8.346 -0.4961  0.1320 -0.1458
  167DOPC  H14C20220   5.881   1.087   8.207 -1.2294 -1.0245 -2.4525
  167DOPC   C1520221   6.149   1.014   8.190  0.4925  0.1393 -0.0770
  167DOPC  H15A20222   6.136   1.108   8.139  2.0723  0.8178  0.6704
  167DOPC  H15B20223   6.236   0.967   8.146  0.7476  2.0250 -1.7084
  167DOPC  H15C20224   6.167   1.037   8.295  1.8776 -1.0299 -0.0215
  167DOPC   C1120225   6.099   0.844   7.929 -0.6221 -0.0084 -0.1429
  167DOPC  H11A20226   6.107   0.737   7.956  2.1555 -0.3592 -1.9902
  167DOPC  H11B20227   6.061   0.848   7.825 -1.7709  2.2502  0.3057
  167DOPC     P20228   6.341   0.814   7.856 -0.0077  0.0724 -0.2654
  167DOPC   O1320229   6.358   0.686   7.925 -0.0147  0.2213  0.0363
  167DOPC   O1420230   6.463   0.896   7.850 -0.0052 -0.1295 -0.3922
  167DOPC   O1220231   6.234   0.895   7.934 -0.2172  0.8898 -0.3043
  167DOPC   O1120232   6.280   0.776   7.717  0.3924 -0.9325 -0.0495
  167DOPC    C120233   6.294   0.852   7.599 -0.3839  0.5646 -0.0345
  167DOPC    HA20234   6.344   0.783   7.528 -1.2893 -0.0311 -0.1232
  167DOPC    HB20235   6.355   0.944   7.611 -1.6806  1.6558 -1.3432
  167DOPC    C220236   6.165   0.907   7.547 -0.3191  0.0391 -0.2679
  167DOPC    HS20237   6.133   0.982   7.623  1.7573 -0.0999  0.8232
  167DOPC   O2120238   6.063   0.802   7.554  0.0413 -0.0739  0.1847
  167DOPC   C2120239   5.936   0.832   7.522 -1.0012 -0.2290 -0.2106
  167DOPC   O2220240   5.888   0.946   7.518 -0.3364  0.0110  0.6423
  167DOPC   C2220241   5.863   0.705   7.495  0.8152  0.4775  0.3473
  167DOPC   H2R20242   5.817   0.682   7.593 -0.3010  0.5911 -0.1293
  167DOPC   H2S20243   5.923   0.622   7.452  1.0369  1.1771 -0.7316
  167DOPC    C320244   6.178   0.968   7.410 -0.3689  0.2466 -0.0733
  167DOPC    HX20245   6.077   1.004   7.379 -0.1421 -0.1279 -1.2935
  167DOPC    HY20246   6.200   0.888   7.336 -3.1101 -0.4139 -0.2729
  167DOPC   O3120247   6.276   1.074   7.407 -0.2650 -0.0421  0.3798
  167DOPC   C3120248   6.394   1.046   7.357 -0.3442  1.2457  0.4019
  167DOPC   O3220249   6.435   0.934   7.326  0.5421 -0.2004  0.0629
  167DOPC   C3220250   6.479   1.174   7.354  1.1277 -0.3487 -0.4073
  167DOPC   H2X20251   6.459   1.236   7.444  3.0615 -1.3396  0.7733
  167DOPC   H2Y20252   6.586   1.154   7.377  0.9811  0.7838  1.5373
  167DOPC   C2320253   5.751   0.720   7.389 -0.6329 -0.3249  0.5380
  167DOPC   H3R20254   5.688   0.805   7.422  1.3800  3.0500 -3.2794
  167DOPC   H3S20255   5.682   0.633   7.392 -0.4558 -0.4595  0.8081
  167DOPC   C2420256   5.815   0.740   7.255 -1.0063 -0.1625  0.4941
  167DOPC   H4R20257   5.890   0.660   7.237 -2.7841 -1.9264  0.5642
  167DOPC   H4S20258   5.872   0.835   7.253 -0.8132 -0.2885 -0.3346
  167DOPC   C2520259   5.714   0.753   7.132  1.0818 -0.1001  0.0248
  167DOPC   H5R20260   5.645   0.839   7.150  2.5245  1.3075 -0.8879
  167DOPC   H5S20261   5.647   0.665   7.131  1.0226 -0.0536 -1.2647
  167DOPC   C2620262   5.788   0.771   6.997 -0.0106 -0.1956 -0.4338
  167DOPC   H6R20263   5.814   0.670   6.958 -0.7475 -0.0612 -1.3261
  167DOPC   H6S20264   5.877   0.835   7.014 -1.3525  1.4543  0.6439
  167DOPC   C2720265   5.709   0.838   6.885 -0.2783  0.1770  0.3518
  167DOPC   H7R20266   5.642   0.911   6.935  0.2824 -0.3819  2.0003
  167DOPC   H7S20267   5.648   0.755   6.845  0.2012  0.1524 -0.3548
  167DOPC   C2820268   5.775   0.909   6.766 -0.4815  0.6388  0.1246
  167DOPC   H8R20269   5.854   0.839   6.732 -1.9258 -1.0354  0.0756
  167DOPC   H8S20270   5.828   0.993   6.815 -0.7570  0.8346  0.0916
  167DOPC   C2920271   5.682   0.953   6.653 -0.6533 -0.6282 -0.7523
  167DOPC   H9R20272   5.667   0.887   6.566 -1.6762 -2.8954  1.0659
  167DOPC  C21020273   5.622   1.070   6.650  0.1210 -0.1626  0.3793
  167DOPC  H10R20274   5.548   1.087   6.570  1.4464 -1.4050 -1.1542
  167DOPC  C21120275   5.643   1.180   6.747 -0.3430 -0.1850 -0.0660
  167DOPC  H11R20276   5.703   1.161   6.838 -0.3233 -0.2716 -0.0970
  167DOPC  H11S20277   5.545   1.215   6.787  1.3388  0.5496  3.9123
  167DOPC  C21220278   5.710   1.308   6.692 -0.4865  0.0605  0.4728
  167DOPC  H12R20279   5.664   1.334   6.595  1.7443 -1.6198 -1.1471
  167DOPC  H12S20280   5.702   1.391   6.765 -0.5824  0.0411  0.4845
  167DOPC  C21320281   5.865   1.295   6.680  0.3437 -0.1722  0.1137
  167DOPC  H13R20282   5.882   1.216   6.604  0.4537  0.6975 -0.7971
  167DOPC  H13S20283   5.906   1.257   6.776  0.8642 -3.1978 -1.1857
  167DOPC  C21420284   5.933   1.430   6.659 -0.2106 -0.1005  0.7302
  167DOPC  H14R20285   5.919   1.498   6.746  0.0954 -0.0564  0.7439
  167DOPC  H14S20286   5.898   1.488   6.570  0.2614  2.8825  2.3572
  167DOPC  C21520287   6.080   1.405   6.634 -0.1325  0.0007  0.1213
  167DOPC  H15R20288   6.087   1.327   6.556 -1.1162 -0.0848  0.1043
  167DOPC  H15S20289   6.121   1.358   6.726  0.5481  1.4326  0.5708
  167DOPC  C21620290   6.171   1.528   6.608 -0.1358  0.7705 -0.2954
  167DOPC  H16R20291   6.183   1.574   6.708  1.9228  0.8911 -0.5704
  167DOPC  H16S20292   6.126   1.604   6.540 -0.7209  0.7864  0.1017
  167DOPC  C21720293   6.308   1.490   6.553 -0.0365  0.1607 -0.7153
  167DOPC  H17R20294   6.291   1.436   6.457 -0.7027  0.8813 -1.0164
  167DOPC  H17S20295   6.350   1.416   6.624 -1.6325 -1.9363 -1.8509
  167DOPC  C21820296   6.394   1.612   6.528 -0.2108 -0.1034  0.6732
  167DOPC  H18R20297   6.499   1.591   6.497  0.1396 -1.1107  2.4163
  167DOPC  H18S20298   6.391   1.672   6.622  0.3810  0.0492  0.6011
  167DOPC  H18T20299   6.355   1.678   6.447  2.3953  4.1703  2.5042
  167DOPC   C3320300   6.443   1.255   7.224 -1.1373  0.1879  0.5075
  167DOPC   H3X20301   6.346   1.307   7.235 -1.5346  0.5439 -3.2984
  167DOPC   H3Y20302   6.427   1.188   7.137  0.8738 -0.7012  0.7579
  167DOPC   C3420303   6.544   1.366   7.177  0.2505  0.0133  0.3027
  167DOPC   H4X20304   6.634   1.316   7.134  1.2624 -1.0804  3.4236
  167DOPC   H4Y20305   6.574   1.426   7.265  2.0970  1.4685 -1.2134
  167DOPC   C3520306   6.483   1.453   7.066  0.5871  0.2252 -0.1096
  167DOPC   H5X20307   6.435   1.389   6.989 -2.4139  0.5087  1.3863
  167DOPC   H5Y20308   6.563   1.510   7.014  1.5355 -0.6744  0.3180
  167DOPC   C3620309   6.375   1.559   7.113 -0.0444  0.7297  0.2037
  167DOPC   H6X20310   6.300   1.493   7.162  1.7812 -1.0278  0.7635
  167DOPC   H6Y20311   6.412   1.639   7.181  0.3761  3.0423 -2.5617
  167DOPC   C3720312   6.311   1.636   6.994 -0.0361 -0.2207  0.1494
  167DOPC   H7X20313   6.384   1.688   6.929 -2.3661  1.9188 -0.9029
  167DOPC   H7Y20314   6.251   1.566   6.931  0.2647 -1.8318  1.5632
  167DOPC   C3820315   6.208   1.741   7.043  0.0744 -0.2507 -0.4777
  167DOPC   H8X20316   6.139   1.688   7.112  2.3135  0.4645  2.5088
  167DOPC   H8Y20317   6.149   1.773   6.954  3.3530  0.8448 -2.4099
  167DOPC   C3920318   6.272   1.849   7.124  0.1268  0.6648 -0.3572
  167DOPC   H9X20319   6.272   1.832   7.233 -1.3438 -2.8350 -0.7541
  167DOPC  C31020320   6.341   1.951   7.071 -0.0149  0.4262 -0.0016
  167DOPC  H10X20321   6.388   2.027   7.136 -1.7393  2.2632 -0.7890
  167DOPC  C31120322   6.364   1.969   6.924  0.0691  0.6853 -0.3762
  167DOPC  H11X20323   6.345   1.879   6.862  0.8340  1.3209 -1.5669
  167DOPC  H11Y20324   6.468   2.004   6.911 -0.5543  2.4159 -1.0403
  167DOPC  C31220325   6.269   2.068   6.861 -0.6315 -0.4000  0.2795
  167DOPC  H12X20326   6.256   2.161   6.920  2.5123 -0.3278  1.0646
  167DOPC  H12Y20327   6.166   2.030   6.846 -0.0322 -1.8827 -0.2620
  167DOPC  C31320328   6.310   2.111   6.716  0.2373 -1.0806  0.2043
  167DOPC  H13X20329   6.279   2.217   6.704  2.1513 -0.4456  0.5243
  167DOPC  H13Y20330   6.421   2.117   6.709  0.0626  3.1250 -1.5798
  167DOPC  C31420331   6.261   2.014   6.606 -0.9565  0.4153  0.9823
  167DOPC  H14X20332   6.326   1.924   6.610 -0.5956  0.6498  0.4776
  167DOPC  H14Y20333   6.157   1.985   6.634 -1.6747  1.1405 -0.7797
  167DOPC  C31520334   6.257   2.064   6.466 -0.2737 -0.4272  0.5883
  167DOPC  H15X20335   6.356   2.082   6.420 -0.2254 -0.9470  0.4796
  167DOPC  H15Y20336   6.208   2.164   6.468 -0.0533 -0.3295  1.2209
  167DOPC  C31620337   6.196   1.973   6.358  0.6941  0.3721  0.5370
  167DOPC  H16X20338   6.277   1.913   6.312 -1.2067 -1.9959  0.0786
  167DOPC  H16Y20339   6.127   1.893   6.392  0.6036  0.4779  0.6069
  167DOPC  C31720340   6.126   2.055   6.243  0.6998 -0.3088  0.9891
  167DOPC  H17X20341   6.054   2.128   6.286  0.6902  0.9457 -1.0062
  167DOPC  H17Y20342   6.202   2.122   6.198 -1.6039  2.5484  1.0761
  167DOPC  C31820343   6.051   1.975   6.136  0.3117  0.3351 -0.5104
  167DOPC  H18X20344   5.943   1.954   6.152  0.5190 -0.0886  0.3830
  167DOPC  H18Y20345   6.050   2.042   6.047  0.3945  0.3762 -0.4806
  167DOPC  H18Z20346   6.101   1.886   6.092 -1.6992 -0.7458 -0.7119
  168DOPC     N20347   2.689   0.568   7.315 -0.5406  0.2478  0.4250
  168DOPC   C1220348   2.762   0.594   7.181  0.2221 -0.0523  0.0724
  168DOPC  H12A20349   2.860   0.548   7.176  0.5513  0.6527  0.0080
  168DOPC  H12B20350   2.769   0.701   7.185 -1.4744  0.0433  2.7130
  168DOPC   C1320351   2.554   0.632   7.320 -0.6538 -0.0021 -0.7060
  168DOPC  H13A20352   2.494   0.616   7.232  1.3691  2.9311 -2.8331
  168DOPC  H13B20353   2.504   0.597   7.408 -1.0139  0.8840 -0.5471
  168DOPC  H13C20354   2.568   0.740   7.325 -1.4951  0.0731  0.3581
  168DOPC   C1420355   2.773   0.596   7.429  0.9653 -0.0347  0.1234
  168DOPC  H14A20356   2.720   0.576   7.521  0.2552  0.5704 -0.1510
  168DOPC  H14B20357   2.866   0.540   7.431  0.8054 -0.3033  0.0514
  168DOPC  H14C20358   2.798   0.700   7.415  0.7066 -0.0680 -0.6118
  168DOPC   C1520359   2.663   0.419   7.320 -0.3593  0.2143 -0.4971
  168DOPC  H15A20360   2.652   0.384   7.422  0.3122  0.5236 -0.3156
  168DOPC  H15B20361   2.748   0.360   7.287 -0.1065 -0.1191  0.6896
  168DOPC  H15C20362   2.576   0.391   7.263 -1.3576 -0.3747  1.2275
  168DOPC   C1120363   2.686   0.552   7.045  0.3697 -0.3198 -0.0871
  168DOPC  H11A20364   2.756   0.555   6.959  1.3269 -0.4085  0.6654
  168DOPC  H11B20365   2.667   0.442   7.053  0.2434 -0.2409  0.8098
  168DOPC     P20366   2.563   0.766   6.962 -0.1659 -0.0373 -0.6155
  168DOPC   O1320367   2.649   0.849   7.046 -0.4663  0.0075  0.1054
  168DOPC   O1420368   2.429   0.814   6.921 -0.5474  0.2777  0.2758
  168DOPC   O1220369   2.559   0.620   7.025  0.2621  0.1467 -0.1459
  168DOPC   O1120370   2.641   0.745   6.822  0.1786  0.9047 -0.3279
  168DOPC    C120371   2.610   0.636   6.737 -0.1628  0.2407  0.7087
  168DOPC    HA20372   2.568   0.544   6.782 -0.3260  0.0637  0.1983
  168DOPC    HB20373   2.701   0.592   6.690  0.4078  0.6484  1.4080
  168DOPC    C220374   2.529   0.683   6.612 -1.1697 -1.1159 -0.4649
  168DOPC    HS20375   2.434   0.721   6.655 -0.1053  0.8957  0.2340
  168DOPC   O2120376   2.507   0.562   6.536 -0.8350 -0.1752 -0.1583
  168DOPC   C2120377   2.387   0.554   6.473  0.8402 -0.2989 -0.4703
  168DOPC   O2220378   2.294   0.631   6.479  1.0926  0.4247 -0.0888
  168DOPC   C2220379   2.377   0.427   6.387  0.4927  0.7233 -0.4581
  168DOPC   H2R20380   2.279   0.430   6.336  0.6824  0.1548 -0.8657
  168DOPC   H2S20381   2.381   0.341   6.458  4.2008  0.4128 -0.8395
  168DOPC    C320382   2.602   0.801   6.544  0.2235 -0.0745  0.3629
  168DOPC    HX20383   2.704   0.764   6.523 -0.7598 -2.5308 -0.5486
  168DOPC    HY20384   2.620   0.894   6.601 -0.3157  0.8883 -0.9899
  168DOPC   O3120385   2.541   0.835   6.413  0.0878 -0.1038 -0.0515
  168DOPC   C3120386   2.496   0.957   6.397 -0.3124  0.0585  0.0946
  168DOPC   O3220387   2.499   1.052   6.478  0.7302  0.3742  0.0832
  168DOPC   C3220388   2.424   0.961   6.262 -0.6378 -0.0684  0.0531
  168DOPC   H2X20389   2.318   0.935   6.285 -0.9191  3.8193  4.7392
  168DOPC   H2Y20390   2.427   1.064   6.221 -2.8363  0.1711  0.3565
  168DOPC   C2320391   2.485   0.421   6.282  0.1763  0.8717 -1.3821
  168DOPC   H3R20392   2.584   0.439   6.328  0.7220 -1.8919 -1.3197
  168DOPC   H3S20393   2.477   0.504   6.208 -1.2134  1.6821 -0.3865
  168DOPC   C2420394   2.498   0.282   6.207 -0.7202 -0.8728  0.0132
  168DOPC   H4R20395   2.556   0.300   6.114  1.2618  0.1716  1.3738
  168DOPC   H4S20396   2.401   0.250   6.165 -0.8840  0.2920 -0.5228
  168DOPC   C2520397   2.559   0.168   6.287  0.4774 -0.4658 -0.7325
  168DOPC   H5R20398   2.511   0.169   6.387 -1.5406 -0.6681 -1.6473
  168DOPC   H5S20399   2.668   0.171   6.306  0.4033 -2.1969  0.1628
  168DOPC   C2620400   2.527   0.032   6.232  0.5574  0.0195 -0.1263
  168DOPC   H6R20401   2.418   0.015   6.228  0.6490 -1.0494  1.2302
  168DOPC   H6S20402   2.572  -0.043   6.301  1.2388  0.7968  0.2881
  168DOPC   C2720403   2.580   0.017   6.085  0.0236 -0.2854 -0.4824
  168DOPC   H7R20404   2.690   0.003   6.096 -0.1388 -2.1041 -0.8638
  168DOPC   H7S20405   2.570   0.115   6.034  1.5910  0.0101 -0.2795
  168DOPC   C2820406   2.532  -0.112   6.015  0.5164 -0.0727 -0.3641
  168DOPC   H8R20407   2.547  -0.189   6.093  0.2977  0.8868  0.6573
  168DOPC   H8S20408   2.609  -0.128   5.937  1.5018 -1.0545  0.7673
  168DOPC   C2920409   2.391  -0.117   5.973  0.1269  0.0841  0.3477
  168DOPC   H9R20410   2.316  -0.147   6.047  0.5655 -0.4855  0.5729
  168DOPC  C21020411   2.348  -0.073   5.858  0.0201  0.4669  0.0338
  168DOPC  H10R20412   2.243  -0.086   5.829 -0.2857  0.1939  1.2010
  168DOPC  C21120413   2.452  -0.029   5.753 -0.1918  0.0902  0.7102
  168DOPC  H11R20414   2.552   0.002   5.790  0.4259  0.2147 -0.9411
  168DOPC  H11S20415   2.412   0.063   5.706 -2.6744 -0.8936  0.7856
  168DOPC  C21220416   2.471  -0.128   5.639  0.4696  0.2208  0.8293
  168DOPC  H12R20417   2.371  -0.162   5.604  1.3082  0.0032 -1.5543
  168DOPC  H12S20418   2.516  -0.226   5.662 -0.8445 -0.6328 -0.0710
  168DOPC  C21320419   2.551  -0.069   5.523 -0.1545  0.5944  0.3669
  168DOPC  H13R20420   2.494   0.019   5.486  0.3860  0.7598 -0.0916
  168DOPC  H13S20421   2.554  -0.145   5.441  1.5387 -0.0527  0.9877
  168DOPC  C21420422   2.694  -0.026   5.560 -0.0875 -0.2940 -0.2288
  168DOPC  H14R20423   2.757  -0.099   5.615  2.2416  1.8353  0.1275
  168DOPC  H14S20424   2.682   0.064   5.625  3.6632  1.0716 -1.1505
  168DOPC  C21520425   2.779   0.011   5.435 -0.0459 -0.1943  0.4575
  168DOPC  H15R20426   2.794  -0.082   5.376  0.2714  0.8742 -1.2248
  168DOPC  H15S20427   2.872   0.049   5.482 -1.2726  0.2850  2.6781
  168DOPC  C21620428   2.710   0.129   5.368 -0.5414  0.0973 -0.0373
  168DOPC  H16R20429   2.680   0.211   5.437 -1.4146  0.3964 -0.7560
  168DOPC  H16S20430   2.611   0.104   5.325  0.1357 -0.2682 -1.4563
  168DOPC  C21720431   2.800   0.194   5.256  0.2250  0.0386  0.3071
  168DOPC  H17R20432   2.892   0.228   5.308  1.5273 -0.1097 -1.7858
  168DOPC  H17S20433   2.742   0.279   5.213  0.7959  0.9718  1.3392
  168DOPC  C21820434   2.828   0.091   5.147  0.0470  0.0498 -0.6151
  168DOPC  H18R20435   2.906   0.019   5.180  1.0663  0.1787 -2.6039
  168DOPC  H18S20436   2.862   0.141   5.054 -0.4907  0.2046 -0.7328
  168DOPC  H18T20437   2.729   0.045   5.123  0.5436 -1.3271 -0.1347
  168DOPC   C3320438   2.461   0.853   6.169  0.3705 -0.8914 -0.1069
  168DOPC   H3X20439   2.456   0.752   6.216  1.2989 -1.3109 -0.8875
  168DOPC   H3Y20440   2.564   0.872   6.134 -0.1660 -1.5445 -2.1469
  168DOPC   C3420441   2.381   0.854   6.042 -0.3591 -0.2284 -0.5196
  168DOPC   H4X20442   2.418   0.946   5.992 -1.0515  0.3170 -0.0524
  168DOPC   H4Y20443   2.273   0.870   6.065 -0.3198 -1.9375  1.1526
  168DOPC   C3520444   2.383   0.719   5.967 -0.7179  0.2777  0.1330
  168DOPC   H5X20445   2.344   0.633   6.026  0.2347 -0.2242  0.0532
  168DOPC   H5Y20446   2.488   0.692   5.940  0.0143  0.7553  2.2952
  168DOPC   C3620447   2.299   0.737   5.838  0.0474 -0.2656  0.2895
  168DOPC   H6X20448   2.189   0.733   5.852  0.1867 -1.8273  1.1516
  168DOPC   H6Y20449   2.316   0.836   5.790 -2.1902  0.2118  0.3821
  168DOPC   C3720450   2.326   0.643   5.727 -0.0408 -0.4135  0.0824
  168DOPC   H7X20451   2.435   0.631   5.709  0.2277  0.4356  1.0785
  168DOPC   H7Y20452   2.281   0.545   5.755 -1.1435 -0.1446 -0.7052
  168DOPC   C3820453   2.279   0.692   5.584  0.5322  0.1522 -0.1117
  168DOPC   H8X20454   2.168   0.695   5.583  0.4435 -1.0965  1.2596
  168DOPC   H8Y20455   2.302   0.603   5.521  0.3825  1.3741 -1.9683
  168DOPC   C3920456   2.349   0.816   5.537 -0.6650 -0.5278  0.2855
  168DOPC   H9X20457   2.451   0.836   5.572 -1.1766  2.4092  0.3153
  168DOPC  C31020458   2.301   0.905   5.450  0.0630 -0.4618  0.0500
  168DOPC  H10X20459   2.360   0.997   5.441  0.7022 -0.5751  2.3263
  168DOPC  C31120460   2.182   0.901   5.365  0.1018 -0.6088  0.3913
  168DOPC  H11X20461   2.125   0.808   5.389  1.2056 -1.3170  0.3368
  168DOPC  H11Y20462   2.209   0.880   5.259 -2.5209  0.3723 -0.5643
  168DOPC  C31220463   2.086   1.020   5.386  0.1193  0.2671  0.0686
  168DOPC  H12X20464   2.136   1.118   5.378  0.1343  0.1711 -1.3675
  168DOPC  H12Y20465   2.042   1.011   5.487 -0.7119 -1.4109 -0.3968
  168DOPC  C31320466   1.964   1.027   5.287 -0.1567  0.0524 -0.1582
  168DOPC  H13X20467   2.002   1.037   5.183 -0.5174 -1.9386 -0.5381
  168DOPC  H13Y20468   1.909   0.932   5.269 -0.3474  0.6135 -2.9690
  168DOPC  C31420469   1.881   1.158   5.308 -0.2408 -0.0960  0.4681
  168DOPC  H14X20470   1.945   1.238   5.266 -0.9844  0.5024  0.4474
  168DOPC  H14Y20471   1.795   1.138   5.240  0.5540 -2.2813  0.0201
  168DOPC  C31520472   1.831   1.183   5.447  0.3135  1.2130  0.1487
  168DOPC  H15X20473   1.917   1.213   5.510 -0.3252 -1.3597  2.4414
  168DOPC  H15Y20474   1.793   1.088   5.490  1.7807 -0.7347 -2.5743
  168DOPC  C31620475   1.722   1.295   5.442  0.2923 -0.2653  0.1506
  168DOPC  H16X20476   1.661   1.277   5.352 -1.5274  1.6445  0.9273
  168DOPC  H16Y20477   1.658   1.294   5.533  0.0663  0.0541 -0.0039
  168DOPC  C31720478   1.771   1.439   5.425  0.0916  0.4732 -0.3882
  168DOPC  H17X20479   1.840   1.464   5.509 -1.4377  0.4773  0.9139
  168DOPC  H17Y20480   1.822   1.432   5.327 -2.0266 -3.0368 -1.3976
  168DOPC  C31820481   1.656   1.548   5.405  0.1765  1.0137 -0.1867
  168DOPC  H18X20482   1.579   1.510   5.334  1.8612 -0.9528 -1.0705
  168DOPC  H18Y20483   1.600   1.557   5.500 -2.5892 -0.1230 -1.5953
  168DOPC  H18Z20484   1.698   1.648   5.382  2.2911  0.4535  0.9565
  169DOPC     N20485   0.218   1.201   7.410 -0.1135  0.0611  0.2002
  169DOPC   C1220486   0.291   1.272   7.296  0.9456 -0.2419  0.3970
  169DOPC  H12A20487   0.302   1.206   7.211  1.7256  1.6836 -1.0676
  169DOPC  H12B20488   0.394   1.288   7.322  1.4308  1.1500 -2.1017
  169DOPC   C1320489   0.285   1.073   7.444 -0.1402 -0.1305 -0.3342
  169DOPC  H13A20490   0.259   0.997   7.372  0.8646 -0.2886 -0.5468
  169DOPC  H13B20491   0.393   1.076   7.453 -0.0182 -1.2911 -1.2016
  169DOPC  H13C20492   0.241   1.035   7.535 -0.5720 -1.7177 -1.1643
  169DOPC   C1420493   0.078   1.172   7.374 -0.4848 -0.0651  0.2489
  169DOPC  H14A20494   0.072   1.119   7.280 -1.3723 -1.0549  0.8444
  169DOPC  H14B20495   0.035   1.105   7.447  1.3236 -1.1730  0.3541
  169DOPC  H14C20496   0.009   1.255   7.369 -2.1250 -1.3754  0.2056
  169DOPC   C1520497   0.223   1.289   7.534  0.5184 -0.1664 -0.5397
  169DOPC  H15A20498   0.322   1.325   7.555 -0.0890  1.6198 -0.5508
  169DOPC  H15B20499   0.182   1.236   7.619  2.8969  0.0893  0.8253
  169DOPC  H15C20500   0.163   1.378   7.525 -0.2459 -0.6807 -0.6957
  169DOPC   C1120501   0.217   1.390   7.235  0.2681  0.4228  0.0471
  169DOPC  H11A20502   0.261   1.419   7.138  2.3520  1.0824  1.1087
  169DOPC  H11B20503   0.124   1.346   7.195  3.0009 -1.7308 -4.7743
  169DOPC     P20504   0.295   1.622   7.316 -0.2220  0.5336 -0.0215
  169DOPC   O1320505   0.442   1.588   7.317  0.3117  0.0307 -0.4727
  169DOPC   O1420506   0.256   1.704   7.427 -0.3567 -0.4839 -0.2743
  169DOPC   O1220507   0.202   1.500   7.323 -0.1422  0.2079  0.8415
  169DOPC   O1120508   0.265   1.693   7.174 -0.4212 -0.4466 -0.1350
  169DOPC    C120509   0.354   1.787   7.117  0.1124  0.1470  0.8080
  169DOPC    HA20510   0.459   1.766   7.147 -0.4922  0.3604  3.3969
  169DOPC    HB20511   0.334   1.890   7.154 -0.3987  0.2403  0.2818
  169DOPC    C220512   0.352   1.775   6.965  0.2434 -0.0697 -0.0165
  169DOPC    HS20513   0.430   1.851   6.944  0.5338 -0.0903  0.9400
  169DOPC   O2120514   0.229   1.806   6.906  0.4664  0.3599  0.5789
  169DOPC   C2120515   0.191   1.926   6.919 -0.2662  0.4082 -0.5162
  169DOPC   O2220516   0.266   2.015   6.963  0.1986  0.2824 -0.7485
  169DOPC   C2220517   0.045   1.940   6.879 -0.0395  0.3477  0.0558
  169DOPC   H2R20518  -0.006   1.844   6.901  0.6683 -0.2050 -0.6895
  169DOPC   H2S20519   0.041   1.949   6.768  2.3286 -1.0081 -0.1945
  169DOPC    C320520   0.400   1.637   6.913  0.3820  0.1528 -0.3378
  169DOPC    HX20521   0.320   1.566   6.941 -0.3823  1.1974  0.1922
  169DOPC    HY20522   0.497   1.609   6.962  0.0092 -0.2227  0.1961
  169DOPC   O3120523   0.401   1.615   6.765  0.1157  0.4757  0.2793
  169DOPC   C3120524   0.497   1.673   6.697  0.2980 -0.6708  0.0900
  169DOPC   O3220525   0.591   1.732   6.751 -0.1378  0.3725 -0.0413
  169DOPC   C3220526   0.479   1.650   6.546 -0.0443 -0.3386 -0.4092
  169DOPC   H2X20527   0.514   1.550   6.513 -1.2365 -1.4980  1.6585
  169DOPC   H2Y20528   0.369   1.646   6.532 -0.0150 -0.0375 -0.7475
  169DOPC   C2320529  -0.025   2.060   6.932 -0.0091  0.2947 -0.7549
  169DOPC   H3R20530   0.043   2.145   6.954 -0.6381  0.1496  2.2101
  169DOPC   H3S20531  -0.066   2.042   7.034  1.0064 -2.0721 -0.6967
  169DOPC   C2420532  -0.144   2.112   6.835  0.2323 -0.3353  0.0684
  169DOPC   H4R20533  -0.097   2.153   6.743  1.6619  0.0869  0.9474
  169DOPC   H4S20534  -0.196   2.199   6.880 -1.3923 -1.2245 -0.0458
  169DOPC   C2520535  -0.250   2.004   6.818  1.1679 -0.5108  0.6224
  169DOPC   H5R20536  -0.299   1.981   6.915  0.1497 -0.7894  0.0669
  169DOPC   H5S20537  -0.200   1.910   6.787 -0.5377 -0.8197 -1.5099
  169DOPC   C2620538  -0.350   2.044   6.709  0.0856  0.2620 -0.0044
  169DOPC   H6R20539  -0.295   2.103   6.633  1.0152 -2.0047 -1.1749
  169DOPC   H6S20540  -0.426   2.119   6.740  0.7308  0.7448  0.4409
  169DOPC   C2720541  -0.431   1.936   6.638 -0.0574 -0.4335 -0.7282
  169DOPC   H7R20542  -0.481   1.869   6.711 -0.4889 -1.4625 -1.9134
  169DOPC   H7S20543  -0.359   1.871   6.584 -1.3116 -3.0180  0.5265
  169DOPC   C2820544  -0.539   1.992   6.538 -0.4191 -0.3673  0.5255
  169DOPC   H8R20545  -0.479   2.046   6.461 -1.6305  1.2284  0.6261
  169DOPC   H8S20546  -0.590   2.074   6.594  1.0588  1.2143 -0.3363
  169DOPC   C2920547  -0.636   1.885   6.488 -0.4321 -0.1095 -0.0027
  169DOPC   H9R20548  -0.584   1.807   6.430 -1.0025  0.1651 -0.9082
  169DOPC  C21020549  -0.771   1.896   6.498  0.0724  0.1876  0.6317
  169DOPC  H10R20550  -0.834   1.818   6.452  0.0772 -0.0011  0.9411
  169DOPC  C21120551  -0.858   2.002   6.568  0.2955 -0.3858 -0.1227
  169DOPC  H11R20552  -0.870   2.069   6.480  2.2606 -1.4774 -1.3081
  169DOPC  H11S20553  -0.807   2.063   6.646  1.9811  0.9491 -2.1293
  169DOPC  C21220554  -0.991   1.954   6.617  0.8079 -0.0597 -0.4576
  169DOPC  H12R20555  -1.038   1.890   6.539 -1.8429  0.6092  0.5074
  169DOPC  H12S20556  -1.056   2.040   6.641  3.2831  2.3862 -1.9423
  169DOPC  C21320557  -0.986   1.860   6.742  0.1140 -0.6381 -0.4585
  169DOPC  H13R20558  -0.929   1.770   6.711  0.5862 -0.5378  0.1148
  169DOPC  H13S20559  -1.091   1.835   6.769  0.6352  0.0690  2.5477
  169DOPC  C21420560  -0.915   1.922   6.864  0.4162 -0.8683  1.1063
  169DOPC  H14R20561  -0.961   2.021   6.884 -1.0276 -1.0505 -0.9389
  169DOPC  H14S20562  -0.814   1.938   6.821 -1.0860 -0.5656 -2.8032
  169DOPC  C21520563  -0.918   1.832   6.982  0.2979  0.2186 -0.1540
  169DOPC  H15R20564  -0.836   1.758   6.990 -1.2324 -1.4223  0.9735
  169DOPC  H15S20565  -1.012   1.773   6.976  1.2343 -1.2489 -0.7696
  169DOPC  C21620566  -0.915   1.906   7.115 -0.0510  0.0966  0.2075
  169DOPC  H16R20567  -1.010   1.961   7.134 -0.5142 -0.2912 -0.8808
  169DOPC  H16S20568  -0.823   1.968   7.116  0.6671 -0.8654 -1.8118
  169DOPC  C21720569  -0.893   1.818   7.245  0.0873 -0.1154  0.1648
  169DOPC  H17R20570  -0.929   1.877   7.332  1.6324  0.6614  0.3074
  169DOPC  H17S20571  -0.784   1.802   7.258  0.2095  0.0629 -0.5519
  169DOPC  C21820572  -0.966   1.679   7.238 -0.2603 -0.2816  0.3444
  169DOPC  H18R20573  -0.934   1.606   7.315  0.4683  0.9401  1.2220
  169DOPC  H18S20574  -0.943   1.622   7.145 -0.7141 -2.7694  1.6606
  169DOPC  H18T20575  -1.073   1.702   7.253  0.3734  5.7681 -1.7681
  169DOPC   C3320576   0.526   1.767   6.456 -0.3289 -0.3665  0.0774
  169DOPC   H3X20577   0.637   1.772   6.453 -0.2806 -1.6844 -1.7048
  169DOPC   H3Y20578   0.494   1.869   6.485  1.6481  0.6589 -1.1751
  169DOPC   C3420579   0.483   1.736   6.312  0.0938 -0.1122 -0.1181
  169DOPC   H4X20580   0.372   1.729   6.312  0.0238  0.4562  1.6426
  169DOPC   H4Y20581   0.529   1.644   6.269  1.4959  1.0448 -1.2109
  169DOPC   C3520582   0.528   1.859   6.221 -0.3412 -0.4416 -0.3269
  169DOPC   H5X20583   0.636   1.857   6.195 -0.3804 -1.4341 -0.4360
  169DOPC   H5Y20584   0.498   1.947   6.283 -2.2251 -2.3497  1.6415
  169DOPC   C3620585   0.440   1.869   6.097 -0.6031 -0.5188 -0.0622
  169DOPC   H6X20586   0.441   1.767   6.053 -1.6398 -0.2677 -0.7078
  169DOPC   H6Y20587   0.335   1.887   6.128 -0.1157  2.8382  0.0217
  169DOPC   C3720588   0.495   1.979   6.013 -0.1859 -0.4736  0.4905
  169DOPC   H7X20589   0.476   2.071   6.072  0.4990 -1.2757  2.0355
  169DOPC   H7Y20590   0.603   1.968   5.989 -1.0249 -1.4961 -3.5963
  169DOPC   C3820591   0.416   1.989   5.882  0.3566 -0.1130 -0.4680
  169DOPC   H8X20592   0.453   2.088   5.847  0.9003 -0.2859 -0.3889
  169DOPC   H8Y20593   0.308   1.984   5.909  0.5210 -3.0473 -0.0867
  169DOPC   C3920594   0.446   1.884   5.774  0.0073 -0.3745 -0.7404
  169DOPC   H9X20595   0.456   1.782   5.815  0.4904  0.1517  0.4814
  169DOPC  C31020596   0.465   1.912   5.649  0.3958 -0.1315  0.0626
  169DOPC  H10X20597   0.477   1.821   5.587  0.9765 -1.1311  1.5807
  169DOPC  C31120598   0.472   2.046   5.578 -0.1450  0.4748 -0.2696
  169DOPC  H11X20599   0.378   2.105   5.588 -0.5733 -0.1857 -0.3221
  169DOPC  H11Y20600   0.470   2.031   5.468  1.9254 -2.2208 -0.0440
  169DOPC  C31220601   0.598   2.132   5.606 -0.6181  0.0557  0.1572
  169DOPC  H12X20602   0.603   2.149   5.716 -2.6014  0.9773  0.1598
  169DOPC  H12Y20603   0.585   2.227   5.549  0.7366 -0.0316 -0.3297
  169DOPC  C31320604   0.728   2.059   5.551  0.1620  0.0626  0.2952
  169DOPC  H13X20605   0.806   2.136   5.570  0.8491  1.2905 -5.6107
  169DOPC  H13Y20606   0.737   1.963   5.606  1.6569  1.0671  1.9091
  169DOPC  C31420607   0.730   2.034   5.402 -0.1217  0.7563  0.7823
  169DOPC  H14X20608   0.642   1.972   5.374  0.9144 -0.5433  0.2928
  169DOPC  H14Y20609   0.716   2.129   5.347  0.0734  0.0357 -0.5352
  169DOPC  C31520610   0.868   1.976   5.352  0.0950 -0.0683 -0.0094
  169DOPC  H15X20611   0.865   1.872   5.392 -1.3162  0.3038  0.9440
  169DOPC  H15Y20612   0.955   2.037   5.385 -2.0525  2.6992  0.8811
  169DOPC  C31620613   0.897   1.989   5.200  0.3659 -0.2606 -0.4020
  169DOPC  H16X20614   0.932   2.093   5.183  1.0995 -0.5061 -0.4281
  169DOPC  H16Y20615   0.985   1.930   5.167  0.7939  0.1912 -0.0883
  169DOPC  C31720616   0.785   1.950   5.099  0.3030  0.0479 -0.5223
  169DOPC  H17X20617   0.702   2.022   5.115 -0.2968 -0.6329 -0.5318
  169DOPC  H17Y20618   0.829   1.968   4.998  0.3197  0.3029 -0.4700
  169DOPC  C31820619   0.736   1.806   5.120 -0.0954  0.0553  0.3456
  169DOPC  H18X20620   0.668   1.799   5.207 -1.0618 -1.3064 -0.4695
  169DOPC  H18Y20621   0.692   1.758   5.029  0.7882  1.4008 -0.8415
  169DOPC  H18Z20622   0.825   1.742   5.138 -0.0934 -0.4420 -1.2458
  170DOPC     N20623   7.282   0.275   7.885  0.1171  0.0938 -0.3775
  170DOPC   C1220624   7.326   0.208   7.755 -0.1234 -0.6221  0.3753
  170DOPC  H12A20625   7.434   0.202   7.755 -0.1335 -2.2242  3.0217
  170DOPC  H12B20626   7.288   0.259   7.668 -0.0526 -1.5686 -0.2307
  170DOPC   C1320627   7.147   0.335   7.860 -0.2105 -0.1150 -0.3344
  170DOPC  H13A20628   7.087   0.254   7.821  1.5166 -1.8289  0.3984
  170DOPC  H13B20629   7.096   0.360   7.952  0.1178 -2.3520  0.5254
  170DOPC  H13C20630   7.148   0.421   7.796 -0.1886 -0.5147 -0.8774
  170DOPC   C1420631   7.380   0.379   7.908  0.1128 -0.1458 -0.5098
  170DOPC  H14A20632   7.374   0.456   7.833 -2.8412 -0.4317 -0.7034
  170DOPC  H14B20633   7.352   0.426   8.001 -1.6321  0.7177 -1.4290
  170DOPC  H14C20634   7.479   0.340   7.927 -1.3166 -2.6258  2.9533
  170DOPC   C1520635   7.277   0.184   7.999 -0.0122 -1.4342  0.3094
  170DOPC  H15A20636   7.213   0.098   7.984 -3.0584  0.7960 -0.4233
  170DOPC  H15B20637   7.233   0.233   8.084  2.9405  1.0062  0.6085
  170DOPC  H15C20638   7.374   0.146   8.025  1.1787  0.9919 -0.2867
  170DOPC   C1120639   7.280   0.068   7.712  0.8581  0.1681 -0.6519
  170DOPC  H11A20640   7.330   0.051   7.614  2.5433  0.5648  0.0914
  170DOPC  H11B20641   7.312  -0.000   7.794  0.3955  2.1074  1.2326
  170DOPC     P20642   7.055  -0.013   7.596 -0.2753 -0.1964 -0.2783
  170DOPC   O1320643   6.914   0.030   7.597 -0.0620  0.0001 -0.1328
  170DOPC   O1420644   7.084  -0.152   7.632  0.2197  0.3108  0.0775
  170DOPC   O1220645   7.134   0.073   7.706  0.0481  0.0806  0.3445
  170DOPC   O1120646   7.128   0.024   7.456  0.2483  1.0610 -1.0945
  170DOPC    C120647   7.137   0.157   7.413 -0.4140 -0.2757  0.0386
  170DOPC    HA20648   7.242   0.168   7.379  0.2576 -0.2376  2.0143
  170DOPC    HB20649   7.123   0.220   7.504  1.3321 -0.7209  0.6477
  170DOPC    C220650   7.046   0.198   7.297 -0.2716  0.2172 -0.3519
  170DOPC    HS20651   6.945   0.229   7.331 -0.2280 -0.6443  0.6042
  170DOPC   O2120652   7.033   0.101   7.193 -0.4134 -0.1951 -0.5077
  170DOPC   C2120653   6.927   0.020   7.202 -0.1673 -0.6538  0.0298
  170DOPC   O2220654   6.837   0.037   7.281  0.7860 -0.6631 -0.9373
  170DOPC   C2220655   6.946  -0.085   7.098  0.3532 -0.7683  0.1164
  170DOPC   H2R20656   7.053  -0.105   7.079  0.5226  0.8052 -0.7318
  170DOPC   H2S20657   6.911  -0.052   6.998  2.7457 -2.0141 -1.2012
  170DOPC    C320658   7.118   0.322   7.240  0.4058 -0.1452 -0.6297
  170DOPC    HX20659   7.211   0.284   7.191  0.2757  0.8007 -1.6573
  170DOPC    HY20660   7.143   0.389   7.325 -0.1930  0.3287 -0.8190
  170DOPC   O3120661   7.033   0.397   7.143  0.0320 -0.3409 -0.4688
  170DOPC   C3120662   7.119   0.470   7.057  0.4841  0.0007  0.0341
  170DOPC   O3220663   7.235   0.496   7.074 -0.6986  0.0388  0.5659
  170DOPC   C3220664   7.034   0.529   6.937  0.0565 -0.7324 -0.3561
  170DOPC   H2X20665   7.009   0.443   6.871  0.3820 -1.2336  0.1561
  170DOPC   H2Y20666   6.943   0.573   6.981 -0.1938  0.9016 -2.3786
  170DOPC   C2320667   6.850  -0.203   7.124 -0.4642  0.6913  0.1318
  170DOPC   H3R20668   6.746  -0.165   7.124 -0.6435  0.2099 -0.4343
  170DOPC   H3S20669   6.861  -0.235   7.230 -1.5574  0.7516  0.2694
  170DOPC   C2420670   6.867  -0.324   7.023 -0.0656 -0.1195  0.2211
  170DOPC   H4R20671   6.813  -0.408   7.070 -2.7568  1.4550  0.1380
  170DOPC   H4S20672   6.975  -0.349   7.011  0.2624  0.1133  2.2581
  170DOPC   C2520673   6.792  -0.310   6.890  0.2992  0.5394  0.3129
  170DOPC   H5R20674   6.834  -0.224   6.833  0.0580  1.3920  1.3915
  170DOPC   H5S20675   6.687  -0.293   6.923 -0.7605 -2.6779 -0.9892
  170DOPC   C2620676   6.786  -0.438   6.804 -0.1698 -0.1311  0.5953
  170DOPC   H6R20677   6.692  -0.451   6.746 -0.1100 -2.8666  0.9789
  170DOPC   H6S20678   6.789  -0.521   6.878  2.8174 -2.3822 -1.7760
  170DOPC   C2720679   6.907  -0.441   6.720 -0.0518  0.1087 -0.4785
  170DOPC   H7R20680   7.000  -0.441   6.780  1.3545  1.3020 -2.4922
  170DOPC   H7S20681   6.923  -0.354   6.652  0.7802  0.6281  0.3585
  170DOPC   C2820682   6.925  -0.557   6.622  0.4370 -0.2143 -0.4317
  170DOPC   H8R20683   6.917  -0.655   6.672 -1.3585 -0.3887 -0.9885
  170DOPC   H8S20684   7.029  -0.548   6.584  0.7961 -1.2790  0.2617
  170DOPC   C2920685   6.814  -0.544   6.516 -0.3658  0.2150  0.1400
  170DOPC   H9R20686   6.709  -0.558   6.546 -0.4205 -0.2664 -0.2761
  170DOPC  C21020687   6.840  -0.510   6.387 -0.1823 -0.4667 -0.0444
  170DOPC  H10R20688   6.751  -0.510   6.321 -1.0608  1.3259  1.0617
  170DOPC  C21120689   6.973  -0.475   6.321 -0.3277 -0.4242  0.0867
  170DOPC  H11R20690   7.062  -0.516   6.373  0.7804 -1.0338 -2.1525
  170DOPC  H11S20691   6.979  -0.364   6.333 -1.6182 -0.2861 -0.3915
  170DOPC  C21220692   6.992  -0.512   6.174 -1.1033  0.1623  0.2919
  170DOPC  H12R20693   6.923  -0.462   6.103 -0.0287  1.6552  0.2572
  170DOPC  H12S20694   6.969  -0.619   6.155 -0.9600 -0.2126  2.0394
  170DOPC  C21320695   7.135  -0.491   6.109 -0.1898  0.2222  0.4610
  170DOPC  H13R20696   7.212  -0.560   6.149  1.2208  1.5074  0.0775
  170DOPC  H13S20697   7.167  -0.387   6.131  0.9606 -0.0131 -0.0036
  170DOPC  C21420698   7.136  -0.519   5.962  0.4251  0.1002  0.4310
  170DOPC  H14R20699   7.070  -0.605   5.939  0.0449 -0.4978  3.4054
  170DOPC  H14S20700   7.238  -0.532   5.917  1.6268  3.6383  1.8113
  170DOPC  C21520701   7.088  -0.397   5.887  0.1731 -0.2073 -0.2539
  170DOPC  H15R20702   7.148  -0.305   5.903 -2.1999  0.9957  2.8816
  170DOPC  H15S20703   6.984  -0.369   5.917 -0.1959 -1.2961 -0.4919
  170DOPC  C21620704   7.071  -0.421   5.738  0.1544 -0.1659 -0.2128
  170DOPC  H16R20705   6.996  -0.500   5.716  1.0478 -0.6406 -1.7348
  170DOPC  H16S20706   7.171  -0.458   5.705  2.0948  1.0616  3.6637
  170DOPC  C21720707   7.034  -0.301   5.657 -0.2074  0.2336 -0.6721
  170DOPC  H17R20708   7.117  -0.228   5.653 -2.5489  3.3779  1.9148
  170DOPC  H17S20709   6.955  -0.244   5.710  1.3362  1.6713  0.1730
  170DOPC  C21820710   6.970  -0.339   5.524 -0.4384 -0.1469  0.5512
  170DOPC  H18R20711   6.883  -0.405   5.547  1.7383 -3.0279  1.0617
  170DOPC  H18S20712   7.041  -0.397   5.462 -1.0817 -0.8602  0.4651
  170DOPC  H18T20713   6.934  -0.256   5.459 -1.5475 -0.3549  0.8748
  170DOPC   C3320714   7.113   0.636   6.852 -0.4657  0.4022  0.0773
  170DOPC   H3X20715   7.203   0.597   6.800 -0.0825 -0.8136  1.5520
  170DOPC   H3Y20716   7.143   0.718   6.921  1.1210  1.3587 -1.6621
  170DOPC   C3420717   7.022   0.705   6.753 -0.5495  0.4211  0.0700
  170DOPC   H4X20718   6.955   0.771   6.811 -1.1195  0.7152 -0.9095
  170DOPC   H4Y20719   6.961   0.632   6.695  1.0745  0.4184 -1.7566
  170DOPC   C3520720   7.101   0.795   6.656  0.1820  0.8995 -0.5075
  170DOPC   H5X20721   7.201   0.755   6.633  0.5493  1.5772 -0.1319
  170DOPC   H5Y20722   7.116   0.896   6.700 -0.6676 -0.0148  2.1194
  170DOPC   C3620723   7.030   0.803   6.515  0.3430 -0.6873 -0.3255
  170DOPC   H6X20724   7.032   0.700   6.473  4.5372 -1.9235  2.2674
  170DOPC   H6Y20725   6.925   0.823   6.546  0.1680 -1.3285 -0.5029
  170DOPC   C3720726   7.082   0.917   6.431 -0.2401 -0.0891  0.2464
  170DOPC   H7X20727   7.077   1.010   6.492 -1.3639  0.7572 -1.0735
  170DOPC   H7Y20728   7.182   0.894   6.389 -1.3808 -0.9890 -2.1458
  170DOPC   C3820729   6.998   0.936   6.301 -0.6517 -0.7791  0.3890
  170DOPC   H8X20730   6.892   0.944   6.333 -1.0813  0.7636 -1.2025
  170DOPC   H8Y20731   7.021   0.851   6.233 -2.0517 -1.6319  0.9514
  170DOPC   C3920732   7.019   1.058   6.211  0.4646 -0.2238 -0.7739
  170DOPC   H9X20733   6.958   1.144   6.242 -0.9374 -1.3783 -0.2396
  170DOPC  C31020734   7.098   1.072   6.112 -0.4016  0.0382  0.8230
  170DOPC  H10X20735   7.078   1.164   6.055 -1.9380  0.2938  1.7078
  170DOPC  C31120736   7.192   0.964   6.048  0.4896 -0.4486 -0.1279
  170DOPC  H11X20737   7.162   0.957   5.941 -0.8755  1.3901  0.0815
  170DOPC  H11Y20738   7.190   0.864   6.095  1.6591 -0.1980  0.4858
  170DOPC  C31220739   7.341   0.985   6.066 -0.0528  0.3260 -0.1446
  170DOPC  H12X20740   7.394   0.891   6.039  0.7617  0.6535  0.3018
  170DOPC  H12Y20741   7.369   1.012   6.170  0.5291  1.2701 -0.5307
  170DOPC  C31320742   7.396   1.095   5.973 -0.5622  0.2140  0.0878
  170DOPC  H13X20743   7.322   1.173   5.946 -1.1172 -0.2909  0.1352
  170DOPC  H13Y20744   7.488   1.141   6.015  0.8091 -1.2842 -1.0978
  170DOPC  C31420745   7.451   1.039   5.839 -0.3876 -0.0727 -0.2419
  170DOPC  H14X20746   7.516   0.949   5.844  0.6481  0.7085  3.0418
  170DOPC  H14Y20747   7.363   1.003   5.781  0.2050  1.2626 -2.0474
  170DOPC  C31520748   7.531   1.142   5.754  0.1233 -0.5674  0.4315
  170DOPC  H15X20749   7.612   1.186   5.815 -0.0174  1.0995 -0.5346
  170DOPC  H15Y20750   7.475   1.232   5.722  1.6033 -0.0991 -0.9720
  170DOPC  C31620751   7.596   1.071   5.637  0.2811  0.2245  0.5652
  170DOPC  H16X20752   7.675   0.998   5.665  0.5626 -0.1965 -1.2171
  170DOPC  H16Y20753   7.511   1.019   5.587  1.8179 -0.8957 -0.9775
  170DOPC  C31720754   7.671   1.166   5.547  0.1233  0.1105 -0.1512
  170DOPC  H17X20755   7.602   1.245   5.510 -0.8286 -0.5578  0.1384
  170DOPC  H17Y20756   7.752   1.225   5.596  1.1075 -1.2972 -0.0423
  170DOPC  C31820757   7.721   1.100   5.427 -0.1064  0.0019  0.1628
  170DOPC  H18X20758   7.762   1.178   5.359  2.2036 -0.5347  0.8402
  170DOPC  H18Y20759   7.811   1.039   5.450  0.8804  1.4104  0.1824
  170DOPC  H18Z20760   7.648   1.046   5.363 -1.2873  2.5254 -0.7592
  171DOPC     N20761   1.612   3.347   2.216  0.0304  0.2462  0.6716
  171DOPC   C1220762   1.577   3.361   2.369 -0.3311  0.0659  0.2038
  171DOPC  H12A20763   1.491   3.301   2.394  0.7466 -0.1943  3.7021
  171DOPC  H12B20764   1.547   3.463   2.385 -0.8504 -0.0304 -0.1396
  171DOPC   C1320765   1.713   3.449   2.179  0.1195  0.3828 -0.1554
  171DOPC  H13A20766   1.777   3.412   2.100 -0.8144 -0.6542 -0.4476
  171DOPC  H13B20767   1.671   3.545   2.152  1.6134  1.3113  0.6527
  171DOPC  H13C20768   1.769   3.473   2.268  0.6184 -0.2728 -0.2876
  171DOPC   C1420769   1.485   3.375   2.135 -0.0989 -0.1983 -0.4655
  171DOPC  H14A20770   1.450   3.477   2.132 -2.4598 -0.7486  2.7099
  171DOPC  H14B20771   1.514   3.352   2.034 -0.8286 -0.6621 -0.5765
  171DOPC  H14C20772   1.411   3.304   2.169  0.4276 -0.6179 -0.1704
  171DOPC   C1520773   1.672   3.207   2.184  0.0059  0.0456 -0.1659
  171DOPC  H15A20774   1.764   3.196   2.240  1.0860  0.5346 -1.7632
  171DOPC  H15B20775   1.694   3.204   2.078 -1.4102  1.0060 -0.5213
  171DOPC  H15C20776   1.597   3.134   2.209  1.9058 -1.3392  1.8570
  171DOPC   C1120777   1.677   3.337   2.482 -0.5389 -0.4644  0.4431
  171DOPC  H11A20778   1.628   3.363   2.578 -1.0771 -1.4859  0.4511
  171DOPC  H11B20779   1.694   3.228   2.476  1.8970 -0.1059 -0.6260
  171DOPC     P20780   1.844   3.547   2.516 -0.2570 -0.0581  0.2773
  171DOPC   O1320781   1.758   3.653   2.464 -0.3704  0.5712  0.0178
  171DOPC   O1420782   1.990   3.557   2.478 -0.2790  0.1968 -0.0840
  171DOPC   O1220783   1.799   3.410   2.453 -0.0644  0.0454  0.4938
  171DOPC   O1120784   1.811   3.534   2.667 -0.1839 -0.0869 -0.4826
  171DOPC    C120785   1.887   3.457   2.758 -0.6006 -0.0772  0.2803
  171DOPC    HA20786   1.996   3.459   2.734 -0.2966 -2.1311  1.2432
  171DOPC    HB20787   1.865   3.348   2.759  2.8576 -0.9255  1.9167
  171DOPC    C220788   1.881   3.520   2.900  0.2412  0.6713  0.1226
  171DOPC    HS20789   1.932   3.447   2.967  0.0549 -0.3277 -0.7868
  171DOPC   O2120790   1.747   3.532   2.954 -0.3363  0.2181  0.4151
  171DOPC   C2120791   1.681   3.424   2.966 -0.0615  1.2720  0.7529
  171DOPC   O2220792   1.730   3.312   2.948  0.5571 -0.6079  0.0488
  171DOPC   C2220793   1.534   3.451   2.993  0.9168 -0.0345  0.4102
  171DOPC   H2R20794   1.488   3.351   3.006  0.6462  0.2017  1.3667
  171DOPC   H2S20795   1.495   3.498   2.901  0.9965  0.1733  0.4813
  171DOPC    C320796   1.951   3.661   2.911 -0.4111  0.9994  0.5573
  171DOPC    HX20797   1.903   3.752   2.868  0.4307  2.4246  2.5094
  171DOPC    HY20798   2.039   3.654   2.843 -1.2834  0.8535 -0.5996
  171DOPC   O3120799   1.992   3.686   3.047  0.1019 -0.2307 -0.3483
  171DOPC   C3120800   2.097   3.623   3.094  0.1503 -0.1257 -0.5723
  171DOPC   O3220801   2.170   3.544   3.033 -0.3493  0.2211  0.2827
  171DOPC   C3220802   2.132   3.662   3.239  0.1153 -0.3260  0.0131
  171DOPC   H2X20803   2.230   3.618   3.266 -0.4760 -3.0624 -1.8907
  171DOPC   H2Y20804   2.140   3.773   3.240 -0.7181 -0.2626  1.1371
  171DOPC   C2320805   1.488   3.536   3.117  0.3719  0.2625  0.3489
  171DOPC   H3R20806   1.379   3.550   3.124  0.3417 -0.5961  2.1757
  171DOPC   H3S20807   1.526   3.638   3.098  2.4927 -0.2868  1.3453
  171DOPC   C2420808   1.539   3.499   3.259 -0.2077 -0.0424  0.1547
  171DOPC   H4R20809   1.650   3.509   3.270 -0.3478 -0.6045  2.4950
  171DOPC   H4S20810   1.502   3.395   3.271 -0.2540 -0.3199 -1.9986
  171DOPC   C2520811   1.476   3.587   3.369  0.4010 -0.2117 -0.0322
  171DOPC   H5R20812   1.375   3.615   3.332  0.2501  0.3320  0.7789
  171DOPC   H5S20813   1.545   3.674   3.373 -1.2334  1.2152 -1.3685
  171DOPC   C2620814   1.450   3.516   3.501 -0.4071 -0.1020  0.3387
  171DOPC   H6R20815   1.382   3.429   3.494  2.0168 -2.2449  1.6817
  171DOPC   H6S20816   1.396   3.581   3.573 -0.5759 -0.0815  0.1961
  171DOPC   C2720817   1.578   3.476   3.562  0.7149  0.6312  0.0236
  171DOPC   H7R20818   1.648   3.563   3.563  2.9402 -1.0364 -1.3557
  171DOPC   H7S20819   1.618   3.393   3.500 -1.1987 -0.0199 -0.3974
  171DOPC   C2820820   1.561   3.422   3.710 -0.2745 -0.4650  0.0390
  171DOPC   H8R20821   1.665   3.394   3.738  0.0768  2.1636  1.7206
  171DOPC   H8S20822   1.491   3.335   3.707 -1.6817  0.6058  0.6948
  171DOPC   C2920823   1.532   3.545   3.801  0.2653 -0.4648 -0.1874
  171DOPC   H9R20824   1.574   3.644   3.780 -0.1725 -0.3116 -0.3699
  171DOPC  C21020825   1.463   3.528   3.914  0.4224  0.6434  0.3910
  171DOPC  H10R20826   1.466   3.611   3.985  0.3597  0.2439  0.8658
  171DOPC  C21120827   1.373   3.411   3.951  0.6508  0.6018  0.0317
  171DOPC  H11R20828   1.403   3.314   3.907  0.3867 -0.1330  1.4199
  171DOPC  H11S20829   1.268   3.424   3.918 -0.1508 -0.3332  2.0686
  171DOPC  C21220830   1.378   3.389   4.100 -0.0478  0.2995 -0.0203
  171DOPC  H12R20831   1.362   3.491   4.141  0.3878  1.1898 -1.9325
  171DOPC  H12S20832   1.479   3.346   4.118  0.0561  0.0193 -1.1528
  171DOPC  C21320833   1.263   3.300   4.149  0.0628  0.0630 -0.3396
  171DOPC  H13R20834   1.257   3.201   4.098  0.7123  0.2817 -0.8575
  171DOPC  H13S20835   1.167   3.349   4.121  0.1284  0.7081  0.5188
  171DOPC  C21420836   1.277   3.283   4.302  0.3315  0.0744  0.7097
  171DOPC  H14R20837   1.290   3.385   4.344 -0.2797 -0.1616  1.4937
  171DOPC  H14S20838   1.375   3.235   4.324  0.1547 -1.4700 -1.5594
  171DOPC  C21520839   1.176   3.193   4.373 -0.5439 -0.0097 -0.2044
  171DOPC  H15R20840   1.164   3.108   4.302 -2.3906 -0.0704  0.1415
  171DOPC  H15S20841   1.075   3.239   4.375 -0.2316  0.7400 -0.9478
  171DOPC  C21620842   1.215   3.138   4.512 -0.6157 -0.1684 -0.6371
  171DOPC  H16R20843   1.233   3.217   4.589  2.3287 -0.9189 -0.4441
  171DOPC  H16S20844   1.301   3.070   4.495 -1.1329 -0.5843 -1.6211
  171DOPC  C21720845   1.092   3.060   4.570  0.4362 -0.8309 -0.1650
  171DOPC  H17R20846   1.002   3.072   4.506  0.2520 -2.0147 -0.1444
  171DOPC  H17S20847   1.061   3.097   4.670 -0.5937 -0.7936 -0.4881
  171DOPC  C21820848   1.120   2.907   4.577 -0.5847 -0.9776 -0.0277
  171DOPC  H18R20849   1.030   2.867   4.628 -2.6906  0.4456 -2.3926
  171DOPC  H18S20850   1.221   2.883   4.618  0.2105  1.7103 -0.2357
  171DOPC  H18T20851   1.112   2.856   4.479 -0.1280 -2.0874  0.4911
  171DOPC   C3320852   2.018   3.636   3.350 -0.0526 -1.2232 -0.0281
  171DOPC   H3X20853   1.934   3.707   3.333  0.5716 -0.6462 -0.7738
  171DOPC   H3Y20854   2.056   3.664   3.451 -0.9225  0.1981 -0.0577
  171DOPC   C3420855   1.978   3.491   3.338  0.2268  0.7429  0.3913
  171DOPC   H4X20856   1.998   3.452   3.236 -0.6684 -2.2090  1.2497
  171DOPC   H4Y20857   1.868   3.482   3.344  0.3291 -0.8064  0.3073
  171DOPC   C3520858   2.045   3.393   3.437 -1.4494  0.3532 -0.1715
  171DOPC   H5X20859   2.025   3.421   3.542 -2.7940 -1.2121  0.0226
  171DOPC   H5Y20860   2.154   3.411   3.428 -1.2197 -0.7129  0.3592
  171DOPC   C3620861   2.019   3.251   3.400 -0.0670 -0.4346 -0.5294
  171DOPC   H6X20862   2.053   3.232   3.296 -0.9812 -1.7283 -0.6325
  171DOPC   H6Y20863   2.079   3.192   3.473 -1.6084 -0.4180  0.8065
  171DOPC   C3720864   1.871   3.210   3.411  0.2416 -0.5036 -0.2167
  171DOPC   H7X20865   1.806   3.285   3.361 -1.0944 -1.6508 -0.2707
  171DOPC   H7Y20866   1.853   3.111   3.364 -0.3967  0.4897 -2.1347
  171DOPC   C3820867   1.814   3.193   3.550 -0.3084 -0.0465  0.4392
  171DOPC   H8X20868   1.708   3.162   3.553 -0.0055 -1.1015  2.6300
  171DOPC   H8Y20869   1.817   3.295   3.594 -2.6323 -0.0055  0.6209
  171DOPC   C3920870   1.897   3.077   3.608  0.0203  0.2572 -0.1744
  171DOPC   H9X20871   1.918   2.991   3.543  1.8622  0.6734 -0.1957
  171DOPC  C31020872   1.956   3.083   3.733  0.1300 -0.2644  0.2363
  171DOPC  H10X20873   2.016   2.997   3.766  0.2402  0.4807  2.1020
  171DOPC  C31120874   1.950   3.205   3.822  0.7351 -0.0444  0.0485
  171DOPC  H11X20875   1.975   3.301   3.773  1.2147  1.1589  2.5265
  171DOPC  H11Y20876   2.031   3.202   3.898  2.3453  0.7766 -1.5601
  171DOPC  C31220877   1.813   3.209   3.900  0.2762  0.5078  0.1602
  171DOPC  H12X20878   1.726   3.212   3.831  0.4697 -1.0371 -0.1879
  171DOPC  H12Y20879   1.796   3.293   3.971 -4.2388 -0.2927  0.3776
  171DOPC  C31320880   1.787   3.073   3.971  0.6134  0.7755 -0.7170
  171DOPC  H13X20881   1.725   3.008   3.905 -0.7524  0.2896  0.9563
  171DOPC  H13Y20882   1.878   3.019   4.005  1.5847  2.4727 -0.5456
  171DOPC  C31420883   1.695   3.096   4.099  0.5242  0.1127 -0.3999
  171DOPC  H14X20884   1.628   3.178   4.065  2.4917  1.5780 -0.8884
  171DOPC  H14Y20885   1.635   3.006   4.124  0.8850 -0.2848 -0.9527
  171DOPC  C31520886   1.771   3.149   4.224 -0.5838 -0.2026  0.1838
  171DOPC  H15X20887   1.821   3.247   4.203  0.3994 -0.7942 -0.3368
  171DOPC  H15Y20888   1.845   3.068   4.243  1.4360  1.6706  0.7629
  171DOPC  C31620889   1.696   3.161   4.357  0.0234 -0.5525  0.2325
  171DOPC  H16X20890   1.752   3.220   4.432  0.7096 -0.4178 -0.3822
  171DOPC  H16Y20891   1.606   3.224   4.342  1.3785  1.0347 -1.8151
  171DOPC  C31720892   1.657   3.024   4.406 -0.1411 -0.0129  0.0749
  171DOPC  H17X20893   1.581   2.989   4.333  0.1815  2.1485 -1.3982
  171DOPC  H17Y20894   1.745   2.956   4.405  1.4264  1.9280 -1.0208
  171DOPC  C31820895   1.594   3.028   4.547  0.7168 -0.2568  0.2659
  171DOPC  H18X20896   1.543   2.932   4.568 -0.7457  0.1011 -1.3966
  171DOPC  H18Y20897   1.671   3.050   4.624  0.7909 -1.3042  0.5030
  171DOPC  H18Z20898   1.523   3.113   4.555 -2.1580 -2.4207 -0.6388
  172DOPC     N20899   3.082   5.727   2.711  0.0965  0.0290 -0.2996
  172DOPC   C1220900   3.169   5.761   2.828  0.5588 -0.1054 -0.1730
  172DOPC  H12A20901   3.164   5.672   2.889 -1.5597  0.0067 -0.1377
  172DOPC  H12B20902   3.110   5.841   2.870 -0.8213 -0.7054 -0.9109
  172DOPC   C1320903   3.067   5.831   2.605 -0.8736  0.3880 -0.5061
  172DOPC  H13A20904   3.163   5.872   2.575 -0.9795 -0.5451 -2.2543
  172DOPC  H13B20905   3.027   5.791   2.513 -1.1428 -1.2598  0.2774
  172DOPC  H13C20906   3.001   5.904   2.648 -1.3057 -0.3549  0.0991
  172DOPC   C1420907   2.941   5.699   2.760 -0.5817  0.2879  0.3020
  172DOPC  H14A20908   2.875   5.684   2.676  0.2460  1.4425 -0.6037
  172DOPC  H14B20909   2.943   5.605   2.813 -3.1687 -0.1948 -0.3086
  172DOPC  H14C20910   2.913   5.777   2.830  2.1861  3.1591 -1.4744
  172DOPC   C1520911   3.140   5.608   2.650  0.7440  0.6742  0.0757
  172DOPC  H15A20912   3.159   5.529   2.721  1.0513  1.0033  0.3683
  172DOPC  H15B20913   3.234   5.634   2.602 -0.1432  0.8933 -1.6100
  172DOPC  H15C20914   3.081   5.555   2.577  1.5900  0.2644 -0.3322
  172DOPC   C1120915   3.316   5.804   2.803  0.7137  0.1759  0.5294
  172DOPC  H11A20916   3.364   5.810   2.903 -1.8486  0.0020  1.8632
  172DOPC  H11B20917   3.360   5.722   2.741  0.1535 -1.2735  1.9720
  172DOPC     P20918   3.279   6.064   2.817 -0.3988 -0.0655  0.0358
  172DOPC   O1320919   3.136   6.071   2.837  0.5010 -0.2293  0.1155
  172DOPC   O1420920   3.349   6.176   2.757  0.3361 -0.3904 -0.2264
  172DOPC   O1220921   3.316   5.933   2.736 -0.3948 -0.2062 -0.0996
  172DOPC   O1120922   3.338   6.038   2.963 -0.1400 -0.2571 -0.2787
  172DOPC    C120923   3.474   6.080   2.989  0.3563  0.4098 -0.5793
  172DOPC    HA20924   3.476   6.191   2.995  0.1726  0.5136 -2.0526
  172DOPC    HB20925   3.547   6.051   2.910  0.5904  3.0927 -1.4552
  172DOPC    C220926   3.524   6.014   3.115  0.4367  0.1388 -0.7534
  172DOPC    HS20927   3.518   5.904   3.105 -0.5814  0.1427 -0.3263
  172DOPC   O2120928   3.443   6.052   3.231 -0.2209 -0.3059  0.3906
  172DOPC   C2120929   3.451   5.981   3.348 -0.5503  0.2360  0.5397
  172DOPC   O2220930   3.486   5.867   3.355  0.2739  0.3309 -0.1255
  172DOPC   C2220931   3.407   6.066   3.468 -0.4960  0.4218  1.1644
  172DOPC   H2R20932   3.317   6.120   3.431  1.0131  2.7272  0.6274
  172DOPC   H2S20933   3.483   6.145   3.489 -1.1864  2.3126 -2.6219
  172DOPC    C320934   3.674   6.058   3.137 -0.0180 -0.1715  0.4300
  172DOPC    HX20935   3.666   6.166   3.161 -0.4811 -0.0664 -0.1909
  172DOPC    HY20936   3.726   6.041   3.040 -1.6267  1.6164 -0.8248
  172DOPC   O3120937   3.739   5.991   3.244 -0.2091  0.0700 -0.3229
  172DOPC   C3120938   3.822   5.895   3.218  0.2644 -1.0404  0.2627
  172DOPC   O3220939   3.830   5.846   3.106  0.0195 -0.5178  0.3436
  172DOPC   C3220940   3.893   5.845   3.344 -0.0521  0.6912  0.2012
  172DOPC   H2X20941   3.912   5.735   3.345 -0.5526  0.5729  2.3312
  172DOPC   H2Y20942   3.990   5.899   3.346 -0.2667  1.0645  1.3209
  172DOPC   C2320943   3.386   5.982   3.594  0.0170 -0.2160  0.0527
  172DOPC   H3R20944   3.473   5.918   3.622  0.6018  0.1591 -0.8560
  172DOPC   H3S20945   3.298   5.918   3.571 -0.8927  0.3793  1.7035
  172DOPC   C2420946   3.360   6.082   3.708  0.1797  0.3520 -0.3668
  172DOPC   H4R20947   3.266   6.140   3.696  0.7023  1.3531  0.2587
  172DOPC   H4S20948   3.438   6.161   3.711 -0.6214  1.1364  1.1118
  172DOPC   C2520949   3.377   6.023   3.845  0.4759  0.3125 -0.1938
  172DOPC   H5R20950   3.481   5.987   3.857  0.3380 -0.7586 -1.8086
  172DOPC   H5S20951   3.322   5.927   3.859 -0.2234  0.8671  0.9632
  172DOPC   C2620952   3.330   6.133   3.948  0.5887  0.7568  0.5177
  172DOPC   H6R20953   3.220   6.123   3.965  0.6034 -1.5931 -0.3301
  172DOPC   H6S20954   3.341   6.235   3.906 -1.2553  0.6717 -0.3089
  172DOPC   C2720955   3.403   6.131   4.086 -0.3180 -0.1177  0.1195
  172DOPC   H7R20956   3.512   6.151   4.089 -0.1862 -0.6940 -0.4909
  172DOPC   H7S20957   3.395   6.028   4.127 -2.3728  0.1194  0.4081
  172DOPC   C2820958   3.339   6.228   4.181  0.6686 -0.5447  0.1207
  172DOPC   H8R20959   3.351   6.203   4.289  1.8672 -0.9146 -0.0786
  172DOPC   H8S20960   3.231   6.219   4.158  1.2526 -0.1607 -3.2323
  172DOPC   C2920961   3.380   6.376   4.162 -0.3865 -0.2862 -0.4606
  172DOPC   H9R20962   3.344   6.412   4.065  0.1622 -0.1638 -0.6246
  172DOPC  C21020963   3.477   6.448   4.234 -0.0118  0.6348 -0.4677
  172DOPC  H10R20964   3.490   6.553   4.201  0.2336  1.6995  2.6832
  172DOPC  C21120965   3.552   6.403   4.357  0.8466  0.2559 -0.6185
  172DOPC  H11R20966   3.659   6.433   4.349  1.0759 -0.1448  0.6470
  172DOPC  H11S20967   3.537   6.296   4.384  0.4790  0.9505  2.2768
  172DOPC  C21220968   3.486   6.476   4.479  0.3005 -0.6171 -0.4386
  172DOPC  H12R20969   3.529   6.431   4.571  0.7974 -1.7344 -1.1948
  172DOPC  H12S20970   3.381   6.441   4.480  0.7567 -2.0773 -0.8545
  172DOPC  C21320971   3.498   6.634   4.469 -0.4372  1.1544 -0.0057
  172DOPC  H13R20972   3.439   6.663   4.380 -0.5633 -1.3085 -0.7921
  172DOPC  H13S20973   3.605   6.663   4.456 -0.2617 -0.1512 -1.8123
  172DOPC  C21420974   3.439   6.698   4.588  0.5600  0.0778  0.1042
  172DOPC  H14R20975   3.498   6.667   4.677 -0.3892 -1.3105  0.2823
  172DOPC  H14S20976   3.332   6.677   4.608  0.3775  0.4255 -0.5013
  172DOPC  C21520977   3.454   6.849   4.589  0.1252  0.0545 -0.3772
  172DOPC  H15R20978   3.396   6.902   4.511 -0.8575  0.5256  0.6325
  172DOPC  H15S20979   3.562   6.873   4.582 -0.1339  1.4641  0.1807
  172DOPC  C21620980   3.401   6.906   4.719  0.2064 -0.0063  0.8247
  172DOPC  H16R20981   3.299   6.865   4.735 -0.0622 -0.6492 -2.0749
  172DOPC  H16S20982   3.378   7.013   4.704 -0.3862 -0.3564 -1.0201
  172DOPC  C21720983   3.503   6.896   4.836  0.0626  0.3231  0.8035
  172DOPC  H17R20984   3.603   6.916   4.794 -0.1493 -1.6462 -0.8114
  172DOPC  H17S20985   3.513   6.790   4.870  1.4228 -0.5426 -2.0440
  172DOPC  C21820986   3.453   6.982   4.952  0.1311  0.0013  0.4312
  172DOPC  H18R20987   3.352   6.948   4.984 -0.6893  0.0295 -1.9019
  172DOPC  H18S20988   3.441   7.090   4.928  2.4816  0.0380 -0.8876
  172DOPC  H18T20989   3.525   6.967   5.035  0.7538 -3.1757 -0.5704
  172DOPC   C3320990   3.824   5.878   3.476  0.1254 -0.6302  0.3315
  172DOPC   H3X20991   3.713   5.868   3.465 -0.0214  0.2929  0.8676
  172DOPC   H3Y20992   3.854   5.981   3.501  1.9453 -0.3587 -2.5185
  172DOPC   C3420993   3.858   5.778   3.586  0.8643  0.6510  0.3586
  172DOPC   H4X20994   3.962   5.742   3.569  0.5357 -0.9769  1.5224
  172DOPC   H4Y20995   3.797   5.686   3.577  3.4174 -1.3561  2.1010
  172DOPC   C3520996   3.839   5.844   3.725  0.1432  0.1382  0.4512
  172DOPC   H5X20997   3.733   5.857   3.758 -0.2975 -1.6222 -0.1387
  172DOPC   H5Y20998   3.881   5.947   3.721  0.6337 -0.0613 -3.0342
  172DOPC   C3620999   3.911   5.761   3.838  0.3513  0.3406  0.5915
  172DOPC   H6X21000   3.862   5.661   3.841  0.4658  0.1756 -1.6295
  172DOPC   H6Y21001   4.014   5.744   3.800  0.2017 -1.3221  0.8733
  172DOPC   C3721002   3.917   5.838   3.975  0.2916 -0.0515 -0.4995
  172DOPC   H7X21003   3.982   5.786   4.049  0.5632  2.3066  1.0527
  172DOPC   H7Y21004   3.952   5.944   3.973  0.5003 -0.1280 -1.2209
  172DOPC   C3821005   3.779   5.847   4.044  0.4231  0.7176 -0.1740
  172DOPC   H8X21006   3.734   5.751   4.011  1.8757  0.5133 -1.7125
  172DOPC   H8Y21007   3.716   5.927   4.000  0.8409  0.9819 -0.2942
  172DOPC   C3921008   3.764   5.866   4.193  0.1667  0.9098  0.6103
  172DOPC   H9X21009   3.779   5.972   4.218 -0.2937  0.9980  0.5262
  172DOPC  C31021010   3.727   5.775   4.283  0.4367  0.0431 -1.0891
  172DOPC  H10X21011   3.716   5.813   4.386  4.8243  0.3759 -0.5630
  172DOPC  C31121012   3.706   5.631   4.257 -0.9201  0.7599  0.6100
  172DOPC  H11X21013   3.791   5.574   4.301 -2.9568 -3.1077 -0.0105
  172DOPC  H11Y21014   3.710   5.609   4.148  2.1602  1.5296  0.4723
  172DOPC  C31221015   3.574   5.591   4.314  0.8728  0.3414  0.2498
  172DOPC  H12X21016   3.587   5.602   4.424 -1.9027 -1.4052  0.8657
  172DOPC  H12Y21017   3.561   5.484   4.287  0.2640  1.1580 -3.2624
  172DOPC  C31321018   3.444   5.661   4.264  0.0061  0.0731  0.4603
  172DOPC  H13X21019   3.354   5.617   4.312 -0.2856  0.2446  0.0804
  172DOPC  H13Y21020   3.449   5.771   4.277  0.6382  0.6580 -3.4582
  172DOPC  C31421021   3.422   5.649   4.112 -0.5527  0.8354 -0.1751
  172DOPC  H14X21022   3.510   5.693   4.059  0.0392  0.9639  0.8930
  172DOPC  H14Y21023   3.419   5.539   4.094 -1.9661  0.7307  0.6170
  172DOPC  C31521024   3.294   5.707   4.061  0.6916  0.2754  0.0366
  172DOPC  H15X21025   3.296   5.818   4.062 -0.7214  0.3781 -1.9128
  172DOPC  H15Y21026   3.208   5.669   4.121  1.4026  0.8810  1.4833
  172DOPC  C31621027   3.268   5.661   3.914 -0.2796  0.4044 -0.1548
  172DOPC  H16X21028   3.357   5.681   3.851  1.0997 -0.1159  1.5685
  172DOPC  H16Y21029   3.244   5.553   3.904  1.0743  0.1095 -0.3326
  172DOPC  C31721030   3.135   5.724   3.853  0.0219 -0.2733 -0.0754
  172DOPC  H17X21031   3.052   5.680   3.913  0.0983 -1.6354 -0.9282
  172DOPC  H17Y21032   3.139   5.834   3.865  0.8153 -0.2792 -0.2463
  172DOPC  C31821033   3.118   5.696   3.702 -0.4862  0.5357  0.2640
  172DOPC  H18X21034   3.216   5.714   3.652 -0.3305 -0.7529  0.0593
  172DOPC  H18Y21035   3.081   5.593   3.680  0.2454 -0.0398  1.6080
  172DOPC  H18Z21036   3.053   5.770   3.650  2.2178  2.6281 -0.3559
  173DOPC     N21037   1.504   5.239   2.594  0.5259 -0.0103  0.2921
  173DOPC   C1221038   1.555   5.093   2.585 -0.0682  0.0797 -0.2529
  173DOPC  H12A21039   1.643   5.083   2.524  1.8710 -1.8707  2.6303
  173DOPC  H12B21040   1.473   5.041   2.539  1.2269 -1.6292 -0.6972
  173DOPC   C1321041   1.520   5.313   2.464 -0.6907 -0.4771 -0.0171
  173DOPC  H13A21042   1.625   5.315   2.439 -0.0576  0.2385  2.4339
  173DOPC  H13B21043   1.465   5.273   2.380 -1.8828  1.6732 -0.3272
  173DOPC  H13C21044   1.484   5.414   2.464  2.1110  0.6064  1.1023
  173DOPC   C1421045   1.570   5.318   2.702 -0.0296  0.4141 -0.5351
  173DOPC  H14A21046   1.568   5.261   2.794 -0.2410 -0.4653 -1.0642
  173DOPC  H14B21047   1.675   5.322   2.677  1.0639  1.3128  3.4405
  173DOPC  H14C21048   1.532   5.418   2.711 -0.8390  0.0128  0.7725
  173DOPC   C1521049   1.361   5.227   2.624 -0.4164 -0.5882  0.8391
  173DOPC  H15A21050   1.350   5.161   2.709 -0.3228 -1.5956  0.0981
  173DOPC  H15B21051   1.313   5.175   2.542 -0.5534  0.1964  0.4176
  173DOPC  H15C21052   1.305   5.319   2.636 -0.5283 -0.4688 -0.4270
  173DOPC   C1121053   1.582   5.014   2.715  0.5806 -0.7355  0.1357
  173DOPC  H11A21054   1.634   4.918   2.695 -1.7302 -1.5429 -2.6612
  173DOPC  H11B21055   1.651   5.075   2.776  0.1912 -1.8781  1.7939
  173DOPC     P21056   1.369   4.863   2.753  0.0767 -0.0531 -0.6099
  173DOPC   O1321057   1.337   4.860   2.607 -0.1318 -0.3136 -0.2791
  173DOPC   O1421058   1.254   4.861   2.846  0.1850 -0.2146 -0.1532
  173DOPC   O1221059   1.459   4.987   2.785 -0.0236 -0.4578 -0.1757
  173DOPC   O1121060   1.462   4.747   2.789 -0.1096  0.3477 -0.1666
  173DOPC    C121061   1.500   4.707   2.923  0.3888 -0.0553  0.6083
  173DOPC    HA21062   1.516   4.790   2.995 -1.6049 -0.5665  1.7227
  173DOPC    HB21063   1.596   4.654   2.911 -0.0554 -0.7728  0.1230
  173DOPC    C221064   1.395   4.618   2.988  0.2825  0.2225 -0.4925
  173DOPC    HS21065   1.297   4.672   2.991  0.3683  0.3675 -0.2112
  173DOPC   O2121066   1.435   4.579   3.118  0.2476  0.0350  0.0611
  173DOPC   C2121067   1.352   4.577   3.217  0.1237 -0.1659 -0.0992
  173DOPC   O2221068   1.234   4.616   3.214  0.5336  0.8217 -0.7607
  173DOPC   C2221069   1.422   4.512   3.344 -0.0002 -0.2247 -0.1595
  173DOPC   H2R21070   1.525   4.548   3.362 -0.8260  1.3011  1.8928
  173DOPC   H2S21071   1.430   4.404   3.318 -0.6679 -0.0912 -0.9881
  173DOPC    C321072   1.354   4.495   2.901 -0.3982 -0.0348  0.3489
  173DOPC    HX21073   1.446   4.439   2.871  0.5237  0.2146  2.5372
  173DOPC    HY21074   1.300   4.531   2.811 -0.6213  0.2723  0.6047
  173DOPC   O3121075   1.251   4.418   2.984 -0.3437  0.4928  1.3701
  173DOPC   C3121076   1.189   4.325   2.910  0.2233 -0.6390  0.1794
  173DOPC   O3221077   1.216   4.301   2.797 -0.6993  0.1093 -0.0402
  173DOPC   C3221078   1.072   4.271   2.985  0.3513  0.3979  0.2089
  173DOPC   H2X21079   0.987   4.342   2.988  1.4199  1.7451 -0.5360
  173DOPC   H2Y21080   1.040   4.176   2.937  1.7296 -0.5659  1.1144
  173DOPC   C2321081   1.338   4.538   3.468 -0.1353  0.4768 -0.7945
  173DOPC   H3R21082   1.231   4.521   3.445 -0.0617  1.5207 -2.0178
  173DOPC   H3S21083   1.346   4.647   3.489 -4.3176  0.6373  0.9571
  173DOPC   C2421084   1.373   4.458   3.593  0.3773  0.2312  0.0987
  173DOPC   H4R21085   1.480   4.460   3.623  0.7893 -0.6438 -1.2685
  173DOPC   H4S21086   1.344   4.352   3.584  0.4073  0.2861 -0.6845
  173DOPC   C2521087   1.284   4.512   3.708  0.4180  0.4319 -0.4075
  173DOPC   H5R21088   1.177   4.512   3.677  0.2572  3.3139 -0.1373
  173DOPC   H5S21089   1.323   4.615   3.722  1.0276 -0.1232  2.7826
  173DOPC   C2621090   1.296   4.425   3.834 -0.1291  0.2670  0.0103
  173DOPC   H6R21091   1.404   4.429   3.861 -0.3425 -0.9892  1.1787
  173DOPC   H6S21092   1.280   4.322   3.796 -1.2231 -0.2333  1.7258
  173DOPC   C2721093   1.205   4.462   3.949 -0.2249  0.3939  0.0576
  173DOPC   H7R21094   1.209   4.389   4.032 -1.9225  1.9453  1.5931
  173DOPC   H7S21095   1.101   4.449   3.911  0.1181  1.9010 -1.5552
  173DOPC   C2821096   1.219   4.599   4.020 -0.2274  0.1372 -0.2891
  173DOPC   H8R21097   1.143   4.609   4.099  0.2833 -1.9851  0.5541
  173DOPC   H8S21098   1.201   4.682   3.948  3.1411  3.2570  2.0927
  173DOPC   C2921099   1.349   4.617   4.097  0.0792 -0.1805 -0.0641
  173DOPC   H9R21100   1.377   4.529   4.157  1.9506 -2.5870 -4.0508
  173DOPC  C21021101   1.443   4.710   4.072 -0.2552 -0.3265 -0.4699
  173DOPC  H10R21102   1.536   4.717   4.130 -0.2426  2.0819 -0.6898
  173DOPC  C21121103   1.426   4.826   3.966 -0.2025 -0.3599  0.1965
  173DOPC  H11R21104   1.453   4.927   4.004 -0.4211 -0.5745  0.9320
  173DOPC  H11S21105   1.322   4.840   3.929 -1.1664 -1.9761  2.1559
  173DOPC  C21221106   1.514   4.796   3.839  0.0346  0.8099  0.4017
  173DOPC  H12R21107   1.521   4.689   3.809  1.6808  0.8060  0.7385
  173DOPC  H12S21108   1.614   4.835   3.868 -0.5143 -0.2306  4.2546
  173DOPC  C21321109   1.471   4.866   3.707 -0.9236 -0.2865  0.0542
  173DOPC  H13R21110   1.471   4.973   3.737 -2.1622 -0.2742  0.0598
  173DOPC  H13S21111   1.370   4.832   3.676  0.0405 -1.9924 -1.4016
  173DOPC  C21421112   1.562   4.854   3.585 -0.4691 -0.4137  0.0369
  173DOPC  H14R21113   1.568   4.749   3.550  1.7407 -0.4989  0.5098
  173DOPC  H14S21114   1.664   4.888   3.612 -0.3147  0.4650 -1.5496
  173DOPC  C21521115   1.518   4.960   3.483 -0.4133 -0.1255 -0.1067
  173DOPC  H15R21116   1.549   5.055   3.533  3.3543 -1.4876  0.4327
  173DOPC  H15S21117   1.408   4.952   3.470 -0.4659  1.6263 -1.0477
  173DOPC  C21621118   1.594   4.949   3.353  0.8364  0.2275 -0.3625
  173DOPC  H16R21119   1.557   4.863   3.293  0.1512  1.5080 -1.8359
  173DOPC  H16S21120   1.702   4.931   3.374  0.6224 -2.1239 -1.0316
  173DOPC  C21721121   1.575   5.080   3.273  0.6362  0.2221  0.1979
  173DOPC  H17R21122   1.630   5.165   3.320  1.6485 -0.4284  0.2217
  173DOPC  H17S21123   1.468   5.110   3.267 -0.2462 -2.7121 -0.5886
  173DOPC  C21821124   1.632   5.068   3.128 -0.1916  0.0964 -0.3621
  173DOPC  H18R21125   1.656   5.170   3.091  0.1148  0.5225  0.9405
  173DOPC  H18S21126   1.570   5.012   3.055  0.5876 -0.8428 -0.3220
  173DOPC  H18T21127   1.729   5.015   3.139 -0.1568  0.6865  3.8091
  173DOPC   C3321128   1.104   4.232   3.129  0.0978  0.4818 -0.4144
  173DOPC   H3X21129   1.120   4.317   3.199 -1.4709 -0.0414  0.6478
  173DOPC   H3Y21130   1.198   4.172   3.126 -0.3788 -0.2503 -0.9174
  173DOPC   C3421131   0.991   4.150   3.204 -0.5030 -0.1146  0.3974
  173DOPC   H4X21132   0.980   4.050   3.157 -2.2851 -0.4972  1.5377
  173DOPC   H4Y21133   0.896   4.207   3.195  0.6067  1.6825 -0.5678
  173DOPC   C3521134   1.036   4.122   3.348 -0.1149  0.4868  0.0096
  173DOPC   H5X21135   1.091   4.208   3.391  0.0315 -0.8115  2.6099
  173DOPC   H5Y21136   1.110   4.038   3.342 -0.8218 -0.0702 -1.4150
  173DOPC   C3621137   0.924   4.062   3.436  0.2086 -0.4440  0.5458
  173DOPC   H6X21138   0.867   4.000   3.364  2.0552 -1.5260 -0.0574
  173DOPC   H6Y21139   0.965   3.992   3.512  0.4800 -2.1700 -1.1073
  173DOPC   C3721140   0.856   4.174   3.520  0.1796  0.6795 -0.5588
  173DOPC   H7X21141   0.926   4.183   3.607  1.1494 -0.7859 -1.1404
  173DOPC   H7Y21142   0.855   4.276   3.476 -1.7392 -0.2106 -2.7158
  173DOPC   C3821143   0.720   4.126   3.570 -0.0751  0.8788 -0.5379
  173DOPC   H8X21144   0.718   4.015   3.575 -2.8902  0.8438 -0.8070
  173DOPC   H8Y21145   0.649   4.152   3.488 -0.4755  1.3518 -0.0444
  173DOPC   C3921146   0.670   4.192   3.697  0.8634  0.9332 -0.3707
  173DOPC   H9X21147   0.627   4.293   3.692 -0.0531  0.6159  0.6060
  173DOPC  C31021148   0.672   4.132   3.820 -0.6466 -0.0464  0.3887
  173DOPC  H10X21149   0.650   4.198   3.905 -2.6196 -0.8156  0.5292
  173DOPC  C31121150   0.706   3.989   3.860  0.2054 -0.0884  0.8266
  173DOPC  H11X21151   0.806   3.984   3.907  1.0644 -0.6606 -0.9836
  173DOPC  H11Y21152   0.693   3.923   3.772 -0.9172  0.2183  0.7376
  173DOPC  C31221153   0.610   3.943   3.967  0.4737 -0.0523 -0.4439
  173DOPC  H12X21154   0.507   3.943   3.924  1.2766 -2.2549 -2.6749
  173DOPC  H12Y21155   0.606   4.007   4.057 -3.2081 -1.5617  0.6749
  173DOPC  C31321156   0.644   3.807   4.022 -0.6264  0.0641 -0.3632
  173DOPC  H13X21157   0.639   3.721   3.952 -0.1902 -0.8802  0.7166
  173DOPC  H13Y21158   0.749   3.816   4.055  0.1859 -1.1787 -2.4288
  173DOPC  C31421159   0.560   3.773   4.151 -0.0949  0.0012 -0.8356
  173DOPC  H14X21160   0.599   3.679   4.195 -0.9057  0.1493  0.2555
  173DOPC  H14Y21161   0.573   3.854   4.226  1.2419 -1.8627  1.0177
  173DOPC  C31521162   0.408   3.749   4.110  0.2512 -0.0044 -0.0878
  173DOPC  H15X21163   0.402   3.676   4.026 -1.9280  0.4806 -0.4147
  173DOPC  H15Y21164   0.370   3.846   4.072 -0.7800 -0.6126 -0.6464
  173DOPC  C31621165   0.325   3.697   4.232  0.1395  0.4426 -0.2605
  173DOPC  H16X21166   0.380   3.605   4.261  0.2627  0.2393 -1.0995
  173DOPC  H16Y21167   0.315   3.768   4.316  0.9846 -1.0964  1.2012
  173DOPC  C31721168   0.173   3.665   4.204  0.2189  0.7067 -0.4995
  173DOPC  H17X21169   0.127   3.764   4.181 -2.1704  0.1128  1.2656
  173DOPC  H17Y21170   0.171   3.596   4.117  3.9638 -0.3782  0.0805
  173DOPC  C31821171   0.096   3.602   4.315 -0.3031 -0.9396 -0.5335
  173DOPC  H18X21172  -0.011   3.625   4.332  0.2507 -0.5365  2.9842
  173DOPC  H18Y21173   0.109   3.492   4.302 -0.8251 -1.1501  0.6635
  173DOPC  H18Z21174   0.147   3.623   4.411 -1.0914  3.0654 -0.8424
  174DOPC     N21175   3.378   3.558   2.500  0.0841  0.3511  0.2009
  174DOPC   C1221176   3.385   3.698   2.549  0.0166 -0.1925  0.0072
  174DOPC  H12A21177   3.477   3.710   2.604  0.6149 -1.3717 -0.6799
  174DOPC  H12B21178   3.310   3.721   2.622  1.2770 -0.8790  1.5891
  174DOPC   C1321179   3.322   3.460   2.597  0.1184 -0.6826  0.4830
  174DOPC  H13A21180   3.368   3.477   2.693 -1.2838 -0.5061  1.1643
  174DOPC  H13B21181   3.214   3.470   2.607  0.1742 -0.7996  1.3180
  174DOPC  H13C21182   3.338   3.365   2.550 -0.8262  0.2133 -1.7850
  174DOPC   C1421183   3.514   3.514   2.465 -0.0290  0.5488  0.0682
  174DOPC  H14A21184   3.556   3.579   2.390 -1.7552 -1.6102 -3.0042
  174DOPC  H14B21185   3.574   3.501   2.554  0.9232  0.5687 -0.5557
  174DOPC  H14C21186   3.504   3.416   2.422  2.4793  0.4057 -0.3366
  174DOPC   C1521187   3.299   3.554   2.371  0.3910  0.1626 -0.3878
  174DOPC  H15A21188   3.345   3.622   2.301  1.7805  0.1435  0.4832
  174DOPC  H15B21189   3.198   3.592   2.385  0.7229  0.7024  0.6317
  174DOPC  H15C21190   3.289   3.456   2.326 -3.4215  0.5275 -0.6727
  174DOPC   C1121191   3.388   3.820   2.447  0.0772 -0.8934 -0.1408
  174DOPC  H11A21192   3.283   3.843   2.420 -0.7088 -1.9981  1.7517
  174DOPC  H11B21193   3.425   3.905   2.508 -0.8715 -0.9661  0.5604
  174DOPC     P21194   3.598   3.860   2.303  0.2583  0.0913  0.1878
  174DOPC   O1321195   3.578   3.963   2.198 -0.7769  0.1010  0.2376
  174DOPC   O1421196   3.695   3.751   2.270  0.5424 -0.0088  0.8022
  174DOPC   O1221197   3.466   3.791   2.329  0.1640  0.1357 -0.1271
  174DOPC   O1121198   3.645   3.919   2.436 -0.0410 -0.2910 -0.5735
  174DOPC    C121199   3.743   4.022   2.430  0.1776  0.3118 -0.6709
  174DOPC    HA21200   3.699   4.112   2.381  1.2389  0.5608 -1.2094
  174DOPC    HB21201   3.835   4.006   2.370 -1.0733 -1.5769 -2.1940
  174DOPC    C221202   3.794   4.083   2.570  0.4061  0.8609  0.0561
  174DOPC    HS21203   3.839   4.182   2.544 -1.1763  0.8203 -3.3944
  174DOPC   O2121204   3.890   3.987   2.622 -0.0326 -0.1264 -0.4563
  174DOPC   C2121205   3.981   4.047   2.706 -0.1903  0.2936  0.2758
  174DOPC   O2221206   3.989   4.166   2.715  0.2279 -0.0790 -0.3734
  174DOPC   C2221207   4.075   3.939   2.759  0.7671 -0.1355 -0.1643
  174DOPC   H2R21208   4.094   3.866   2.678 -1.7058  1.6421 -2.5032
  174DOPC   H2S21209   4.017   3.883   2.835 -0.4458 -0.7352 -1.4985
  174DOPC    C321210   3.667   4.099   2.656 -0.0917  0.1563  0.4352
  174DOPC    HX21211   3.640   3.994   2.678  1.1184 -0.0218  1.2063
  174DOPC    HY21212   3.590   4.148   2.593  0.7499 -0.3677 -1.0342
  174DOPC   O3121213   3.692   4.180   2.775 -0.0710 -0.7106 -0.4668
  174DOPC   C3121214   3.710   4.116   2.890  0.7359 -0.0339  0.0018
  174DOPC   O3221215   3.708   3.997   2.901  0.6527  0.4119 -0.5101
  174DOPC   C3221216   3.745   4.210   3.008  0.0452  0.1312  0.8956
  174DOPC   H2X21217   3.855   4.217   3.010  0.1499 -1.1698  0.7532
  174DOPC   H2Y21218   3.716   4.316   2.993 -0.6097 -0.2284 -0.5516
  174DOPC   C2321219   4.212   3.983   2.825  0.3924  0.1792  0.6587
  174DOPC   H3R21220   4.188   4.068   2.892  0.4024  0.7587 -0.0606
  174DOPC   H3S21221   4.272   4.027   2.743 -2.1976 -0.3044 -1.6554
  174DOPC   C2421222   4.294   3.868   2.898  0.4985  0.3726  0.3915
  174DOPC   H4R21223   4.398   3.896   2.923  1.3249 -0.9488 -1.3574
  174DOPC   H4S21224   4.298   3.791   2.818 -0.7792  0.9198 -0.2421
  174DOPC   C2521225   4.232   3.810   3.025 -0.0335  0.4463  0.0437
  174DOPC   H5R21226   4.285   3.720   3.063  0.8275  1.0004  0.1841
  174DOPC   H5S21227   4.124   3.785   3.016 -0.0245  0.8204 -1.1836
  174DOPC   C2621228   4.216   3.918   3.130  0.5610 -0.4657  0.2668
  174DOPC   H6R21229   4.169   4.006   3.080 -2.3152 -1.2860  1.3238
  174DOPC   H6S21230   4.311   3.956   3.172 -0.7867  0.9185  2.2096
  174DOPC   C2721231   4.120   3.874   3.241 -0.7765 -0.2005  0.4660
  174DOPC   H7R21232   4.149   3.779   3.291 -0.3564 -0.0108  0.5867
  174DOPC   H7S21233   4.022   3.863   3.190 -0.0299 -0.3584 -0.9912
  174DOPC   C2821234   4.099   3.991   3.340  0.0396  0.6058 -0.1242
  174DOPC   H8R21235   4.060   4.080   3.286 -1.0593 -0.1068 -0.5488
  174DOPC   H8S21236   4.202   4.019   3.368 -0.3194  0.9107  0.9284
  174DOPC   C2921237   4.017   3.948   3.464 -0.0882 -0.5434 -0.2186
  174DOPC   H9R21238   3.923   3.906   3.426 -0.6772  1.5053 -1.2072
  174DOPC  C21021239   4.049   3.948   3.591 -0.0495  0.3067  0.0528
  174DOPC  H10R21240   3.996   3.886   3.666  0.8047  1.2295  1.4705
  174DOPC  C21121241   4.185   3.987   3.638 -0.0660 -0.4662  0.0823
  174DOPC  H11R21242   4.217   4.082   3.589  1.1831 -0.6753  0.4630
  174DOPC  H11S21243   4.262   3.911   3.612  0.7228 -0.5555  2.4193
  174DOPC  C21221244   4.175   4.004   3.789 -0.1809 -0.1179 -0.5284
  174DOPC  H12R21245   4.150   3.904   3.831 -2.5812  0.1913 -1.0319
  174DOPC  H12S21246   4.098   4.077   3.822  0.0849 -0.1160  0.0773
  174DOPC  C21321247   4.317   4.038   3.842 -0.1723 -0.6041  0.7196
  174DOPC  H13R21248   4.355   4.133   3.798  0.6397 -0.5308  1.5484
  174DOPC  H13S21249   4.390   3.956   3.825  2.1794  0.9334  2.6751
  174DOPC  C21421250   4.306   4.057   3.997  0.4144 -0.0683  1.2110
  174DOPC  H14R21251   4.323   3.954   4.035  1.3913 -0.9910 -1.4519
  174DOPC  H14S21252   4.208   4.109   4.009  0.4020  1.0194 -2.4088
  174DOPC  C21521253   4.413   4.156   4.044  0.0467  0.6425  0.4710
  174DOPC  H15R21254   4.413   4.236   3.967  3.0588  1.0914  0.8351
  174DOPC  H15S21255   4.516   4.114   4.042 -0.9769 -1.9753 -0.2716
  174DOPC  C21621256   4.383   4.199   4.191 -0.4195  0.1408 -0.2283
  174DOPC  H16R21257   4.405   4.106   4.248  2.1501 -0.8634 -2.6384
  174DOPC  H16S21258   4.276   4.226   4.204  0.1485  2.5985 -0.1411
  174DOPC  C21721259   4.469   4.307   4.253 -0.4229  0.1558  0.0703
  174DOPC  H17R21260   4.441   4.394   4.189 -1.9943 -1.4007 -1.4662
  174DOPC  H17S21261   4.579   4.296   4.239 -0.2510  3.2064 -1.9719
  174DOPC  C21821262   4.437   4.336   4.392 -0.3190 -0.3987  0.4506
  174DOPC  H18R21263   4.479   4.433   4.423  1.0003  0.2922 -3.0961
  174DOPC  H18S21264   4.469   4.255   4.461  3.1288  0.2195 -0.2612
  174DOPC  H18T21265   4.326   4.341   4.400 -0.3247 -1.2944  1.3516
  174DOPC   C3321266   3.692   4.154   3.141  0.1689  0.1940 -0.3565
  174DOPC   H3X21267   3.713   4.046   3.157 -0.5231  0.1786  0.5425
  174DOPC   H3Y21268   3.582   4.171   3.132  0.2168  1.2022  0.7750
  174DOPC   C3421269   3.735   4.232   3.259  0.3615 -0.1318  0.0055
  174DOPC   H4X21270   3.722   4.340   3.237  1.3954 -0.3232 -1.7625
  174DOPC   H4Y21271   3.843   4.208   3.272  0.2675 -1.3457 -1.2308
  174DOPC   C3521272   3.655   4.207   3.389 -0.1742 -0.0272  0.0131
  174DOPC   H5X21273   3.620   4.102   3.396 -0.5082  0.1574  1.5614
  174DOPC   H5Y21274   3.566   4.272   3.397 -0.0534  1.0293 -4.5387
  174DOPC   C3621275   3.751   4.214   3.509  0.6850 -0.6683  0.8264
  174DOPC   H6X21276   3.844   4.158   3.488  0.8975 -0.0200 -0.0141
  174DOPC   H6Y21277   3.787   4.318   3.526  2.4032 -0.8754 -1.2131
  174DOPC   C3721278   3.690   4.156   3.634  0.1449 -0.2703  0.4575
  174DOPC   H7X21279   3.591   4.199   3.660 -1.2233 -2.4119 -0.9005
  174DOPC   H7Y21280   3.655   4.055   3.604 -2.2076  0.8676 -0.8923
  174DOPC   C3821281   3.776   4.150   3.761 -0.3745 -0.4490  0.5876
  174DOPC   H8X21282   3.881   4.124   3.734  0.2891  1.2080  1.4320
  174DOPC   H8Y21283   3.743   4.062   3.820  2.1168 -1.2324  0.9421
  174DOPC   C3921284   3.790   4.279   3.833 -0.5459 -0.1545 -0.4338
  174DOPC   H9X21285   3.842   4.360   3.779 -0.2295  0.5387  0.8733
  174DOPC  C31021286   3.749   4.303   3.960  0.3466  0.2770  0.0250
  174DOPC  H10X21287   3.764   4.399   4.011 -0.1746 -0.8763  2.4626
  174DOPC  C31121288   3.668   4.210   4.045  0.3368 -0.2026 -0.5746
  174DOPC  H11X21289   3.626   4.115   4.006  0.9928 -0.5302 -0.5056
  174DOPC  H11Y21290   3.582   4.274   4.075  1.0479  0.7711 -0.5719
  174DOPC  C31221291   3.748   4.185   4.179  0.5134  1.3153  0.4780
  174DOPC  H12X21292   3.813   4.272   4.204  2.7889 -0.5453  1.4440
  174DOPC  H12Y21293   3.812   4.094   4.182  1.1252  1.7463  0.7374
  174DOPC  C31321294   3.657   4.179   4.302  0.8428 -0.3477 -0.3936
  174DOPC  H13X21295   3.602   4.275   4.311  1.0744 -0.3978  2.1265
  174DOPC  H13Y21296   3.585   4.095   4.287 -0.7348  0.0582  3.6842
  174DOPC  C31421297   3.724   4.134   4.431 -0.1169  0.0041 -0.4171
  174DOPC  H14X21298   3.652   4.095   4.506  1.0654  1.4154  1.5414
  174DOPC  H14Y21299   3.782   4.043   4.402 -0.6245 -0.8935  1.2395
  174DOPC  C31521300   3.815   4.243   4.493  0.4879  0.2164 -0.1228
  174DOPC  H15X21301   3.745   4.312   4.545 -1.6353 -0.3191 -2.0838
  174DOPC  H15Y21302   3.861   4.313   4.419 -0.8578  2.1540  0.7777
  174DOPC  C31621303   3.913   4.185   4.599  0.0475 -0.1360  0.6319
  174DOPC  H16X21304   3.873   4.123   4.682  0.8070 -0.4136  0.7969
  174DOPC  H16Y21305   3.959   4.108   4.534  1.7080  0.5305  0.9653
  174DOPC  C31721306   4.025   4.273   4.650 -0.1234  0.2857  0.4231
  174DOPC  H17X21307   4.101   4.293   4.572 -0.7223 -0.7126 -0.4478
  174DOPC  H17Y21308   3.972   4.367   4.674 -1.5470 -0.1456 -0.8923
  174DOPC  C31821309   4.104   4.205   4.765  0.0840 -0.6983 -0.0821
  174DOPC  H18X21310   4.041   4.194   4.856  0.6090  0.9683  0.5142
  174DOPC  H18Y21311   4.122   4.102   4.728 -1.6560  0.2360 -4.1511
  174DOPC  H18Z21312   4.190   4.271   4.790  0.1202 -1.0791  0.8100
  175DOPC     N21313   3.068   6.735   2.574 -0.0977 -0.1608  0.0299
  175DOPC   C1221314   2.980   6.774   2.688 -0.2156  0.0199 -0.0177
  175DOPC  H12A21315   2.879   6.735   2.680  0.6783 -1.9962 -3.3099
  175DOPC  H12B21316   2.980   6.882   2.680  3.3064  0.0357 -1.5797
  175DOPC   C1321317   3.014   6.790   2.440  0.0560  0.2910  0.1551
  175DOPC  H13A21318   3.081   6.786   2.355  0.8774 -0.2205  0.8014
  175DOPC  H13B21319   2.922   6.740   2.415 -0.2174  0.3528  0.9850
  175DOPC  H13C21320   2.995   6.895   2.454  1.5838  0.7386 -0.8789
  175DOPC   C1421321   3.083   6.586   2.567  0.4356 -0.2118  0.6329
  175DOPC  H14A21322   2.987   6.537   2.559  0.7656 -0.6056 -1.2248
  175DOPC  H14B21323   3.147   6.546   2.490 -0.1898 -0.8332  0.4187
  175DOPC  H14C21324   3.129   6.551   2.659 -2.8754 -0.1038  2.5071
  175DOPC   C1521325   3.207   6.804   2.577 -0.2981 -0.6675  0.1863
  175DOPC  H15A21326   3.278   6.769   2.650  0.3100  0.1509  0.0024
  175DOPC  H15B21327   3.186   6.909   2.593  1.1318 -0.4916  1.0710
  175DOPC  H15C21328   3.254   6.786   2.482 -1.0740 -1.0832 -0.1291
  175DOPC   C1121329   3.032   6.745   2.834  0.2079 -0.2226  0.5857
  175DOPC  H11A21330   3.131   6.791   2.852 -0.1169  0.0749  1.6955
  175DOPC  H11B21331   2.957   6.800   2.896 -0.0753 -2.3969  2.2840
  175DOPC     P21332   2.891   6.529   2.881  0.0112  0.3556  0.0260
  175DOPC   O1321333   2.888   6.420   2.776  0.3914 -0.2607 -0.1778
  175DOPC   O1421334   2.768   6.608   2.896 -0.3921  0.1444 -0.1138
  175DOPC   O1221335   3.033   6.608   2.857  0.2608  0.2341 -0.0215
  175DOPC   O1121336   2.911   6.458   3.020 -0.2396 -0.1040  0.3224
  175DOPC    C121337   3.010   6.360   3.031 -0.5505 -0.4721 -0.0585
  175DOPC    HA21338   3.081   6.347   2.946  0.5508  1.1679  0.5434
  175DOPC    HB21339   2.956   6.265   3.051  2.1918 -2.2236 -0.4363
  175DOPC    C221340   3.114   6.398   3.150  0.0894  0.0683  0.4050
  175DOPC    HS21341   3.061   6.385   3.247 -0.3108 -1.0888  0.0555
  175DOPC   O2121342   3.162   6.531   3.124 -0.0842  0.0359 -0.4087
  175DOPC   C2121343   3.096   6.629   3.196  0.3439 -0.0845  0.5425
  175DOPC   O2221344   2.996   6.604   3.266  0.0387 -0.4665  0.7065
  175DOPC   C2221345   3.163   6.762   3.175  0.1880  0.4569  0.0908
  175DOPC   H2R21346   3.103   6.848   3.139  2.7747  2.7126  0.7755
  175DOPC   H2S21347   3.236   6.749   3.092  0.1326 -1.6830  0.3295
  175DOPC    C321348   3.246   6.315   3.153 -0.2455  0.3655  0.2215
  175DOPC    HX21349   3.286   6.310   3.049 -0.7275  0.7355  0.0109
  175DOPC    HY21350   3.217   6.214   3.188 -0.0520  1.0312  2.4622
  175DOPC   O3121351   3.326   6.374   3.253 -0.5702 -0.5695  0.6248
  175DOPC   C3121352   3.435   6.441   3.213  0.2001  0.4729  0.0552
  175DOPC   O3221353   3.470   6.445   3.099  0.4529  0.2994 -0.3881
  175DOPC   C3221354   3.513   6.504   3.327 -0.2304  0.0454  0.0886
  175DOPC   H2X21355   3.514   6.615   3.337 -0.8756  0.0882 -0.2878
  175DOPC   H2Y21356   3.466   6.467   3.420 -0.7861 -0.0202 -0.2150
  175DOPC   C2321357   3.244   6.810   3.304  0.3832  0.0502  0.2138
  175DOPC   H3R21358   3.339   6.753   3.307  0.0353 -0.7609 -2.2212
  175DOPC   H3S21359   3.190   6.794   3.400 -1.3065 -1.0587 -0.8631
  175DOPC   C2421360   3.284   6.962   3.285  0.2437  1.2517  0.2840
  175DOPC   H4R21361   3.193   7.025   3.284 -0.9141 -0.2958  1.4934
  175DOPC   H4S21362   3.336   6.961   3.187 -1.4796  0.4946 -0.6623
  175DOPC   C2521363   3.379   7.015   3.394  0.6061 -0.1607  0.2220
  175DOPC   H5R21364   3.470   6.951   3.398 -0.1437 -1.1784  2.2987
  175DOPC   H5S21365   3.321   7.009   3.489 -1.2208  0.3593 -0.8204
  175DOPC   C2621366   3.413   7.165   3.369 -0.2883 -0.3881 -0.6381
  175DOPC   H6R21367   3.317   7.220   3.364  0.3387  0.7558 -0.6769
  175DOPC   H6S21368   3.463   7.188   3.272  0.3633  0.0228 -0.2135
  175DOPC   C2721369   3.489   7.222   3.484 -0.1025  0.3131  0.9436
  175DOPC   H7R21370   3.510   7.329   3.464 -1.3133  0.5857  1.0116
  175DOPC   H7S21371   3.590   7.177   3.493  0.2327  1.2113  1.7606
  175DOPC   C2821372   3.424   7.212   3.618  0.5977 -0.4779  0.1571
  175DOPC   H8R21373   3.436   7.106   3.651  1.1261 -0.3616  0.3507
  175DOPC   H8S21374   3.316   7.233   3.606  1.1032  0.9780 -2.5837
  175DOPC   C2921375   3.495   7.310   3.714  0.9258 -0.7899 -0.6635
  175DOPC   H9R21376   3.497   7.416   3.684 -1.7193 -0.2080  0.9232
  175DOPC  C21021377   3.552   7.278   3.831 -0.7304 -0.0459 -0.4421
  175DOPC  H10R21378   3.595   7.355   3.897 -1.4181  1.3537 -1.5787
  175DOPC  C21121379   3.557   7.147   3.906  0.0113  1.2012  0.4039
  175DOPC  H11R21380   3.652   7.091   3.893 -1.2864 -0.8939 -0.5417
  175DOPC  H11S21381   3.482   7.077   3.866  1.6604 -0.2306 -0.2785
  175DOPC  C21221382   3.533   7.157   4.060  0.3543  0.3910 -0.0214
  175DOPC  H12R21383   3.488   7.062   4.096 -1.9645  1.3136 -0.2772
  175DOPC  H12S21384   3.456   7.237   4.074 -2.0545 -1.9956  1.2390
  175DOPC  C21321385   3.664   7.179   4.137  0.4785 -0.6641  0.2997
  175DOPC  H13R21386   3.688   7.286   4.158 -0.9059 -0.0990 -0.8649
  175DOPC  H13S21387   3.754   7.139   4.086  1.1894 -1.3441  1.9797
  175DOPC  C21421388   3.650   7.116   4.277 -0.5398 -0.0491  0.7826
  175DOPC  H14R21389   3.642   7.006   4.263  3.1887 -0.1515 -1.9760
  175DOPC  H14S21390   3.553   7.153   4.317 -2.7623 -2.8706 -1.5857
  175DOPC  C21521391   3.754   7.177   4.376  0.1151  0.3982 -0.0438
  175DOPC  H15R21392   3.765   7.287   4.367  0.4226  0.3044 -0.9702
  175DOPC  H15S21393   3.848   7.125   4.347 -0.3195 -0.0297 -0.6926
  175DOPC  C21621394   3.725   7.136   4.523 -0.0173 -0.6896  0.3378
  175DOPC  H16R21395   3.719   7.025   4.514  2.0198 -0.7645 -0.8414
  175DOPC  H16S21396   3.629   7.174   4.562 -0.5645 -0.4553 -1.1675
  175DOPC  C21721397   3.831   7.187   4.627 -0.0948  0.1058  0.5236
  175DOPC  H17R21398   3.805   7.294   4.642  0.7712  0.2392  1.0908
  175DOPC  H17S21399   3.933   7.176   4.585 -0.8095 -2.1116 -0.7989
  175DOPC  C21821400   3.831   7.107   4.756  0.4214 -0.0337 -0.5081
  175DOPC  H18R21401   3.901   7.138   4.837 -0.6853  3.0552 -0.5868
  175DOPC  H18S21402   3.844   7.001   4.728  1.7069  0.2595 -1.1132
  175DOPC  H18T21403   3.728   7.123   4.796  0.8164 -0.1410  0.5910
  175DOPC   C3321404   3.657   6.449   3.318  0.3420 -0.6194 -0.4153
  175DOPC   H3X21405   3.700   6.483   3.221  0.4907  1.2417  0.2458
  175DOPC   H3Y21406   3.657   6.338   3.314  0.5692 -0.7181  1.5330
  175DOPC   C3421407   3.744   6.494   3.435 -0.9548  0.0138  0.9068
  175DOPC   H4X21408   3.740   6.605   3.433  0.1880  0.0767 -1.5175
  175DOPC   H4Y21409   3.848   6.478   3.397 -0.6414  2.3631  0.5668
  175DOPC   C3521410   3.720   6.415   3.563  0.4504 -0.1163 -0.3164
  175DOPC   H5X21411   3.716   6.305   3.544  0.6504 -0.5051  1.6736
  175DOPC   H5Y21412   3.623   6.437   3.612  0.4533 -1.3190  0.2654
  175DOPC   C3621413   3.827   6.444   3.664 -0.1573  0.4613  0.6017
  175DOPC   H6X21414   3.925   6.462   3.614 -0.2834  0.9457  0.5282
  175DOPC   H6Y21415   3.805   6.540   3.715  0.2210  1.3815 -0.9139
  175DOPC   C3721416   3.847   6.332   3.768  0.1664 -0.2593  0.2510
  175DOPC   H7X21417   3.813   6.236   3.725  0.8665 -0.5772  0.3873
  175DOPC   H7Y21418   3.957   6.331   3.787 -0.1439 -0.6863  2.2723
  175DOPC   C3821419   3.761   6.356   3.893  0.2571 -0.4546  0.0345
  175DOPC   H8X21420   3.660   6.370   3.848 -0.0934 -2.3352  0.1657
  175DOPC   H8Y21421   3.780   6.456   3.937  1.1020 -0.0771 -1.1515
  175DOPC   C3921422   3.768   6.256   4.006 -0.1214 -0.2922  0.2556
  175DOPC   H9X21423   3.709   6.165   3.993 -0.2893 -0.2286  0.5665
  175DOPC  C31021424   3.843   6.269   4.123  0.4269  0.4183  0.0625
  175DOPC  H10X21425   3.834   6.195   4.204 -0.4335 -0.5613 -0.8903
  175DOPC  C31121426   3.934   6.386   4.160  0.0515 -0.0402  0.4241
  175DOPC  H11X21427   3.964   6.409   4.265  0.3302  0.5667  0.2143
  175DOPC  H11Y21428   3.894   6.483   4.123  1.5216  0.7086  0.7228
  175DOPC  C31221429   4.075   6.358   4.097 -0.5738  0.0804  0.4875
  175DOPC  H12X21430   4.063   6.305   4.000 -2.0763  0.5252  0.4065
  175DOPC  H12Y21431   4.131   6.287   4.161  2.9661  0.6476 -1.7053
  175DOPC  C31321432   4.153   6.485   4.066 -0.2013 -0.3356 -0.0636
  175DOPC  H13X21433   4.103   6.540   3.984  2.4054  0.2211 -1.3906
  175DOPC  H13Y21434   4.153   6.566   4.142  1.6542  0.3016 -0.6883
  175DOPC  C31421435   4.300   6.462   4.021 -0.0810 -0.7473 -0.5195
  175DOPC  H14X21436   4.313   6.374   3.954 -1.5808 -0.5608 -1.0961
  175DOPC  H14Y21437   4.342   6.552   3.972  1.7647 -1.3095 -0.0426
  175DOPC  C31521438   4.394   6.457   4.135 -0.3647  0.0083  0.0238
  175DOPC  H15X21439   4.384   6.359   4.186 -1.1058  0.4502  0.7536
  175DOPC  H15Y21440   4.374   6.538   4.209  0.0081 -0.3962  0.5835
  175DOPC  C31621441   4.539   6.472   4.086  0.3824  0.3923  0.0392
  175DOPC  H16X21442   4.547   6.399   4.003 -1.0300  0.5736 -0.2792
  175DOPC  H16Y21443   4.549   6.576   4.047  1.0731  0.9977  1.7049
  175DOPC  C31721444   4.653   6.471   4.187  0.2763 -0.1572 -0.5361
  175DOPC  H17X21445   4.642   6.381   4.252  1.7863  0.2138  0.2834
  175DOPC  H17Y21446   4.745   6.461   4.126 -0.6745 -0.9118 -1.9027
  175DOPC  C31821447   4.668   6.596   4.276 -0.3805 -0.3323  0.9465
  175DOPC  H18X21448   4.578   6.638   4.325 -1.1673 -2.3492  1.3250
  175DOPC  H18Y21449   4.753   6.590   4.347 -0.0471  0.9533  0.6760
  175DOPC  H18Z21450   4.703   6.676   4.207  1.6025 -0.9704  1.1320
  176DOPC     N21451   2.281   1.679   2.580 -0.0006 -0.3834 -0.0711
  176DOPC   C1221452   2.289   1.611   2.711  0.4435  0.4036  0.0165
  176DOPC  H12A21453   2.392   1.602   2.739  0.0531 -2.6785  0.8036
  176DOPC  H12B21454   2.258   1.509   2.698 -1.6311  0.7630  1.5961
  176DOPC   C1321455   2.145   1.695   2.535 -0.4111 -0.4960 -0.6257
  176DOPC  H13A21456   2.082   1.730   2.615  0.3493  0.5955 -0.4738
  176DOPC  H13B21457   2.123   1.756   2.448 -0.5291  1.4537  0.6936
  176DOPC  H13C21458   2.103   1.596   2.529  0.7981 -1.1896  1.5457
  176DOPC   C1421459   2.360   1.612   2.476 -0.3118  0.3583  0.4098
  176DOPC  H14A21460   2.317   1.515   2.456  1.6148 -0.6351  0.8491
  176DOPC  H14B21461   2.356   1.669   2.385 -1.8000 -1.6061 -0.8509
  176DOPC  H14C21462   2.463   1.592   2.503 -0.1736  0.8176  0.2233
  176DOPC   C1521463   2.337   1.824   2.597  0.8271  0.6898 -0.4374
  176DOPC  H15A21464   2.322   1.879   2.506 -1.7645  0.0032 -0.4851
  176DOPC  H15B21465   2.444   1.823   2.613  0.6507  0.1024  0.8926
  176DOPC  H15C21466   2.285   1.881   2.673  1.5384 -1.2272  1.6156
  176DOPC   C1121467   2.203   1.674   2.831 -0.4726 -1.1234  0.1731
  176DOPC  H11A21468   2.226   1.621   2.925  0.6544 -1.4870 -0.2898
  176DOPC  H11B21469   2.242   1.779   2.833  0.2566 -1.3853  0.0101
  176DOPC     P21470   1.990   1.534   2.838 -0.0207  0.0284  0.2279
  176DOPC   O1321471   2.076   1.423   2.787 -0.3829 -0.0714  0.0976
  176DOPC   O1421472   1.845   1.537   2.809  0.4533 -0.1533  0.1420
  176DOPC   O1221473   2.064   1.667   2.790  0.1420  0.5786 -0.3605
  176DOPC   O1121474   2.007   1.554   2.995  0.1169 -0.1728 -0.1046
  176DOPC    C121475   1.957   1.461   3.090  0.0312  0.0955 -0.2760
  176DOPC    HA21476   1.954   1.358   3.048  1.7814  0.7563 -2.2250
  176DOPC    HB21477   1.853   1.488   3.118  0.5027  0.8626  0.7945
  176DOPC    C221478   2.043   1.457   3.224  1.2542 -0.1416  0.2841
  176DOPC    HS21479   2.128   1.388   3.202 -0.7138 -2.3467 -0.9479
  176DOPC   O2121480   1.953   1.413   3.331  0.0588 -0.5951  0.0069
  176DOPC   C2121481   2.009   1.357   3.428  0.6263 -0.0089  0.7490
  176DOPC   O2221482   2.124   1.317   3.437 -0.4308 -0.2748  0.2253
  176DOPC   C2221483   1.903   1.333   3.543 -0.3398  0.4065 -0.2706
  176DOPC   H2R21484   1.942   1.256   3.613  1.9275  0.6195 -1.1907
  176DOPC   H2S21485   1.814   1.288   3.494 -0.2957 -1.5646  1.3122
  176DOPC    C321486   2.085   1.603   3.253 -0.2029  0.2782  0.3071
  176DOPC    HX21487   1.997   1.670   3.246  0.6357  1.3924  0.0561
  176DOPC    HY21488   2.140   1.650   3.169 -1.8129  1.2606 -0.2403
  176DOPC   O3121489   2.152   1.626   3.378  0.0757  0.5397  0.6631
  176DOPC   C3121490   2.282   1.585   3.384 -0.2863 -0.0433  0.0389
  176DOPC   O3221491   2.347   1.546   3.290  0.0485  0.4740  0.0976
  176DOPC   C3221492   2.344   1.589   3.526  0.0367  0.1455 -0.1836
  176DOPC   H2X21493   2.356   1.693   3.564 -1.5451 -0.0502  0.9505
  176DOPC   H2Y21494   2.267   1.537   3.587 -1.1998  1.4252 -0.5976
  176DOPC   C2321495   1.864   1.463   3.619  0.3861 -0.6575 -0.6388
  176DOPC   H3R21496   1.792   1.430   3.697  1.6503 -0.9033  0.4415
  176DOPC   H3S21497   1.801   1.529   3.556 -0.8580 -0.8078  0.4058
  176DOPC   C2421498   1.980   1.532   3.682  0.1359 -0.2120 -0.9053
  176DOPC   H4R21499   1.930   1.608   3.747 -1.2612 -1.9383  0.1417
  176DOPC   H4S21500   2.045   1.581   3.607  0.3754  0.7837 -0.0772
  176DOPC   C2521501   2.062   1.450   3.781  0.7050 -0.5200  0.1158
  176DOPC   H5R21502   2.136   1.382   3.732 -1.2653 -1.8747 -1.1553
  176DOPC   H5S21503   1.998   1.382   3.841  1.5623  0.8192  2.7012
  176DOPC   C2621504   2.131   1.540   3.883  0.0574  0.6385 -0.1238
  176DOPC   H6R21505   2.202   1.609   3.832  0.7473 -0.0538 -0.1049
  176DOPC   H6S21506   2.191   1.466   3.938 -0.4011  0.1136 -0.3123
  176DOPC   C2721507   2.040   1.619   3.979  0.8115  0.1352  0.3381
  176DOPC   H7R21508   1.955   1.556   4.011  1.7245 -0.2328  2.1730
  176DOPC   H7S21509   1.994   1.708   3.931 -0.4523 -0.9131 -0.4585
  176DOPC   C2821510   2.110   1.655   4.104 -0.4177 -0.2461 -0.4541
  176DOPC   H8R21511   2.197   1.718   4.077 -0.3295  0.1202  0.6532
  176DOPC   H8S21512   2.150   1.565   4.156 -0.0271 -1.0431 -2.0560
  176DOPC   C2921513   2.018   1.719   4.202 -0.5889 -0.0015 -0.7836
  176DOPC   H9R21514   1.978   1.804   4.145  0.0926  0.2713 -0.8608
  176DOPC  C21021515   1.997   1.698   4.336 -0.2049  0.3696  0.0995
  176DOPC  H10R21516   1.923   1.762   4.385 -0.3973  1.7358 -1.8654
  176DOPC  C21121517   2.058   1.587   4.416 -0.2258 -0.6482 -0.2088
  176DOPC  H11R21518   2.159   1.562   4.377 -0.0959  0.9441 -0.9619
  176DOPC  H11S21519   1.990   1.500   4.403 -0.6907 -1.3085  4.6782
  176DOPC  C21221520   2.081   1.630   4.558  0.0479  0.0447  0.1324
  176DOPC  H12R21521   2.142   1.723   4.562 -1.7427  1.2772  0.2848
  176DOPC  H12S21522   2.146   1.558   4.611 -0.3564  0.8435  1.7976
  176DOPC  C21321523   1.961   1.650   4.649  0.0616 -0.2170 -0.5965
  176DOPC  H13R21524   1.886   1.721   4.608 -0.2894  0.1956  0.7035
  176DOPC  H13S21525   1.996   1.705   4.739 -0.5035 -0.8120  0.0050
  176DOPC  C21421526   1.898   1.518   4.699 -0.7436 -0.7703 -0.8716
  176DOPC  H14R21527   1.974   1.438   4.712 -1.0418 -0.6250  2.7879
  176DOPC  H14S21528   1.823   1.502   4.619 -0.0415  0.1312 -1.7396
  176DOPC  C21521529   1.827   1.533   4.832  0.0871 -0.1899  0.1973
  176DOPC  H15R21530   1.758   1.620   4.830  0.8807  0.4749  0.6062
  176DOPC  H15S21531   1.896   1.560   4.915 -0.0453  0.9436 -0.0386
  176DOPC  C21621532   1.755   1.404   4.884  0.3618  0.0590  0.3867
  176DOPC  H16R21533   1.671   1.383   4.815  2.0496  0.3128 -1.8767
  176DOPC  H16S21534   1.704   1.417   4.982 -1.1460  0.5286 -0.4351
  176DOPC  C21721535   1.838   1.278   4.909  0.3543 -0.0096 -0.1212
  176DOPC  H17R21536   1.907   1.308   4.991 -1.5727  1.9117  0.8878
  176DOPC  H17S21537   1.903   1.259   4.821 -0.0799  1.1186 -0.7052
  176DOPC  C21821538   1.754   1.159   4.943 -0.0912 -0.6160  0.0482
  176DOPC  H18R21539   1.687   1.171   5.031  0.4658 -4.7182  1.2421
  176DOPC  H18S21540   1.809   1.067   4.974  0.1673 -0.2211  0.7744
  176DOPC  H18T21541   1.688   1.123   4.861  1.0916 -1.1281 -0.6972
  176DOPC   C3321542   2.474   1.511   3.540 -0.1558  0.4026  0.5519
  176DOPC   H3X21543   2.556   1.576   3.502 -2.0485  2.7512  0.2901
  176DOPC   H3Y21544   2.463   1.418   3.479 -0.8172  0.7956  0.0666
  176DOPC   C3421545   2.499   1.465   3.685 -0.2816 -0.0691  0.0647
  176DOPC   H4X21546   2.596   1.411   3.679  1.0633  2.2355  0.0049
  176DOPC   H4Y21547   2.420   1.389   3.703  0.3096 -0.9940 -1.0998
  176DOPC   C3521548   2.515   1.576   3.791 -0.4433 -0.5326 -0.1764
  176DOPC   H5X21549   2.423   1.638   3.789 -0.1879 -0.1653 -0.5333
  176DOPC   H5Y21550   2.595   1.643   3.756 -1.3712  0.0718 -1.1883
  176DOPC   C3621551   2.527   1.521   3.934 -0.5340 -0.5296  0.2560
  176DOPC   H6X21552   2.429   1.470   3.944 -0.4629 -0.5441  0.9936
  176DOPC   H6Y21553   2.601   1.439   3.944  1.0282  0.9511  1.5805
  176DOPC   C3721554   2.554   1.628   4.045 -0.0653  0.3789 -0.5313
  176DOPC   H7X21555   2.640   1.691   4.014  2.8459 -1.6678  2.6251
  176DOPC   H7Y21556   2.468   1.698   4.054 -1.0229 -1.0416  2.7255
  176DOPC   C3821557   2.578   1.574   4.187  0.5740  1.2052  0.7721
  176DOPC   H8X21558   2.604   1.657   4.257  0.5215  1.2148  0.7798
  176DOPC   H8Y21559   2.667   1.507   4.192 -1.5749 -1.7636  1.4798
  176DOPC   C3921560   2.454   1.502   4.246  0.2556  0.2657 -0.0182
  176DOPC   H9X21561   2.382   1.455   4.178 -1.2211  0.8589  1.0685
  176DOPC  C31021562   2.433   1.479   4.377 -0.2292 -0.8564  0.2137
  176DOPC  H10X21563   2.360   1.403   4.411 -0.6496  0.0561  1.4303
  176DOPC  C31121564   2.523   1.530   4.483 -0.1263 -0.1513 -0.0603
  176DOPC  H11X21565   2.616   1.573   4.439  1.0653 -3.4594 -1.1240
  176DOPC  H11Y21566   2.538   1.441   4.548 -1.4804 -1.6062 -1.6417
  176DOPC  C31221567   2.447   1.640   4.569 -0.2514  0.2963  0.6113
  176DOPC  H12X21568   2.343   1.603   4.586 -0.7920 -0.6459 -3.5084
  176DOPC  H12Y21569   2.444   1.721   4.492  0.0548 -2.6385 -2.7703
  176DOPC  C31321570   2.523   1.692   4.688 -0.0250  0.3199 -0.1295
  176DOPC  H13X21571   2.618   1.736   4.652 -0.3463  0.4812 -0.8162
  176DOPC  H13Y21572   2.461   1.765   4.743 -0.4991 -0.0582 -0.1431
  176DOPC  C31421573   2.539   1.579   4.801 -0.2413 -0.2562  0.3878
  176DOPC  H14X21574   2.437   1.549   4.833  0.0617  0.2346  1.9037
  176DOPC  H14Y21575   2.601   1.499   4.756  0.1380 -0.0255  0.4952
  176DOPC  C31521576   2.618   1.644   4.924  0.8431  0.7962  0.2510
  176DOPC  H15X21577   2.727   1.655   4.906  1.4618 -1.3341  2.1863
  176DOPC  H15Y21578   2.611   1.577   5.012  0.6621 -0.1114 -0.4375
  176DOPC  C31621579   2.551   1.769   4.973 -0.2277 -0.1283  0.1029
  176DOPC  H16X21580   2.576   1.864   4.921  2.0899  0.3387  1.8915
  176DOPC  H16Y21581   2.442   1.751   4.967 -0.2144  0.3295 -2.7249
  176DOPC  C31721582   2.587   1.797   5.124  0.3062 -0.1896 -0.1293
  176DOPC  H17X21583   2.550   1.722   5.196  2.2925  0.1961  1.4009
  176DOPC  H17Y21584   2.696   1.786   5.145  0.0531 -1.6667  0.4678
  176DOPC  C31821585   2.554   1.942   5.167 -0.4858 -0.2076  0.1797
  176DOPC  H18X21586   2.590   1.966   5.270  2.0284  0.2135 -0.7329
  176DOPC  H18Y21587   2.617   2.003   5.099 -0.0269 -0.9398 -0.0697
  176DOPC  H18Z21588   2.445   1.959   5.156 -0.2309  1.9677  0.5473
  177DOPC     N21589   4.915   5.495   1.464  0.0340  0.1633 -0.3226
  177DOPC   C1221590   5.046   5.434   1.509  0.2044  0.4258  0.0735
  177DOPC  H12A21591   5.124   5.450   1.437 -2.3906  2.4839 -2.5629
  177DOPC  H12B21592   5.028   5.328   1.512 -2.2896  0.7795  0.3483
  177DOPC   C1321593   4.901   5.483   1.318  0.0891 -0.4120  0.1460
  177DOPC  H13A21594   4.888   5.378   1.299 -2.5352 -0.1391  0.1135
  177DOPC  H13B21595   4.815   5.540   1.286  0.2981  0.9845  1.9386
  177DOPC  H13C21596   4.990   5.524   1.273  1.1761  0.8388  3.1612
  177DOPC   C1421597   4.916   5.639   1.508  0.2806 -0.1291  0.4525
  177DOPC  H14A21598   4.982   5.697   1.444  1.7247 -1.0319  1.0847
  177DOPC  H14B21599   4.824   5.689   1.481  0.8825  0.0512 -1.4236
  177DOPC  H14C21600   4.937   5.644   1.613 -0.4148 -0.5067  0.6151
  177DOPC   C1521601   4.788   5.430   1.524 -0.9810 -0.0231 -0.4149
  177DOPC  H15A21602   4.797   5.430   1.632 -1.3208  0.1103 -0.3861
  177DOPC  H15B21603   4.777   5.327   1.493  1.1984 -1.0798  1.9036
  177DOPC  H15C21604   4.704   5.485   1.486  0.0236  1.3348 -0.7654
  177DOPC   C1121605   5.112   5.477   1.635  1.2525 -0.3235 -0.1368
  177DOPC  H11A21606   5.211   5.428   1.643  1.5268  0.4286  1.5386
  177DOPC  H11B21607   5.131   5.586   1.637  1.2560 -0.2943 -1.1973
  177DOPC     P21608   5.066   5.325   1.835 -0.3081  0.4282 -0.0095
  177DOPC   O1321609   5.100   5.205   1.754 -0.1637  0.0937 -0.2442
  177DOPC   O1421610   4.951   5.312   1.922  0.1473 -0.0607  0.4788
  177DOPC   O1221611   5.023   5.440   1.743  0.0511 -0.5208 -0.4496
  177DOPC   O1121612   5.190   5.385   1.925 -0.0815 -0.1655  0.6030
  177DOPC    C121613   5.178   5.513   1.973 -0.0407 -0.1487 -0.5673
  177DOPC    HA21614   5.099   5.530   2.049  1.3432  0.8700  0.7184
  177DOPC    HB21615   5.145   5.584   1.895  1.0115  1.2157  0.1776
  177DOPC    C221616   5.295   5.573   2.058 -0.6250  0.3997  0.2168
  177DOPC    HS21617   5.379   5.563   1.987 -0.5265  1.0622  0.2334
  177DOPC   O2121618   5.313   5.486   2.173 -0.4210  0.4413  0.0476
  177DOPC   C2121619   5.429   5.421   2.180 -0.2194  0.0792  0.2452
  177DOPC   O2221620   5.523   5.435   2.102 -0.0461 -0.4554  0.2944
  177DOPC   C2221621   5.433   5.338   2.304  0.1887 -0.1663 -0.7659
  177DOPC   H2R21622   5.533   5.336   2.352 -0.7805  2.9678  1.7616
  177DOPC   H2S21623   5.402   5.233   2.288  0.5397 -0.3125 -0.5013
  177DOPC    C321624   5.284   5.720   2.085  0.0497  0.1956 -0.4342
  177DOPC    HX21625   5.262   5.775   1.991 -1.3661 -0.7082 -0.6650
  177DOPC    HY21626   5.378   5.773   2.111 -0.6326  0.1601  2.3958
  177DOPC   O3121627   5.179   5.748   2.186 -0.3193 -0.1511  0.4881
  177DOPC   C3121628   5.224   5.725   2.306  0.0063 -0.0717  0.5180
  177DOPC   O3221629   5.340   5.700   2.337 -0.3361 -0.0246 -0.0254
  177DOPC   C3221630   5.109   5.758   2.402 -0.1652 -0.1331  0.1761
  177DOPC   H2X21631   5.069   5.857   2.372 -0.8383 -0.6910 -0.8353
  177DOPC   H2Y21632   5.029   5.681   2.398  0.3498 -0.6408 -0.7113
  177DOPC   C2321633   5.361   5.400   2.423  1.0784 -0.1365 -0.0873
  177DOPC   H3R21634   5.265   5.449   2.399  2.6806  3.5323  0.3966
  177DOPC   H3S21635   5.417   5.478   2.478 -0.4034 -0.5517  2.1770
  177DOPC   C2421636   5.332   5.295   2.526 -0.0368  0.3117  0.8039
  177DOPC   H4R21637   5.408   5.214   2.520 -0.6899 -0.2805  0.2238
  177DOPC   H4S21638   5.240   5.239   2.495  0.6415  1.0245 -3.0690
  177DOPC   C2521639   5.332   5.338   2.672 -0.3514 -0.7315  0.8383
  177DOPC   H5R21640   5.257   5.418   2.688  0.3768  0.3689 -0.9125
  177DOPC   H5S21641   5.434   5.373   2.698 -0.7116  0.0226  1.2659
  177DOPC   C2621642   5.287   5.234   2.773  0.1606  0.0355  0.2660
  177DOPC   H6R21643   5.363   5.153   2.784  1.9487  1.8511  2.2539
  177DOPC   H6S21644   5.198   5.190   2.723  0.0337  0.7128 -0.1159
  177DOPC   C2721645   5.242   5.286   2.907 -0.0990 -0.5966  0.2279
  177DOPC   H7R21646   5.176   5.208   2.951 -1.6705  0.9618  0.7609
  177DOPC   H7S21647   5.172   5.371   2.887  0.2664 -0.1196  0.9293
  177DOPC   C2821648   5.360   5.332   2.995  0.2252 -0.4188  0.0930
  177DOPC   H8R21649   5.433   5.389   2.933  1.2231  0.0786  1.6447
  177DOPC   H8S21650   5.422   5.241   3.015  0.9802 -0.3539 -1.7675
  177DOPC   C2921651   5.318   5.419   3.106 -0.1246 -0.6581  0.3064
  177DOPC   H9R21652   5.262   5.509   3.079 -0.1373  0.1983  2.9059
  177DOPC  C21021653   5.360   5.415   3.236  0.7539 -0.2549  1.0276
  177DOPC  H10R21654   5.316   5.495   3.296 -0.1387 -0.0861  0.1788
  177DOPC  C21121655   5.454   5.320   3.297 -0.6575  0.1380  0.2139
  177DOPC  H11R21656   5.540   5.381   3.336  3.7706 -3.7050 -2.4717
  177DOPC  H11S21657   5.499   5.256   3.219  0.0121  0.5529  0.2417
  177DOPC  C21221658   5.398   5.227   3.410  0.7207  0.5021 -0.8599
  177DOPC  H12R21659   5.299   5.183   3.385 -0.2191  3.2825 -2.4494
  177DOPC  H12S21660   5.379   5.289   3.501 -0.4560 -1.0206 -0.0235
  177DOPC  C21321661   5.497   5.113   3.448 -0.7002  0.5510  0.3774
  177DOPC  H13R21662   5.535   5.051   3.364 -0.2265 -0.0364  1.0098
  177DOPC  H13S21663   5.458   5.036   3.518 -1.7757  1.4917  0.8480
  177DOPC  C21421664   5.622   5.179   3.514 -0.2496 -0.0435 -0.3208
  177DOPC  H14R21665   5.589   5.261   3.580  0.4836  0.6408 -0.7918
  177DOPC  H14S21666   5.689   5.218   3.434  0.7441 -1.6307 -0.3346
  177DOPC  C21521667   5.709   5.084   3.604 -0.2436 -0.6733 -0.0419
  177DOPC  H15R21668   5.786   5.137   3.663 -0.3711 -1.3731  0.7704
  177DOPC  H15S21669   5.772   5.020   3.538  1.6877 -0.5931  1.6035
  177DOPC  C21621670   5.641   4.983   3.702 -0.2433  0.6217  0.5203
  177DOPC  H16R21671   5.725   4.937   3.759  0.9918  0.7043 -1.1607
  177DOPC  H16S21672   5.586   4.909   3.641 -0.8745  0.9504  0.6866
  177DOPC  C21721673   5.543   5.037   3.803  0.3723  0.1986 -0.2347
  177DOPC  H17R21674   5.470   5.105   3.754 -0.2325  1.8893  2.7885
  177DOPC  H17S21675   5.599   5.099   3.876  0.9292  0.4946 -0.8935
  177DOPC  C21821676   5.469   4.928   3.877 -0.0947  0.7422  0.8738
  177DOPC  H18R21677   5.384   4.971   3.936 -0.7050  1.3757 -0.4239
  177DOPC  H18S21678   5.543   4.870   3.936  0.3742 -1.8297 -2.0317
  177DOPC  H18T21679   5.426   4.857   3.803 -0.6024  0.2547  1.6232
  177DOPC   C3321680   5.148   5.774   2.557 -0.8430 -0.1960 -0.2185
  177DOPC   H3X21681   5.207   5.867   2.567  0.2750 -1.0838  2.2734
  177DOPC   H3Y21682   5.210   5.686   2.586 -0.7279 -0.4376 -1.1677
  177DOPC   C3421683   5.028   5.797   2.655  0.4323  0.4991  0.7080
  177DOPC   H4X21684   4.969   5.703   2.657  0.7842  0.2630  0.0694
  177DOPC   H4Y21685   4.972   5.885   2.616  0.8146 -0.7133 -2.8485
  177DOPC   C3521686   5.065   5.849   2.802  0.2027 -0.2568 -0.2086
  177DOPC   H5X21687   5.099   5.769   2.871  0.0806 -0.7175 -0.6710
  177DOPC   H5Y21688   4.972   5.900   2.836  0.7843  1.6073 -1.2707
  177DOPC   C3621689   5.174   5.967   2.797  0.1755 -0.1524 -0.4272
  177DOPC   H6X21690   5.271   5.918   2.773 -0.5209 -1.5869 -0.4304
  177DOPC   H6Y21691   5.151   6.020   2.702  2.6010 -0.8196 -1.4739
  177DOPC   C3721692   5.175   6.073   2.909  0.3305 -0.8046 -0.2087
  177DOPC   H7X21693   5.245   6.151   2.874 -2.1965  1.2868 -0.8722
  177DOPC   H7Y21694   5.074   6.118   2.915  0.8908  0.3070  3.3767
  177DOPC   C3821695   5.214   6.006   3.049  1.1681 -0.9951  0.1285
  177DOPC   H8X21696   5.130   5.946   3.090  0.2919  1.2473  1.8820
  177DOPC   H8Y21697   5.215   6.091   3.122  0.8518  0.9796 -2.0411
  177DOPC   C3921698   5.351   5.943   3.051  0.7488  0.0288 -0.0917
  177DOPC   H9X21699   5.353   5.856   2.984  0.6066  0.2032 -0.3265
  177DOPC  C31021700   5.468   5.989   3.089  0.0493 -0.3579  0.1115
  177DOPC  H10X21701   5.553   5.920   3.096  0.2526 -0.3400 -1.7195
  177DOPC  C31121702   5.475   6.117   3.161 -0.5751  0.1570  0.3374
  177DOPC  H11X21703   5.413   6.115   3.253  0.9868  2.5578  1.5644
  177DOPC  H11Y21704   5.432   6.195   3.095  1.3477 -1.0052 -2.4944
  177DOPC  C31221705   5.617   6.160   3.193 -0.0721 -0.2668 -0.8120
  177DOPC  H12X21706   5.679   6.095   3.258  1.0496  0.5364 -1.0532
  177DOPC  H12Y21707   5.614   6.254   3.252  0.8292  0.2831 -1.5994
  177DOPC  C31321708   5.694   6.197   3.066 -0.4886 -0.2160  0.5909
  177DOPC  H13X21709   5.710   6.102   3.011 -1.9821  0.0238 -0.2954
  177DOPC  H13Y21710   5.632   6.262   3.000  0.2252 -1.8288 -1.7760
  177DOPC  C31421711   5.836   6.259   3.090  0.3500 -0.5160  0.2987
  177DOPC  H14X21712   5.817   6.336   3.168 -1.6104  1.2822 -1.8140
  177DOPC  H14Y21713   5.907   6.179   3.120  1.9581  0.1863 -1.4225
  177DOPC  C31521714   5.891   6.325   2.966 -0.5920 -0.6745  0.7182
  177DOPC  H15X21715   5.831   6.408   2.923  0.1191 -0.4155  0.1952
  177DOPC  H15Y21716   5.898   6.244   2.890  2.0829 -1.4791  1.6884
  177DOPC  C31621717   6.042   6.380   2.993  0.7205  0.2630 -0.3354
  177DOPC  H16X21718   6.080   6.285   3.036  1.4627  0.2811 -0.9402
  177DOPC  H16Y21719   6.098   6.420   2.906  0.6243  1.8622  0.3047
  177DOPC  C31721720   6.056   6.483   3.108  0.4501  0.1604 -0.1526
  177DOPC  H17X21721   5.988   6.569   3.091  1.3489  1.0990  0.7642
  177DOPC  H17Y21722   6.017   6.433   3.199 -2.5216  0.6882 -1.0435
  177DOPC  C31821723   6.196   6.524   3.126  0.4988  0.1090 -0.0956
  177DOPC  H18X21724   6.264   6.449   3.171 -1.3626 -1.8321 -0.3434
  177DOPC  H18Y21725   6.239   6.550   3.027 -0.3247  0.7743 -0.2866
  177DOPC  H18Z21726   6.204   6.615   3.189 -0.7169  0.6519 -0.6981
  178DOPC     N21727   2.547   6.297   2.955  0.3083  0.6999  0.8117
  178DOPC   C1221728   2.541   6.420   3.037 -0.0175  0.6984  0.1851
  178DOPC  H12A21729   2.640   6.462   3.042  0.3671 -0.2813  1.0897
  178DOPC  H12B21730   2.523   6.395   3.140 -0.1998 -0.4338 -0.1104
  178DOPC   C1321731   2.420   6.222   2.988 -0.0361 -0.1588  0.6851
  178DOPC  H13A21732   2.334   6.258   2.933  1.7222 -1.4886 -3.2762
  178DOPC  H13B21733   2.429   6.120   2.954 -0.1876  0.0133  0.1137
  178DOPC  H13C21734   2.409   6.220   3.095  1.9703  0.3008  0.9429
  178DOPC   C1421735   2.659   6.210   3.005 -0.0077  0.0927 -0.1589
  178DOPC  H14A21736   2.751   6.267   2.998  1.0039 -1.3026  0.9587
  178DOPC  H14B21737   2.643   6.183   3.109  0.1015  0.6485  0.0039
  178DOPC  H14C21738   2.662   6.121   2.944 -0.3862  0.2083 -0.3477
  178DOPC   C1521739   2.560   6.321   2.801 -0.9674  0.0333 -0.0295
  178DOPC  H15A21740   2.656   6.366   2.780 -1.1924  0.5742  0.0811
  178DOPC  H15B21741   2.481   6.386   2.766  0.0079  1.2444 -0.0469
  178DOPC  H15C21742   2.561   6.232   2.739  0.3456  1.5144 -2.2398
  178DOPC   C1121743   2.432   6.526   3.000 -0.2434 -0.6447  0.1252
  178DOPC  H11A21744   2.461   6.608   3.069  1.1115 -0.4907 -0.5969
  178DOPC  H11B21745   2.442   6.561   2.895 -0.0670 -0.1128  0.3159
  178DOPC     P21746   2.205   6.543   3.139 -0.2951 -0.1916  0.4846
  178DOPC   O1321747   2.121   6.433   3.180  0.3091  0.9027 -0.1074
  178DOPC   O1421748   2.137   6.660   3.080  0.5759 -0.2312  0.1258
  178DOPC   O1221749   2.298   6.479   3.026 -0.0900  0.5558 -0.3109
  178DOPC   O1121750   2.305   6.583   3.246 -0.1428 -0.0067  0.0498
  178DOPC    C121751   2.386   6.488   3.308  0.0867 -0.2116 -0.3482
  178DOPC    HA21752   2.492   6.522   3.315 -0.3558  1.0436  0.7754
  178DOPC    HB21753   2.384   6.383   3.271  0.9663  0.1045 -1.3514
  178DOPC    C221754   2.360   6.476   3.455 -0.5735 -0.0127 -0.1946
  178DOPC    HS21755   2.251   6.460   3.472 -0.6967 -0.5344 -1.3746
  178DOPC   O2121756   2.407   6.600   3.521 -0.5835  0.1633 -0.1130
  178DOPC   C2121757   2.309   6.676   3.563  0.1524 -0.5474 -0.8819
  178DOPC   O2221758   2.190   6.649   3.570 -0.9274  0.5301  0.1609
  178DOPC   C2221759   2.374   6.807   3.622  0.7575 -0.1481  0.0550
  178DOPC   H2R21760   2.364   6.875   3.535 -2.5229  0.8450  1.0395
  178DOPC   H2S21761   2.480   6.789   3.649  0.4583 -1.6584  0.3149
  178DOPC    C321762   2.425   6.351   3.518 -0.3776  0.7271  0.0414
  178DOPC    HX21763   2.536   6.349   3.512 -0.2562 -1.6849  1.6539
  178DOPC    HY21764   2.387   6.264   3.460  0.6623  0.5524 -0.3970
  178DOPC   O3121765   2.389   6.330   3.657  0.4919 -0.1725 -0.3358
  178DOPC   C3121766   2.414   6.206   3.698 -0.3701  0.2473  0.0232
  178DOPC   O3221767   2.474   6.122   3.637 -0.2319  0.3176  0.3007
  178DOPC   C3221768   2.381   6.192   3.842  0.2230  0.1891  0.1589
  178DOPC   H2X21769   2.398   6.290   3.890 -2.1431  0.9451 -0.4062
  178DOPC   H2Y21770   2.270   6.190   3.840  0.2328 -0.5203 -0.8087
  178DOPC   C2321771   2.274   6.856   3.732  0.4953 -0.5260 -0.3711
  178DOPC   H3R21772   2.174   6.848   3.684  1.1806 -0.7377 -1.8103
  178DOPC   H3S21773   2.284   6.966   3.742 -0.5465 -0.4367 -0.1804
  178DOPC   C2421774   2.289   6.775   3.862  0.2206 -0.0707 -0.6503
  178DOPC   H4R21775   2.269   6.668   3.841 -0.6468  0.2396 -1.4611
  178DOPC   H4S21776   2.204   6.795   3.931  0.5843  0.4132 -0.3335
  178DOPC   C2521777   2.421   6.795   3.928 -0.2773  0.5944 -0.0795
  178DOPC   H5R21778   2.435   6.905   3.928 -1.9019  0.9622 -3.7804
  178DOPC   H5S21779   2.497   6.746   3.863 -0.7985 -0.7229  0.2686
  178DOPC   C2621780   2.434   6.730   4.064  0.0840  0.1858 -0.4335
  178DOPC   H6R21781   2.530   6.713   4.117  0.8932  0.2576 -1.8386
  178DOPC   H6S21782   2.384   6.631   4.060 -2.8187  1.4949  0.5698
  178DOPC   C2721783   2.352   6.814   4.164 -0.2315 -0.4280  0.0022
  178DOPC   H7R21784   2.249   6.827   4.125  0.1526 -2.8300 -2.1014
  178DOPC   H7S21785   2.399   6.914   4.174 -0.0336 -0.3264 -1.6550
  178DOPC   C2821786   2.342   6.737   4.297 -0.3334  0.1537 -0.1290
  178DOPC   H8R21787   2.436   6.735   4.356 -1.1972  0.6127  1.3218
  178DOPC   H8S21788   2.301   6.638   4.268  0.2343  0.2301 -1.2281
  178DOPC   C2921789   2.239   6.805   4.383  0.0054  0.2939  0.3069
  178DOPC   H9R21790   2.134   6.786   4.355  0.5187 -2.0977 -0.1957
  178DOPC  C21021791   2.254   6.861   4.504 -0.1220  0.2546 -0.4408
  178DOPC  H10R21792   2.164   6.910   4.544 -1.5285 -2.5289  0.0295
  178DOPC  C21121793   2.375   6.868   4.588  0.6196  0.9491 -0.1876
  178DOPC  H11R21794   2.464   6.821   4.541 -0.1655 -1.0490  0.2408
  178DOPC  H11S21795   2.358   6.821   4.687 -1.2415  0.6301 -0.6249
  178DOPC  C21221796   2.421   7.010   4.629  0.1601  0.4916 -0.1875
  178DOPC  H12R21797   2.344   7.041   4.703  1.6021 -1.0253  2.1031
  178DOPC  H12S21798   2.427   7.072   4.537  1.1033 -1.3996 -1.4736
  178DOPC  C21321799   2.563   7.006   4.688  0.0628  0.5085  0.5475
  178DOPC  H13R21800   2.635   6.965   4.614 -1.0992  0.8819 -0.8340
  178DOPC  H13S21801   2.574   6.930   4.769 -2.4893  0.4421  0.9157
  178DOPC  C21421802   2.612   7.136   4.743 -0.0048  0.5673  0.3899
  178DOPC  H14R21803   2.630   7.211   4.663 -1.1085 -1.0483 -1.4745
  178DOPC  H14S21804   2.714   7.124   4.786  0.5999 -0.1154 -1.1467
  178DOPC  C21521805   2.531   7.191   4.864 -0.2138 -0.1420  0.6106
  178DOPC  H15R21806   2.526   7.110   4.940  2.4435 -0.4784  0.5171
  178DOPC  H15S21807   2.426   7.211   4.834  0.7464  0.7162 -2.6134
  178DOPC  C21621808   2.592   7.310   4.938  0.7584 -0.7722  0.4467
  178DOPC  H16R21809   2.643   7.373   4.862 -0.4284 -0.6714 -0.2837
  178DOPC  H16S21810   2.659   7.282   5.022 -0.0766 -2.0521  0.7082
  178DOPC  C21721811   2.481   7.393   5.010  0.2571 -0.1768  0.3845
  178DOPC  H17R21812   2.427   7.314   5.067 -1.8305  2.1402  1.8213
  178DOPC  H17S21813   2.406   7.435   4.940  0.4559 -0.5214 -0.0364
  178DOPC  C21821814   2.533   7.492   5.115  0.2811  0.7983  0.5914
  178DOPC  H18R21815   2.577   7.581   5.064 -0.3794  0.7728 -0.0436
  178DOPC  H18S21816   2.611   7.446   5.180 -0.5277 -0.0952  0.9465
  178DOPC  H18T21817   2.444   7.532   5.167 -0.7528  1.1697 -1.3437
  178DOPC   C3321818   2.438   6.065   3.909  0.4213 -0.6694 -0.2361
  178DOPC   H3X21819   2.549   6.066   3.907  0.4759 -0.2851  1.3061
  178DOPC   H3Y21820   2.409   5.971   3.858 -0.0613 -0.2655 -0.7183
  178DOPC   C3421821   2.395   6.049   4.061 -0.2087  0.3130 -0.4677
  178DOPC   H4X21822   2.448   5.960   4.101  0.0972  0.4675 -0.5195
  178DOPC   H4Y21823   2.290   6.014   4.068 -0.3032  0.1779 -2.0533
  178DOPC   C3521824   2.421   6.174   4.153  0.5038 -0.6311  0.2190
  178DOPC   H5X21825   2.387   6.145   4.255 -0.2142 -1.7904 -0.3398
  178DOPC   H5Y21826   2.360   6.260   4.118  1.9328 -0.1404 -1.2102
  178DOPC   C3621827   2.566   6.236   4.167  0.5799  0.4120  0.0719
  178DOPC   H6X21828   2.642   6.155   4.159  0.3632  0.0325  1.5893
  178DOPC   H6Y21829   2.597   6.310   4.091 -0.0628 -0.9209 -1.5530
  178DOPC   C3721830   2.600   6.286   4.303  0.1900 -0.2838  0.2194
  178DOPC   H7X21831   2.544   6.376   4.334  1.5608  0.3987  0.8117
  178DOPC   H7Y21832   2.579   6.213   4.384 -0.0570  0.7444  1.1095
  178DOPC   C3821833   2.748   6.328   4.318  0.0890  0.5067 -0.1137
  178DOPC   H8X21834   2.809   6.246   4.277  0.3604  0.7775 -0.2562
  178DOPC   H8Y21835   2.769   6.333   4.427  1.0964  0.2978 -0.2898
  178DOPC   C3921836   2.773   6.461   4.252 -0.2690  0.2250 -0.2438
  178DOPC   H9X21837   2.700   6.541   4.274  1.1098  1.4528 -0.0080
  178DOPC  C31021838   2.883   6.485   4.181 -0.7144 -0.0374  0.2676
  178DOPC  H10X21839   2.900   6.586   4.140  3.0338 -0.5822  0.0890
  178DOPC  C31121840   3.008   6.404   4.155 -0.5203 -0.8585 -0.4714
  178DOPC  H11X21841   3.002   6.305   4.205  0.2557 -0.9061 -0.4611
  178DOPC  H11Y21842   3.099   6.453   4.197  0.0161 -1.2603 -1.1397
  178DOPC  C31221843   3.029   6.387   4.007  0.1033 -0.1617  0.4037
  178DOPC  H12X21844   3.128   6.343   3.982  0.0462 -2.0024  3.0543
  178DOPC  H12Y21845   3.021   6.481   3.948 -1.7550 -1.0378 -0.8070
  178DOPC  C31321846   2.921   6.312   3.934 -0.0210  0.3879 -0.4374
  178DOPC  H13X21847   2.821   6.354   3.960  0.9006  0.9160  2.6467
  178DOPC  H13Y21848   2.941   6.319   3.825 -0.4141 -1.5844 -0.6790
  178DOPC  C31421849   2.927   6.164   3.981  0.1010  0.2764  0.0294
  178DOPC  H14X21850   3.035   6.138   3.975 -0.1924 -1.7263  2.0911
  178DOPC  H14Y21851   2.895   6.172   4.087  1.6068  2.5776  0.3749
  178DOPC  C31521852   2.832   6.075   3.904  0.1196  0.1091  0.3847
  178DOPC  H15X21853   2.740   6.138   3.900  0.3342  0.5346  1.7492
  178DOPC  H15Y21854   2.809   5.987   3.967 -1.5096 -0.7674 -1.3308
  178DOPC  C31621855   2.870   6.028   3.759  0.6431 -0.0651 -0.0709
  178DOPC  H16X21856   2.884   6.115   3.692  1.6303 -0.4427 -0.3715
  178DOPC  H16Y21857   2.969   5.978   3.768  2.3820  2.8719 -1.6210
  178DOPC  C31721858   2.771   5.925   3.697 -0.6497 -0.1319 -0.1838
  178DOPC  H17X21859   2.682   5.990   3.691 -1.9681 -1.7584  0.8809
  178DOPC  H17Y21860   2.812   5.891   3.600 -1.1436 -1.6437  0.1097
  178DOPC  C31821861   2.738   5.808   3.792  0.2581  0.5942  0.3154
  178DOPC  H18X21862   2.656   5.845   3.858 -2.3847 -0.0527 -2.3897
  178DOPC  H18Y21863   2.692   5.722   3.737 -2.0859  0.6113  2.0696
  178DOPC  H18Z21864   2.833   5.782   3.843 -0.3681 -2.3120  0.1947
  179DOPC     N21865   6.801   5.432   1.785 -0.4112 -0.1089  0.2282
  179DOPC   C1221866   6.819   5.483   1.926 -0.2273 -0.0228  0.1427
  179DOPC  H12A21867   6.865   5.581   1.931  0.0880 -0.2432  2.2042
  179DOPC  H12B21868   6.882   5.412   1.977 -1.2002 -0.7415  0.3581
  179DOPC   C1321869   6.705   5.320   1.781 -0.1861  1.0133 -0.1695
  179DOPC  H13A21870   6.743   5.234   1.833 -1.7046 -0.3724 -1.2284
  179DOPC  H13B21871   6.613   5.356   1.825  0.0177  2.3866 -0.7866
  179DOPC  H13C21872   6.683   5.289   1.679  1.0715  0.0975 -0.1791
  179DOPC   C1421873   6.930   5.401   1.710  0.3793  0.2469 -0.2019
  179DOPC  H14A21874   6.975   5.325   1.772 -3.2844 -0.5180  1.8335
  179DOPC  H14B21875   6.919   5.359   1.611 -0.7790 -1.5444  0.6223
  179DOPC  H14C21876   6.985   5.493   1.699 -0.0443  0.6049  0.5828
  179DOPC   C1521877   6.748   5.541   1.702  0.0924 -0.4048 -0.0383
  179DOPC  H15A21878   6.721   5.517   1.601 -1.6988 -0.2227  0.3553
  179DOPC  H15B21879   6.809   5.630   1.703 -0.8790  0.3139 -1.4077
  179DOPC  H15C21880   6.658   5.578   1.750  0.4120  1.0996 -0.5352
  179DOPC   C1121881   6.695   5.504   2.014 -0.1789  0.4553  0.2906
  179DOPC  H11A21882   6.638   5.409   2.027 -2.6176  1.3824 -2.5558
  179DOPC  H11B21883   6.717   5.551   2.113 -2.4280  0.9751  0.6017
  179DOPC     P21884   6.626   5.764   1.971 -0.1201  0.2979  0.0788
  179DOPC   O1321885   6.524   5.839   1.895 -0.0632 -0.4374 -0.2487
  179DOPC   O1421886   6.763   5.791   1.933 -0.1150 -0.6435 -0.2696
  179DOPC   O1221887   6.604   5.605   1.959 -0.8306 -0.2523 -0.0132
  179DOPC   O1121888   6.611   5.794   2.120 -0.0787  0.4050 -0.0182
  179DOPC    C121889   6.510   5.749   2.209  0.0401  0.1456  0.0563
  179DOPC    HA21890   6.548   5.652   2.246  2.1722  0.9456  0.1296
  179DOPC    HB21891   6.421   5.733   2.144  1.1929  0.1180 -1.5764
  179DOPC    C221892   6.488   5.860   2.315 -0.1015 -0.3491  0.3776
  179DOPC    HS21893   6.480   5.959   2.265 -0.8772 -0.7056 -0.2251
  179DOPC   O2121894   6.601   5.859   2.408  0.2099  0.0828 -0.2489
  179DOPC   C2121895   6.620   5.970   2.486 -0.0813  0.5168 -0.2826
  179DOPC   O2221896   6.550   6.068   2.487  0.2836  0.3307  0.3862
  179DOPC   C2221897   6.734   5.944   2.594  0.3241  0.5490  0.1011
  179DOPC   H2R21898   6.829   5.936   2.538  0.3711 -1.2031  0.3535
  179DOPC   H2S21899   6.706   5.845   2.636 -0.8318  0.7332 -0.2021
  179DOPC    C321900   6.366   5.829   2.398  0.3151  0.1681  0.0473
  179DOPC    HX21901   6.382   5.730   2.447 -0.2608  0.7023  1.3570
  179DOPC    HY21902   6.272   5.804   2.345  0.9906 -1.2323 -0.5591
  179DOPC   O3121903   6.339   5.911   2.507 -0.3773 -0.4580 -0.4072
  179DOPC   C3121904   6.266   6.019   2.476  0.5471 -0.0321 -0.2532
  179DOPC   O3221905   6.234   6.046   2.364 -0.1779 -0.2028  0.0557
  179DOPC   C3221906   6.212   6.087   2.595 -0.1778 -0.5083  0.2378
  179DOPC   H2X21907   6.288   6.163   2.626 -0.1181  0.9330 -2.9980
  179DOPC   H2Y21908   6.126   6.139   2.547  1.3559  1.0452 -0.9648
  179DOPC   C2321909   6.744   6.051   2.702 -0.7053  0.4375  0.2521
  179DOPC   H3R21910   6.668   6.063   2.783  0.2339  0.4348  1.1610
  179DOPC   H3S21911   6.747   6.151   2.652 -0.1239  0.1075 -0.3876
  179DOPC   C2421912   6.884   6.038   2.776 -0.2512 -0.8930 -0.6256
  179DOPC   H4R21913   6.969   6.075   2.715  1.4214  0.8035  2.4445
  179DOPC   H4S21914   6.898   5.929   2.795 -0.6570 -0.8711 -0.1650
  179DOPC   C2521915   6.882   6.121   2.907 -0.2785  0.8677  0.3453
  179DOPC   H5R21916   6.794   6.089   2.967 -0.4380  0.1095 -0.2745
  179DOPC   H5S21917   6.876   6.230   2.886  2.1122  0.6070 -2.2506
  179DOPC   C2621918   7.013   6.113   2.985 -0.4279  0.0873 -0.6447
  179DOPC   H6R21919   7.083   6.191   2.948 -0.2216  0.8097  1.1944
  179DOPC   H6S21920   7.065   6.015   2.975  0.7294  0.6392 -0.1973
  179DOPC   C2721921   6.993   6.151   3.134 -0.6000 -0.4791  0.4027
  179DOPC   H7R21922   6.922   6.090   3.194  0.3218 -0.7096  1.2823
  179DOPC   H7S21923   6.961   6.257   3.139 -0.6099 -0.5019  0.8016
  179DOPC   C2821924   7.136   6.148   3.196 -0.5625  0.0294 -0.1259
  179DOPC   H8R21925   7.129   6.192   3.297 -0.1532  2.4853 -1.0944
  179DOPC   H8S21926   7.199   6.208   3.126  0.8755 -0.0426  1.0373
  179DOPC   C2921927   7.197   6.009   3.204  0.3575  0.1713  0.1141
  179DOPC   H9R21928   7.183   5.937   3.122  1.1237  0.9058 -0.6681
  179DOPC  C21021929   7.252   5.951   3.310  0.5603  1.0056 -0.0770
  179DOPC  H10R21930   7.312   5.860   3.301  1.2402  1.5030 -0.7142
  179DOPC  C21121931   7.273   6.014   3.442  0.3419 -0.7483  0.1368
  179DOPC  H11R21932   7.239   6.120   3.450  2.9391  0.1548  0.1860
  179DOPC  H11S21933   7.378   6.020   3.479 -0.1153 -0.2315  1.4403
  179DOPC  C21221934   7.198   5.927   3.545 -0.5159  0.4604  0.4285
  179DOPC  H12R21935   7.233   5.822   3.539 -0.1688  0.4413  2.3183
  179DOPC  H12S21936   7.088   5.926   3.532 -0.6993 -1.7898  1.6415
  179DOPC  C21321937   7.239   5.979   3.683 -0.1431 -0.4961 -0.3174
  179DOPC  H13R21938   7.221   6.088   3.696  0.2145 -0.7028  2.5737
  179DOPC  H13S21939   7.347   5.961   3.699 -0.3030  0.2526  1.9312
  179DOPC  C21421940   7.180   5.900   3.800  0.2325 -0.7044 -0.6722
  179DOPC  H14R21941   7.219   5.796   3.798  2.4801  0.0706  0.2916
  179DOPC  H14S21942   7.069   5.907   3.794  0.0132 -0.8836  2.1227
  179DOPC  C21521943   7.223   5.965   3.934  0.2668  0.7733  0.5700
  179DOPC  H15R21944   7.207   6.075   3.937  0.2931  0.8120 -0.2757
  179DOPC  H15S21945   7.334   5.959   3.944  0.2989  0.9526  0.3504
  179DOPC  C21621946   7.149   5.886   4.050  0.2048 -0.2247 -0.3170
  179DOPC  H16R21947   7.223   5.889   4.133 -0.8671  2.4466  0.6439
  179DOPC  H16S21948   7.141   5.779   4.022  0.9075 -0.0492 -1.2599
  179DOPC  C21721949   7.011   5.942   4.098 -0.5818 -0.5234 -1.0047
  179DOPC  H17R21950   6.933   5.863   4.098 -0.6285 -0.5432  1.2068
  179DOPC  H17S21951   6.976   6.014   4.021  0.0292 -0.4808 -1.2470
  179DOPC  C21821952   7.016   6.018   4.232  0.1957  0.3288  0.0008
  179DOPC  H18R21953   7.076   5.949   4.296  0.5165  0.8341  0.2453
  179DOPC  H18S21954   6.913   6.039   4.265 -0.2106 -2.1035  0.4636
  179DOPC  H18T21955   7.077   6.110   4.220 -2.2369  1.7953 -2.1381
  179DOPC   C3321956   6.164   5.986   2.703 -0.1144  0.7353  0.3891
  179DOPC   H3X21957   6.255   5.954   2.759 -1.4428 -0.0911  2.1818
  179DOPC   H3Y21958   6.124   5.894   2.654 -0.4320  0.4788  1.1094
  179DOPC   C3421959   6.064   6.054   2.798 -0.5386 -0.2770 -0.1727
  179DOPC   H4X21960   5.992   6.105   2.730 -1.5979 -0.7400  0.5638
  179DOPC   H4Y21961   6.119   6.119   2.869 -0.9521 -0.2332  0.1112
  179DOPC   C3521962   5.990   5.951   2.876  0.0730  0.7631 -0.4633
  179DOPC   H5X21963   5.970   5.861   2.813 -1.9528  1.3099 -0.6841
  179DOPC   H5Y21964   5.887   5.989   2.895 -1.2461 -2.1854 -1.0861
  179DOPC   C3621965   6.053   5.901   3.005 -0.0107 -0.2011 -0.5713
  179DOPC   H6X21966   6.147   5.847   2.983 -0.4672 -1.5435  0.6628
  179DOPC   H6Y21967   6.068   5.980   3.082 -0.3044 -0.3957 -0.3115
  179DOPC   C3721968   5.969   5.791   3.080  0.0556  0.2363  0.2045
  179DOPC   H7X21969   5.948   5.704   3.014 -2.2358  1.7633 -1.1977
  179DOPC   H7Y21970   6.022   5.744   3.166  0.1015 -1.7184 -0.8257
  179DOPC   C3821971   5.827   5.836   3.133 -0.2473 -0.6732  0.0666
  179DOPC   H8X21972   5.759   5.865   3.050 -0.8550 -2.4824 -0.1198
  179DOPC   H8Y21973   5.837   5.926   3.197 -0.5664 -0.1780 -0.5649
  179DOPC   C3921974   5.755   5.727   3.201 -0.5802  0.1252 -0.1727
  179DOPC   H9X21975   5.746   5.640   3.135  2.3114  0.0404 -0.6128
  179DOPC  C31021976   5.695   5.728   3.322  0.6219  0.3993  0.4228
  179DOPC  H10X21977   5.653   5.629   3.347 -1.2265  1.0090 -0.0643
  179DOPC  C31121978   5.679   5.836   3.422  0.2530  0.3624 -0.2549
  179DOPC  H11X21979   5.587   5.889   3.389  0.1787  0.1342 -0.4127
  179DOPC  H11Y21980   5.755   5.917   3.427  0.5323  0.1182 -0.4821
  179DOPC  C31221981   5.668   5.770   3.562 -0.4461 -0.3499  0.0176
  179DOPC  H12X21982   5.676   5.849   3.640  1.2567 -0.5691  0.1132
  179DOPC  H12Y21983   5.762   5.716   3.587 -0.7620 -1.0360 -0.2409
  179DOPC  C31321984   5.537   5.697   3.592  0.1512  0.6155 -0.0427
  179DOPC  H13X21985   5.456   5.759   3.547  1.8818  1.2292 -2.6130
  179DOPC  H13Y21986   5.536   5.605   3.529  2.1731  1.4797 -1.4533
  179DOPC  C31421987   5.518   5.657   3.741 -0.1407 -0.4899 -0.9267
  179DOPC  H14X21988   5.604   5.591   3.766  0.3934 -0.1819 -1.9200
  179DOPC  H14Y21989   5.528   5.753   3.797 -0.4743 -1.4759  0.9215
  179DOPC  C31521990   5.386   5.583   3.779 -0.1121 -0.7219  0.2513
  179DOPC  H15X21991   5.311   5.657   3.745 -0.0272 -1.0973 -0.8228
  179DOPC  H15Y21992   5.386   5.567   3.889  0.7550  1.9512  0.6989
  179DOPC  C31621993   5.357   5.453   3.706 -0.1412 -0.0081 -0.3166
  179DOPC  H16X21994   5.364   5.476   3.597 -2.5922  2.4991 -0.0675
  179DOPC  H16Y21995   5.435   5.378   3.730 -0.1827  0.9410  3.4309
  179DOPC  C31721996   5.222   5.389   3.740 -0.0146  0.1521 -0.1726
  179DOPC  H17X21997   5.149   5.471   3.719 -0.6700 -0.9285 -2.4938
  179DOPC  H17Y21998   5.190   5.312   3.666 -0.9767  1.9814 -1.7571
  179DOPC  C31821999   5.204   5.339   3.890  0.5124 -0.4138  0.4871
  179DOPC  H18X22000   5.280   5.266   3.927 -0.8458 -2.4654 -0.5398
  179DOPC  H18Y22001   5.188   5.419   3.965 -1.5734 -0.1250 -0.2058
  179DOPC  H18Z22002   5.111   5.279   3.899 -1.2283  2.0176 -0.4874
  180DOPC     N22003   5.652   2.661   1.880 -0.3890  0.5846 -0.4532
  180DOPC   C1222004   5.739   2.630   2.002  0.0246  0.4927 -0.4663
  180DOPC  H12A22005   5.671   2.575   2.065 -0.1234 -0.7192 -1.6449
  180DOPC  H12B22006   5.770   2.724   2.046 -0.0669 -0.2495  1.2380
  180DOPC   C1322007   5.604   2.531   1.825 -0.2185  0.0847 -0.7051
  180DOPC  H13A22008   5.690   2.470   1.803 -0.1570 -0.7155  1.4670
  180DOPC  H13B22009   5.551   2.472   1.899 -0.5705 -0.3963 -1.3354
  180DOPC  H13C22010   5.546   2.549   1.735  0.4981  3.2746 -0.6511
  180DOPC   C1422011   5.734   2.741   1.782 -0.0671  0.2308  0.0588
  180DOPC  H14A22012   5.678   2.779   1.698  1.7776 -1.6632 -2.1845
  180DOPC  H14B22013   5.790   2.819   1.830 -2.5638  0.9178  2.0610
  180DOPC  H14C22014   5.806   2.678   1.732 -0.0230  1.2141 -1.1647
  180DOPC   C1522015   5.534   2.749   1.925 -1.1257  0.1498 -0.0089
  180DOPC  H15A22016   5.563   2.838   1.978 -3.7752  2.0813 -1.5545
  180DOPC  H15B22017   5.454   2.693   1.971 -3.2093  2.4195 -0.6443
  180DOPC  H15C22018   5.490   2.794   1.837 -0.3039  1.0731  0.0322
  180DOPC   C1122019   5.866   2.551   1.977  0.0031  0.6500 -0.0372
  180DOPC  H11A22020   5.886   2.511   2.078 -0.1962 -2.0119 -0.9596
  180DOPC  H11B22021   5.857   2.459   1.916  2.9262  0.3680 -0.2195
  180DOPC     P22022   6.026   2.749   1.994 -0.1665  0.0402  0.1117
  180DOPC   O1322023   5.948   2.864   1.950 -0.3822 -0.1737 -0.5432
  180DOPC   O1422024   6.171   2.767   1.976  0.1010 -0.0344 -0.9366
  180DOPC   O1222025   5.976   2.622   1.918  0.2880  0.6031 -0.3371
  180DOPC   O1122026   5.997   2.717   2.144  0.5644  0.5575  0.3922
  180DOPC    C122027   6.092   2.643   2.229  0.1374 -0.1360  0.5804
  180DOPC    HA22028   6.187   2.622   2.175  0.0375 -0.0158  0.3573
  180DOPC    HB22029   6.044   2.548   2.263 -1.9153  0.6816  0.0869
  180DOPC    C222030   6.127   2.736   2.352  0.2297  1.1623 -0.7767
  180DOPC    HS22031   6.205   2.689   2.415 -0.5891  0.4107 -0.2939
  180DOPC   O2122032   6.012   2.755   2.433  0.1771  0.2147  0.4223
  180DOPC   C2122033   5.963   2.648   2.495 -0.1849  0.4597  1.0561
  180DOPC   O2222034   6.015   2.537   2.495  0.6109 -0.1581 -0.5875
  180DOPC   C2222035   5.829   2.682   2.565  0.1260  0.0354  0.3164
  180DOPC   H2R22036   5.744   2.658   2.497 -0.1601  1.1767  0.2577
  180DOPC   H2S22037   5.828   2.792   2.581 -1.3490 -0.4249  4.7939
  180DOPC    C322038   6.182   2.872   2.296  0.8413 -0.2276 -0.3228
  180DOPC    HX22039   6.098   2.930   2.253 -0.9332 -0.9097  2.0371
  180DOPC    HY22040   6.251   2.853   2.211 -0.0932 -0.4042 -1.0575
  180DOPC   O3122041   6.246   2.940   2.398 -0.0289 -0.7139 -0.0240
  180DOPC   C3122042   6.186   3.034   2.466  0.7551  0.4803  0.3052
  180DOPC   O3222043   6.078   3.087   2.438 -0.0202  0.2244 -0.0618
  180DOPC   C3222044   6.274   3.068   2.586 -0.6707 -0.7584 -0.0207
  180DOPC   H2X22045   6.273   2.984   2.659  3.0909 -2.1574 -1.3046
  180DOPC   H2Y22046   6.376   3.081   2.543 -0.1658 -0.8182  1.1102
  180DOPC   C2322047   5.791   2.604   2.689 -0.3045  0.3536 -0.1076
  180DOPC   H3R22048   5.809   2.495   2.674 -0.4384  0.4066 -0.6592
  180DOPC   H3S22049   5.688   2.615   2.727 -0.2479  1.9413 -0.3354
  180DOPC   C2422050   5.873   2.644   2.815 -0.0843 -0.8345  0.1526
  180DOPC   H4R22051   5.976   2.603   2.805  1.0501  2.2003 -2.1989
  180DOPC   H4S22052   5.825   2.591   2.900 -0.1975 -0.2706  0.4441
  180DOPC   C2522053   5.854   2.797   2.850 -0.3363  0.9512 -0.0596
  180DOPC   H5R22054   5.746   2.823   2.854 -0.1038  1.9530  0.1604
  180DOPC   H5S22055   5.911   2.861   2.779 -0.5435  0.6065 -0.5351
  180DOPC   C2622056   5.912   2.832   2.992 -0.0743 -0.2148  0.4234
  180DOPC   H6R22057   6.017   2.800   2.976 -0.0448 -0.1505  0.4879
  180DOPC   H6S22058   5.859   2.773   3.070 -0.1448  1.5741  1.8080
  180DOPC   C2722059   5.928   2.980   3.033 -0.2554 -0.5055  0.6875
  180DOPC   H7R22060   5.840   3.037   2.997 -0.2630  0.7406  2.5838
  180DOPC   H7S22061   6.022   3.024   2.994  0.3238 -1.5867  0.8175
  180DOPC   C2822062   5.924   2.987   3.184  0.5767  0.0339  0.3295
  180DOPC   H8R22063   5.852   2.907   3.211 -0.5739  1.5611  2.0969
  180DOPC   H8S22064   5.865   3.080   3.200 -0.9927 -1.0780  1.3088
  180DOPC   C2922065   6.047   2.969   3.260 -0.6650  0.5814 -0.4275
  180DOPC   H9R22066   6.128   3.041   3.237  2.5501 -2.6236 -0.0154
  180DOPC  C21022067   6.063   2.909   3.380  0.4173  0.6231  0.1136
  180DOPC  H10R22068   6.156   2.929   3.435 -0.0782  1.3160  0.6987
  180DOPC  C21122069   5.964   2.805   3.429  0.2340 -0.0651  0.2687
  180DOPC  H11R22070   5.892   2.776   3.350  1.6554  1.5123 -1.7239
  180DOPC  H11S22071   5.898   2.846   3.508 -0.4327  0.1273 -0.3805
  180DOPC  C21222072   6.038   2.672   3.467 -0.3280 -0.3089  0.2524
  180DOPC  H12R22073   6.116   2.666   3.389  2.5031 -1.6246  2.9715
  180DOPC  H12S22074   5.973   2.585   3.444  1.4465 -1.4138 -0.8274
  180DOPC  C21322075   6.102   2.670   3.605 -0.4758  0.3107 -0.5622
  180DOPC  H13R22076   6.022   2.639   3.675  2.0613  0.1066  2.4521
  180DOPC  H13S22077   6.140   2.769   3.636  1.4065 -0.9549  1.5091
  180DOPC  C21422078   6.211   2.567   3.615  0.0137 -0.2082 -0.1553
  180DOPC  H14R22079   6.303   2.607   3.568 -0.1185 -1.6145 -1.6901
  180DOPC  H14S22080   6.170   2.475   3.568 -0.4484 -0.5204  0.8136
  180DOPC  C21522081   6.258   2.545   3.758  0.3178  0.5096  0.0680
  180DOPC  H15R22082   6.194   2.469   3.807  1.8062 -1.6970 -1.2508
  180DOPC  H15S22083   6.252   2.644   3.809 -3.2108  1.1114 -1.1938
  180DOPC  C21622084   6.401   2.492   3.762  0.2640  0.7156  0.1274
  180DOPC  H16R22085   6.471   2.571   3.727 -0.2928  1.5574  0.8678
  180DOPC  H16S22086   6.431   2.400   3.707  1.5252  1.0454  0.2150
  180DOPC  C21722087   6.436   2.457   3.906 -0.1309 -0.7440  0.4747
  180DOPC  H17R22088   6.377   2.367   3.935  0.2806 -0.9018  0.8353
  180DOPC  H17S22089   6.382   2.538   3.960  0.9939  1.7001 -1.8439
  180DOPC  C21822090   6.584   2.459   3.948 -0.1648 -0.8245  0.4562
  180DOPC  H18R22091   6.585   2.427   4.055 -0.0302 -1.0419  0.3903
  180DOPC  H18S22092   6.641   2.554   3.935  0.9708 -1.4430  0.7357
  180DOPC  H18T22093   6.635   2.379   3.891  0.9898  0.6458 -0.6528
  180DOPC   C3322094   6.240   3.198   2.646  0.7013  0.2625  0.1327
  180DOPC   H3X22095   6.222   3.277   2.570 -0.9119  2.2275  2.4197
  180DOPC   H3Y22096   6.328   3.227   2.707  0.2214  0.4133  0.7599
  180DOPC   C3422097   6.121   3.183   2.745  0.4329 -0.2590  0.3588
  180DOPC   H4X22098   6.162   3.125   2.830 -0.7175 -1.5624  0.0679
  180DOPC   H4Y22099   6.032   3.126   2.711  1.3441 -0.3912 -1.9695
  180DOPC   C3522100   6.078   3.324   2.794  0.4040  0.1782  0.0126
  180DOPC   H5X22101   6.171   3.380   2.816  0.2856  0.2955  0.2106
  180DOPC   H5Y22102   6.016   3.306   2.884  0.6253  0.3716  0.2008
  180DOPC   C3622103   5.979   3.402   2.703 -0.0555 -0.0003  0.9427
  180DOPC   H6X22104   6.034   3.431   2.611 -0.8424  4.0483  1.5843
  180DOPC   H6Y22105   5.896   3.334   2.672  2.3689 -1.2302 -3.7114
  180DOPC   C3722106   5.912   3.526   2.762  0.1908  0.2787 -0.5063
  180DOPC   H7X22107   5.838   3.569   2.690 -0.4152 -0.0126 -0.0683
  180DOPC   H7Y22108   5.867   3.484   2.854  0.1320 -0.3402 -0.8142
  180DOPC   C3822109   6.006   3.642   2.800  0.9384  0.1094  0.0860
  180DOPC   H8X22110   6.058   3.691   2.715  1.1765  0.0367  0.1905
  180DOPC   H8Y22111   6.082   3.588   2.859  0.3356  0.5630  1.3217
  180DOPC   C3922112   5.936   3.745   2.889  0.3107 -0.0098  0.6030
  180DOPC   H9X22113   5.878   3.815   2.827 -0.0105 -0.7028  0.1084
  180DOPC  C31022114   5.940   3.759   3.021  0.2104 -0.5994  0.2943
  180DOPC  H10X22115   5.867   3.831   3.061 -0.4351 -0.9492 -0.2276
  180DOPC  C31122116   6.015   3.679   3.130 -0.4879 -0.2978  0.9970
  180DOPC  H11X22117   6.045   3.744   3.215 -0.7909 -0.0128  0.8903
  180DOPC  H11Y22118   6.111   3.647   3.084  0.5061 -0.0271  2.7861
  180DOPC  C31222119   5.944   3.562   3.185  0.1453  0.5411 -1.4756
  180DOPC  H12X22120   5.914   3.509   3.092  0.6977 -1.5710 -0.5118
  180DOPC  H12Y22121   5.855   3.588   3.246  1.9986  2.1006  0.7059
  180DOPC  C31322122   6.029   3.458   3.267 -0.3820 -0.5654 -0.3103
  180DOPC  H13X22123   6.099   3.398   3.206  0.3080  1.2905 -1.4396
  180DOPC  H13Y22124   6.095   3.515   3.337 -1.4441  0.1068  0.1735
  180DOPC  C31422125   5.938   3.367   3.351  0.0561 -0.8698  0.0270
  180DOPC  H14X22126   5.865   3.433   3.403 -0.0742 -0.4487 -0.6878
  180DOPC  H14Y22127   5.873   3.303   3.287  1.1084 -1.0821 -0.8439
  180DOPC  C31522128   6.014   3.288   3.455 -0.4425 -0.6915  0.0302
  180DOPC  H15X22129   6.077   3.360   3.512 -0.5512  0.1040 -0.8233
  180DOPC  H15Y22130   6.088   3.228   3.398 -0.0590 -0.5260  0.3479
  180DOPC  C31622131   5.919   3.214   3.557  0.7437  0.1565  0.4898
  180DOPC  H16X22132   5.847   3.285   3.602 -1.7853 -1.0267 -1.4279
  180DOPC  H16Y22133   5.849   3.137   3.517 -0.1517  0.1897  1.9302
  180DOPC  C31722134   5.996   3.140   3.673 -0.5549  0.0140 -0.5393
  180DOPC  H17X22135   6.028   3.039   3.641 -2.2106 -0.3808 -1.0792
  180DOPC  H17Y22136   6.085   3.200   3.701  0.8214 -1.4957 -1.5665
  180DOPC  C31822137   5.915   3.110   3.797  0.0506 -0.1854 -0.6183
  180DOPC  H18X22138   5.877   3.196   3.858 -0.7902 -0.0741 -1.2683
  180DOPC  H18Y22139   5.820   3.061   3.765 -1.3183  1.3204  0.9029
  180DOPC  H18Z22140   5.970   3.034   3.856  2.4810  0.7076 -1.6101
  181DOPC     N22141   7.336   2.060   1.968 -0.3751  0.0196  0.5398
  181DOPC   C1222142   7.220   1.994   2.038 -0.0978  0.5772  0.8839
  181DOPC  H12A22143   7.196   2.051   2.127  2.9607  0.6813  1.7747
  181DOPC  H12B22144   7.258   1.897   2.067 -0.1407  0.4515  0.5228
  181DOPC   C1322145   7.305   2.206   1.938 -0.5255 -0.2283  0.1735
  181DOPC  H13A22146   7.305   2.258   2.033  1.8914 -0.1066  0.1648
  181DOPC  H13B22147   7.386   2.242   1.877 -0.7634 -0.8925 -0.5511
  181DOPC  H13C22148   7.219   2.235   1.880 -0.7643 -0.3316  0.4744
  181DOPC   C1422149   7.363   1.992   1.838 -0.4951 -0.5928  0.4456
  181DOPC  H14A22150   7.271   2.008   1.784 -0.8017 -0.3184  1.0343
  181DOPC  H14B22151   7.442   2.047   1.788 -0.5370  0.3076  1.3140
  181DOPC  H14C22152   7.382   1.886   1.839 -1.0392 -0.6948  0.3983
  181DOPC   C1522153   7.455   2.055   2.055 -0.4572 -0.2873  0.1670
  181DOPC  H15A22154   7.503   1.959   2.070 -3.6300 -2.0057  0.0305
  181DOPC  H15B22155   7.423   2.093   2.151 -1.0189  0.5182 -0.3280
  181DOPC  H15C22156   7.529   2.124   2.015  0.0819 -1.9716 -1.9305
  181DOPC   C1122157   7.086   1.985   1.960 -0.3751 -0.1743  0.0731
  181DOPC  H11A22158   7.104   1.949   1.856  2.9883 -2.0801  1.1689
  181DOPC  H11B22159   7.032   1.905   2.016  0.6512 -1.1461 -0.2791
  181DOPC     P22160   6.892   2.130   2.048 -0.0777 -0.0253  0.3139
  181DOPC   O1322161   6.874   2.038   2.165 -0.5727 -0.5995 -0.6105
  181DOPC   O1422162   6.781   2.124   1.950 -0.2853  0.2493 -0.2652
  181DOPC   O1222163   7.021   2.109   1.966 -0.2794  0.1585 -0.7102
  181DOPC   O1122164   6.908   2.275   2.098 -0.1719 -0.5045 -0.7459
  181DOPC    C122165   7.010   2.316   2.185 -0.0476  0.1741 -0.4010
  181DOPC    HA22166   7.052   2.415   2.158 -1.9942  1.0274 -0.4716
  181DOPC    HB22167   7.090   2.241   2.203  1.1551  1.3178 -0.8812
  181DOPC    C222168   6.930   2.338   2.318 -0.3908 -0.1331 -0.2901
  181DOPC    HS22169   6.879   2.246   2.354  2.0959 -1.0902  1.0508
  181DOPC   O2122170   6.842   2.456   2.300  0.0890 -0.0829 -0.0961
  181DOPC   C2122171   6.719   2.436   2.343  0.7007 -0.6567 -0.7134
  181DOPC   O2222172   6.673   2.328   2.372 -0.2936 -0.0151 -0.0448
  181DOPC   C2222173   6.646   2.571   2.339  0.1005 -0.7386  0.3991
  181DOPC   H2R22174   6.685   2.617   2.246  0.1758  0.3706  0.9573
  181DOPC   H2S22175   6.689   2.635   2.418 -1.2794  0.5930  0.1285
  181DOPC    C322176   7.024   2.393   2.426 -0.3867  0.2223 -0.7953
  181DOPC    HX22177   7.059   2.498   2.411  0.6044  0.1210  0.6465
  181DOPC    HY22178   7.114   2.328   2.429 -2.0707 -2.1897 -0.6491
  181DOPC   O3122179   6.965   2.364   2.558  0.2214  0.2790 -0.1817
  181DOPC   C3122180   6.901   2.471   2.614 -0.3852 -0.2356  0.3231
  181DOPC   O3222181   6.894   2.581   2.564 -0.4518 -0.1000  0.4160
  181DOPC   C3222182   6.831   2.410   2.737 -0.3974  0.3978 -0.2119
  181DOPC   H2X22183   6.759   2.334   2.700  1.9503 -2.0475 -0.0501
  181DOPC   H2Y22184   6.908   2.358   2.798 -0.7122  2.0815  1.7512
  181DOPC   C2322185   6.489   2.572   2.341  0.4984 -0.7960 -0.3659
  181DOPC   H3R22186   6.436   2.518   2.260 -0.4495  0.4120 -0.5940
  181DOPC   H3S22187   6.437   2.670   2.326 -0.4444 -1.5537 -2.4341
  181DOPC   C2422188   6.425   2.519   2.464 -0.1941  0.4371 -0.3993
  181DOPC   H4R22189   6.491   2.436   2.496 -0.8364  0.7832  1.9662
  181DOPC   H4S22190   6.325   2.475   2.446  0.8829 -2.4775  0.1739
  181DOPC   C2522191   6.428   2.623   2.581  0.0688 -1.3078  0.6105
  181DOPC   H5R22192   6.366   2.708   2.546 -0.0810 -2.4012 -2.0330
  181DOPC   H5S22193   6.523   2.664   2.622 -0.4618  0.3826  0.2301
  181DOPC   C2622194   6.373   2.556   2.707  0.3987 -0.3662 -0.6310
  181DOPC   H6R22195   6.428   2.462   2.729  0.4077 -0.6332 -1.7151
  181DOPC   H6S22196   6.265   2.532   2.698  0.2817 -0.6437  1.1786
  181DOPC   C2722197   6.380   2.648   2.829  0.3588 -0.2329  0.1455
  181DOPC   H7R22198   6.323   2.743   2.816 -1.5125 -0.7672  3.2469
  181DOPC   H7S22199   6.486   2.674   2.847  0.1890 -0.4651  1.6006
  181DOPC   C2822200   6.325   2.583   2.963  0.4055 -0.5888 -0.0117
  181DOPC   H8R22201   6.373   2.484   2.978 -0.1905 -0.8666  0.1127
  181DOPC   H8S22202   6.218   2.562   2.940  0.2293  0.5928 -0.3097
  181DOPC   C2922203   6.349   2.668   3.086  0.4543 -0.3483  0.3368
  181DOPC   H9R22204   6.292   2.762   3.090 -0.0333 -0.6181 -0.1283
  181DOPC  C21022205   6.421   2.642   3.194 -0.0004  0.2317 -0.0160
  181DOPC  H10R22206   6.425   2.722   3.270 -2.0744 -0.7430  1.2023
  181DOPC  C21122207   6.517   2.522   3.225 -0.1074 -0.5011  0.2275
  181DOPC  H11R22208   6.621   2.531   3.187  0.0802  2.8950  1.1980
  181DOPC  H11S22209   6.482   2.429   3.175 -1.1204 -0.2722  0.4783
  181DOPC  C21222210   6.520   2.493   3.374 -0.5782  0.3237 -0.0242
  181DOPC  H12R22211   6.436   2.434   3.416 -0.6324 -0.6869 -1.4743
  181DOPC  H12S22212   6.539   2.588   3.428 -0.0948  0.0941  0.2125
  181DOPC  C21322213   6.635   2.402   3.428  0.2481  0.1107  0.6314
  181DOPC  H13R22214   6.644   2.321   3.352 -0.9660  2.2352 -1.9617
  181DOPC  H13S22215   6.604   2.364   3.527 -3.8866 -0.7721 -0.8240
  181DOPC  C21422216   6.765   2.481   3.423 -0.0902 -0.2872  0.5347
  181DOPC  H14R22217   6.740   2.581   3.381  1.4629  0.2355  0.7666
  181DOPC  H14S22218   6.843   2.438   3.356 -0.7729 -0.4494 -0.1732
  181DOPC  C21522219   6.836   2.489   3.557 -0.0745 -0.4955 -0.1013
  181DOPC  H15R22220   6.774   2.557   3.620 -2.2342 -1.4008 -1.1399
  181DOPC  H15S22221   6.935   2.536   3.541  0.1860 -0.1703  2.0507
  181DOPC  C21622222   6.845   2.356   3.632  0.2124 -0.3512 -0.1911
  181DOPC  H16R22223   6.874   2.274   3.564 -1.6043 -0.8668 -0.3952
  181DOPC  H16S22224   6.743   2.336   3.670  0.5070 -0.7515  0.4074
  181DOPC  C21722225   6.943   2.362   3.753 -0.3416 -0.1424  0.5915
  181DOPC  H17R22226   6.956   2.256   3.787  2.3779 -0.2820 -0.5740
  181DOPC  H17S22227   6.898   2.434   3.825 -0.4402  2.0669 -1.5669
  181DOPC  C21822228   7.091   2.410   3.717  0.0794 -0.2104  0.0988
  181DOPC  H18R22229   7.080   2.521   3.717  0.2722 -0.1807 -1.0066
  181DOPC  H18S22230   7.117   2.395   3.610 -1.4612 -1.2349 -0.1700
  181DOPC  H18T22231   7.167   2.374   3.789 -0.1560 -1.4291 -0.2485
  181DOPC   C3322232   6.746   2.508   2.819  0.0437 -0.8473  0.0166
  181DOPC   H3X22233   6.654   2.453   2.848 -0.4774 -0.3827 -0.7239
  181DOPC   H3Y22234   6.709   2.586   2.749  0.5107 -0.0279  0.6690
  181DOPC   C3422235   6.817   2.560   2.945  0.0413 -0.0907 -0.9998
  181DOPC   H4X22236   6.838   2.487   3.025 -1.7651  2.5667  2.1703
  181DOPC   H4Y22237   6.751   2.629   3.003  1.9356 -0.0256  1.1992
  181DOPC   C3522238   6.948   2.645   2.925  0.7276  0.2595  0.1086
  181DOPC   H5X22239   7.010   2.581   2.859 -0.2752  0.0174 -0.6271
  181DOPC   H5Y22240   6.996   2.667   3.022 -1.5718  2.0151  0.9603
  181DOPC   C3622241   6.929   2.787   2.863 -0.0354 -0.4541  0.5705
  181DOPC   H6X22242   6.876   2.777   2.766 -0.0362  0.8108  0.4243
  181DOPC   H6Y22243   6.869   2.854   2.928  1.7296  0.9390  0.8292
  181DOPC   C3722244   7.060   2.863   2.838 -0.3840  0.0453  0.2948
  181DOPC   H7X22245   7.123   2.778   2.806 -1.9007 -1.0008 -0.0254
  181DOPC   H7Y22246   7.050   2.921   2.744 -0.4190  0.7007  0.6922
  181DOPC   C3822247   7.116   2.942   2.958 -0.0829  0.2324  0.5197
  181DOPC   H8X22248   7.224   2.959   2.940 -0.0666  1.4552  1.5920
  181DOPC   H8Y22249   7.121   2.872   3.044  2.2072 -0.8827 -0.4503
  181DOPC   C3922250   7.029   3.065   2.983 -0.2172 -0.0230  0.0741
  181DOPC   H9X22251   7.049   3.145   2.911 -0.6593 -0.3058 -0.3672
  181DOPC  C31022252   6.950   3.088   3.088  0.1092 -0.1770  0.1178
  181DOPC  H10X22253   6.905   3.187   3.100 -0.3986 -0.2785 -0.8602
  181DOPC  C31122254   6.926   2.986   3.202 -0.1729  0.7266  0.1446
  181DOPC  H11X22255   7.008   2.971   3.275  0.9452 -1.1304 -1.3942
  181DOPC  H11Y22256   6.927   2.891   3.144  0.9509  0.5382  0.4452
  181DOPC  C31222257   6.793   3.007   3.279 -0.0667  0.2667 -0.4025
  181DOPC  H12X22258   6.708   3.023   3.210 -0.1964  0.6224 -0.1691
  181DOPC  H12Y22259   6.800   3.090   3.353  0.6154 -0.8814  0.8546
  181DOPC  C31322260   6.755   2.874   3.352 -0.3421  0.3481  0.4890
  181DOPC  H13X22261   6.722   2.792   3.285  0.0537  0.2600  0.3978
  181DOPC  H13Y22262   6.839   2.831   3.412  0.0009  0.7869  0.3276
  181DOPC  C31422263   6.639   2.894   3.456 -0.4124 -0.5871 -0.1623
  181DOPC  H14X22264   6.570   2.970   3.413  1.7779  0.7122 -1.5751
  181DOPC  H14Y22265   6.588   2.797   3.472 -2.4799  0.4098 -0.3307
  181DOPC  C31522266   6.687   2.946   3.596  0.2391  0.1837 -0.4291
  181DOPC  H15X22267   6.753   3.036   3.592  0.0550  0.3277 -0.2306
  181DOPC  H15Y22268   6.742   2.857   3.632  3.0771  1.1089 -2.1077
  181DOPC  C31622269   6.577   2.961   3.700  0.4262  0.1051  0.2132
  181DOPC  H16X22270   6.522   3.058   3.696 -0.4408 -0.3533  0.8540
  181DOPC  H16Y22271   6.499   2.882   3.706 -0.2292  0.8243  2.0916
  181DOPC  C31722272   6.634   2.969   3.853  0.3429  0.0512  0.0493
  181DOPC  H17X22273   6.664   2.866   3.884  0.4476 -0.8177 -2.6856
  181DOPC  H17Y22274   6.726   3.032   3.854  0.7164 -0.4365 -1.3985
  181DOPC  C31822275   6.536   3.024   3.958 -0.2332  0.6861 -0.6798
  181DOPC  H18X22276   6.452   2.953   3.972  1.8590 -2.4700 -2.7403
  181DOPC  H18Y22277   6.597   3.028   4.051  0.9808 -1.3119 -1.3106
  181DOPC  H18Z22278   6.497   3.124   3.929 -3.7630 -0.3677 -0.0624
  182DOPC     N22279   1.512   0.155   2.935  0.6112 -0.2862 -0.0785
  182DOPC   C1222280   1.609   0.084   2.848  0.6970 -0.3177  0.0837
  182DOPC  H12A22281   1.648   0.162   2.784 -1.5020 -0.1893 -1.2113
  182DOPC  H12B22282   1.558   0.016   2.781  3.8014 -0.2121 -2.6119
  182DOPC   C1322283   1.405   0.229   2.862 -0.2303 -0.2583 -0.1796
  182DOPC  H13A22284   1.347   0.292   2.928 -2.2351 -1.2359 -0.9293
  182DOPC  H13B22285   1.439   0.289   2.779  0.1336  0.0191  0.1628
  182DOPC  H13C22286   1.332   0.158   2.827 -2.4193  1.0725  1.4148
  182DOPC   C1422287   1.581   0.253   3.026 -0.1020  0.3698  0.4521
  182DOPC  H14A22288   1.512   0.274   3.106  0.5458  3.8583  0.2831
  182DOPC  H14B22289   1.670   0.202   3.058  0.6960  0.2524 -1.7889
  182DOPC  H14C22290   1.605   0.340   2.966 -2.6933  0.2973 -0.8567
  182DOPC   C1522291   1.450   0.049   3.030  0.6756 -0.0468 -0.3440
  182DOPC  H15A22292   1.523   0.043   3.110 -0.6464 -0.3601  0.8799
  182DOPC  H15B22293   1.457  -0.050   2.986  0.5787 -0.9678  1.5947
  182DOPC  H15C22294   1.351   0.078   3.062  0.9565 -1.4628  2.1136
  182DOPC   C1122295   1.723   0.009   2.909 -0.2654 -0.3806 -0.2422
  182DOPC  H11A22296   1.687  -0.061   2.987  1.1357  0.8669  1.6255
  182DOPC  H11B22297   1.775  -0.054   2.834 -1.1898 -0.1198 -1.1143
  182DOPC     P22298   1.904   0.193   2.864 -0.3188 -0.5863 -0.1231
  182DOPC   O1322299   1.812   0.291   2.796 -0.0634 -0.6661 -0.3370
  182DOPC   O1422300   1.988   0.109   2.780  0.4060  0.2446  0.1888
  182DOPC   O1222301   1.818   0.102   2.961  0.0490 -0.1378 -0.0785
  182DOPC   O1122302   2.006   0.280   2.950  0.1795 -0.3576 -0.0541
  182DOPC    C122303   1.990   0.296   3.093  0.5545  0.3918 -0.3918
  182DOPC    HA22304   2.012   0.200   3.145  1.6792 -0.3328 -2.1301
  182DOPC    HB22305   1.882   0.308   3.116  1.3439  1.6833  3.4700
  182DOPC    C222306   2.050   0.429   3.147  0.2125 -0.4376  0.3561
  182DOPC    HS22307   2.008   0.510   3.084 -1.9370 -0.8658  1.1585
  182DOPC   O2122308   2.193   0.417   3.147 -0.4766  0.3477  0.8008
  182DOPC   C2122309   2.245   0.527   3.191  0.7829  0.1141  0.7150
  182DOPC   O2222310   2.184   0.634   3.202 -0.0145  0.0914  0.3014
  182DOPC   C2222311   2.394   0.512   3.207 -0.5724  0.9468  0.1371
  182DOPC   H2R22312   2.438   0.595   3.147 -1.2692  2.5465  1.7675
  182DOPC   H2S22313   2.426   0.431   3.137  0.0742  0.1901  1.2851
  182DOPC    C322314   1.985   0.447   3.288 -0.6993 -0.0225  0.2422
  182DOPC    HX22315   1.876   0.429   3.276 -0.7520  0.2598  0.2884
  182DOPC    HY22316   1.988   0.546   3.338 -0.4465  0.2217 -0.2627
  182DOPC   O3122317   2.047   0.357   3.384 -0.2318 -0.2055 -0.0557
  182DOPC   C3122318   1.958   0.268   3.438  0.0685 -0.3161  0.3542
  182DOPC   O3222319   1.839   0.276   3.430  0.1901 -0.2186 -0.0878
  182DOPC   C3222320   2.042   0.160   3.498 -0.8517 -0.3320  0.8672
  182DOPC   H2X22321   2.080   0.080   3.432  1.6578  0.9684  0.6304
  182DOPC   H2Y22322   2.128   0.213   3.545 -0.5654 -1.7558  2.0406
  182DOPC   C2322323   2.456   0.482   3.350  0.2735  0.1067 -0.4394
  182DOPC   H3R22324   2.565   0.501   3.346  0.6045 -1.8281 -1.5404
  182DOPC   H3S22325   2.451   0.373   3.368 -2.2265 -0.0864 -1.8170
  182DOPC   C2422326   2.396   0.561   3.473  0.0051  0.0830  0.2526
  182DOPC   H4R22327   2.285   0.555   3.470 -0.0993  1.1674  1.2219
  182DOPC   H4S22328   2.424   0.668   3.463 -0.8553  0.1764 -1.5593
  182DOPC   C2522329   2.419   0.509   3.613  0.3264 -0.4330 -0.1720
  182DOPC   H5R22330   2.525   0.531   3.637 -0.3427  1.9813  0.8499
  182DOPC   H5S22331   2.407   0.399   3.618 -0.6406 -0.2791  1.7988
  182DOPC   C2622332   2.324   0.584   3.708 -0.8864  0.6875  0.2532
  182DOPC   H6R22333   2.219   0.557   3.685 -1.5111  2.9455  0.2257
  182DOPC   H6S22334   2.328   0.695   3.704 -3.6025  0.8799  1.1941
  182DOPC   C2722335   2.345   0.551   3.860 -0.4456  0.1977  0.7167
  182DOPC   H7R22336   2.358   0.441   3.866  1.2664  0.0882 -2.5342
  182DOPC   H7S22337   2.248   0.569   3.910 -0.7947 -1.5090  0.7084
  182DOPC   C2822338   2.461   0.636   3.912 -0.0903 -0.5116 -0.3407
  182DOPC   H8R22339   2.457   0.736   3.862 -0.0199 -0.9884 -1.3264
  182DOPC   H8S22340   2.551   0.583   3.875 -0.9657 -2.0683 -0.3080
  182DOPC   C2922341   2.453   0.671   4.056 -0.0530 -0.1310  0.7018
  182DOPC   H9R22342   2.351   0.690   4.095 -0.9775 -1.8628 -0.7040
  182DOPC  C21022343   2.552   0.675   4.147  0.0001 -0.0025  0.3878
  182DOPC  H10R22344   2.524   0.686   4.253  0.3999 -1.2911  0.6372
  182DOPC  C21122345   2.694   0.639   4.102  0.5956  0.4501 -0.3251
  182DOPC  H11R22346   2.719   0.661   3.996  1.1819  3.7610  0.3840
  182DOPC  H11S22347   2.706   0.530   4.116 -0.3882  0.2529 -0.9357
  182DOPC  C21222348   2.807   0.696   4.192 -0.0147  0.3987  0.6077
  182DOPC  H12R22349   2.790   0.806   4.200 -3.8585  0.0436 -0.8062
  182DOPC  H12S22350   2.907   0.686   4.145  0.5839 -0.4092  2.0008
  182DOPC  C21322351   2.831   0.619   4.331 -0.0692  0.0029 -0.0467
  182DOPC  H13R22352   2.872   0.522   4.297  1.3923  0.8988 -1.0027
  182DOPC  H13S22353   2.729   0.616   4.374 -0.2393 -0.6985 -0.4814
  182DOPC  C21422354   2.935   0.688   4.420  0.1419  0.0728 -0.2021
  182DOPC  H14R22355   2.935   0.799   4.430  0.9197 -0.0689  2.0822
  182DOPC  H14S22356   3.032   0.653   4.379  1.0049 -0.4434  2.0770
  182DOPC  C21522357   2.911   0.641   4.561  0.5681  0.5452  0.1550
  182DOPC  H15R22358   2.926   0.532   4.578 -0.2764  0.5206  0.8561
  182DOPC  H15S22359   2.803   0.649   4.584  0.4737  1.2550 -0.5097
  182DOPC  C21622360   2.997   0.715   4.664 -0.0067 -0.8022 -0.1449
  182DOPC  H16R22361   2.959   0.819   4.679  2.4624  0.2771 -0.9992
  182DOPC  H16S22362   3.101   0.729   4.627 -0.2002 -3.3692 -1.8986
  182DOPC  C21722363   3.019   0.652   4.803  0.5241  1.0012 -0.5624
  182DOPC  H17R22364   3.075   0.556   4.794 -2.6440 -0.9879 -0.4042
  182DOPC  H17S22365   2.929   0.626   4.863  1.1086 -2.0820 -0.8563
  182DOPC  C21822366   3.107   0.729   4.902  0.2449  0.0513  1.1072
  182DOPC  H18R22367   3.063   0.830   4.917 -2.3712 -0.8029 -0.0348
  182DOPC  H18S22368   3.209   0.738   4.859  0.1052  1.9699  1.0834
  182DOPC  H18T22369   3.102   0.670   4.996 -0.7584 -1.8927 -0.1101
  182DOPC   C3322370   1.973   0.091   3.618  0.3423 -0.3045  0.8645
  182DOPC   H3X22371   1.915   0.003   3.582 -0.0841  0.5734 -0.7078
  182DOPC   H3Y22372   1.908   0.159   3.678  0.7894  1.1628 -0.2453
  182DOPC   C3422373   2.085   0.030   3.710 -0.3954  0.1287 -0.4172
  182DOPC   H4X22374   2.158   0.108   3.740  1.9445 -3.0061  2.9102
  182DOPC   H4Y22375   2.131  -0.052   3.650 -0.3496  1.4120 -2.2122
  182DOPC   C3522376   2.025  -0.016   3.842  0.0966  0.0332 -0.9368
  182DOPC   H5X22377   1.953  -0.098   3.822 -0.7907  0.6136 -0.1995
  182DOPC   H5Y22378   1.966   0.076   3.864 -0.4238 -0.3528 -0.6941
  182DOPC   C3622379   2.134  -0.053   3.952  0.1381 -0.0473 -0.8364
  182DOPC   H6X22380   2.075  -0.071   4.045  0.7091  0.7027 -0.3188
  182DOPC   H6Y22381   2.180  -0.145   3.911  1.4818  1.1873 -2.2226
  182DOPC   C3722382   2.240   0.061   3.977 -1.2240  0.0235 -0.3561
  182DOPC   H7X22383   2.322   0.022   4.040  1.8595  2.8103 -2.3025
  182DOPC   H7Y22384   2.294   0.079   3.882 -1.0656 -0.0330 -0.2767
  182DOPC   C3822385   2.190   0.193   4.040  0.0521 -0.3156 -0.0105
  182DOPC   H8X22386   2.119   0.232   3.964 -2.7522 -2.0166  1.5524
  182DOPC   H8Y22387   2.275   0.265   4.043 -0.8882  0.7955  2.6088
  182DOPC   C3922388   2.115   0.190   4.175 -0.2256  0.0419  0.1348
  182DOPC   H9X22389   2.044   0.106   4.187 -1.7075  0.9582 -1.7744
  182DOPC  C31022390   2.139   0.273   4.284  0.0707  0.4243 -0.0912
  182DOPC  H10X22391   2.086   0.263   4.379 -0.2646 -2.0638 -0.4564
  182DOPC  C31122392   2.241   0.383   4.281  0.2163  0.8780  0.6896
  182DOPC  H11X22393   2.212   0.443   4.192  1.0266 -0.7100 -0.6915
  182DOPC  H11Y22394   2.339   0.337   4.255  0.0936  0.0370  1.6681
  182DOPC  C31222395   2.266   0.472   4.403  0.0462 -0.4117 -0.1208
  182DOPC  H12X22396   2.173   0.502   4.456  0.3505 -1.0649  0.8033
  182DOPC  H12Y22397   2.318   0.567   4.378  0.4691  0.7304  4.2872
  182DOPC  C31322398   2.366   0.412   4.508  0.0387  0.3473 -0.0080
  182DOPC  H13X22399   2.333   0.311   4.541  1.9779 -0.0061  0.9446
  182DOPC  H13Y22400   2.468   0.395   4.468 -0.6677 -2.1849 -0.8847
  182DOPC  C31422401   2.379   0.498   4.639  0.1450 -0.3973  0.1798
  182DOPC  H14X22402   2.404   0.605   4.627 -1.5760 -0.1271 -1.4641
  182DOPC  H14Y22403   2.275   0.501   4.677 -0.6980 -1.5372 -1.8677
  182DOPC  C31522404   2.459   0.435   4.755  0.6879  0.2024  0.5241
  182DOPC  H15X22405   2.564   0.422   4.721  0.6030 -2.0698  0.9769
  182DOPC  H15Y22406   2.406   0.341   4.778  0.9394  0.8949  4.7995
  182DOPC  C31622407   2.451   0.510   4.886  0.2816 -0.1560  0.8044
  182DOPC  H16X22408   2.497   0.607   4.858  1.3793 -0.8961 -0.0479
  182DOPC  H16Y22409   2.345   0.522   4.915 -0.4822 -1.4249 -1.2317
  182DOPC  C31722410   2.529   0.428   4.981 -0.3315  0.1985 -0.0336
  182DOPC  H17X22411   2.608   0.373   4.925  0.5940 -0.7466  2.1229
  182DOPC  H17Y22412   2.584   0.496   5.049 -2.5994  2.1914 -0.0431
  182DOPC  C31822413   2.450   0.330   5.060  0.3540  0.1119 -0.1336
  182DOPC  H18X22414   2.396   0.258   4.994  1.5176 -1.1926  0.3033
  182DOPC  H18Y22415   2.520   0.270   5.121  0.8251  0.7180 -0.0739
  182DOPC  H18Z22416   2.384   0.387   5.129 -1.2213 -0.4178 -1.1470
  183DOPC     N22417   7.653   4.597   2.441  0.4040 -0.1104  0.9499
  183DOPC   C1222418   7.730   4.485   2.509  0.5189 -0.2335  0.6744
  183DOPC  H12A22419   7.760   4.419   2.429 -0.2303 -0.1624  0.3217
  183DOPC  H12B22420   7.654   4.435   2.567 -0.8134  1.4033  0.4283
  183DOPC   C1322421   7.557   4.537   2.338  0.2315  0.4022 -0.1103
  183DOPC  H13A22422   7.607   4.489   2.255  0.0705 -1.6086  0.9177
  183DOPC  H13B22423   7.480   4.472   2.375 -1.0397  2.3282  0.7822
  183DOPC  H13C22424   7.500   4.616   2.290 -1.2333 -1.4729 -1.6085
  183DOPC   C1422425   7.742   4.683   2.369  0.7847  0.0505 -1.1848
  183DOPC  H14A22426   7.687   4.749   2.304 -1.0297 -0.4315 -0.1974
  183DOPC  H14B22427   7.808   4.736   2.436  0.1600  0.1237 -0.6156
  183DOPC  H14C22428   7.803   4.624   2.302 -1.3851  0.5464 -3.7594
  183DOPC   C1522429   7.577   4.687   2.533 -1.0499  0.0747  0.0499
  183DOPC  H15A22430   7.641   4.714   2.617 -1.8786  1.0720  0.3738
  183DOPC  H15B22431   7.486   4.648   2.575 -1.6237  1.3310  0.0203
  183DOPC  H15C22432   7.542   4.774   2.480 -0.7829 -1.1876 -2.2951
  183DOPC   C1122433   7.851   4.521   2.595  0.4675 -0.0170 -0.4600
  183DOPC  H11A22434   7.842   4.623   2.638 -0.4936 -0.5079  0.5487
  183DOPC  H11B22435   7.856   4.457   2.686  1.2001  2.3993  1.3065
  183DOPC     P22436   8.112   4.530   2.593  0.4618  0.6655 -0.2653
  183DOPC   O1322437   8.131   4.679   2.595 -0.2651  0.4019 -0.5378
  183DOPC   O1422438   8.208   4.443   2.517  0.6456 -0.3191  0.5011
  183DOPC   O1222439   7.969   4.500   2.529 -0.8524 -0.2653  0.0535
  183DOPC   O1122440   8.098   4.475   2.742  0.5039  0.2299  0.0638
  183DOPC    C122441   8.105   4.333   2.772 -0.0909  0.0216  0.1696
  183DOPC    HA22442   8.192   4.296   2.714 -0.3600  0.4400 -0.5073
  183DOPC    HB22443   8.020   4.276   2.729  1.4199 -2.4829  0.3337
  183DOPC    C222444   8.131   4.303   2.927  0.4356  0.2214 -0.6128
  183DOPC    HS22445   8.137   4.195   2.951 -2.4770 -0.1513 -1.1599
  183DOPC   O2122446   8.017   4.352   3.002 -0.3545 -0.0864  0.2792
  183DOPC   C2122447   7.906   4.281   2.994 -0.0471  0.8786 -0.3416
  183DOPC   O2222448   7.902   4.182   2.923  0.3364  0.0518  0.6722
  183DOPC   C2222449   7.790   4.342   3.073  0.4777  0.2391  0.0635
  183DOPC   H2R22450   7.767   4.443   3.032  0.9154  0.1387 -0.4444
  183DOPC   H2S22451   7.811   4.339   3.182 -0.0458  0.8757  0.1840
  183DOPC    C322452   8.263   4.374   2.976 -0.1759  0.0497  0.5001
  183DOPC    HX22453   8.237   4.480   2.955 -1.5862 -0.7870 -2.7149
  183DOPC    HY22454   8.346   4.359   2.903 -2.0647  1.4129 -2.1141
  183DOPC   O3122455   8.284   4.343   3.112 -0.2041 -0.1308  0.3005
  183DOPC   C3122456   8.292   4.455   3.192 -0.4999  0.3050 -0.2887
  183DOPC   O3222457   8.280   4.571   3.154  0.3224  0.1367  0.2401
  183DOPC   C3222458   8.333   4.406   3.328  0.1091  0.7365  0.3909
  183DOPC   H2X22459   8.278   4.310   3.334  1.6397 -0.2148 -0.2052
  183DOPC   H2Y22460   8.440   4.376   3.333 -0.5193 -1.7733 -0.2339
  183DOPC   C2322461   7.654   4.264   3.075 -0.6379 -0.4054  0.3577
  183DOPC   H3R22462   7.629   4.250   2.968 -0.4193 -1.0651  0.3914
  183DOPC   H3S22463   7.578   4.332   3.118  0.0046  1.9010 -1.9165
  183DOPC   C2422464   7.662   4.130   3.149 -0.0308 -0.4470 -0.2917
  183DOPC   H4R22465   7.694   4.145   3.254  1.1361 -2.7504 -0.2463
  183DOPC   H4S22466   7.737   4.066   3.098  1.5013  1.2240 -0.2298
  183DOPC   C2522467   7.526   4.053   3.141  0.1778 -0.8880 -0.1020
  183DOPC   H5R22468   7.505   4.021   3.037 -2.3879 -0.9349  0.3773
  183DOPC   H5S22469   7.447   4.124   3.175  1.7538  1.1097 -0.4118
  183DOPC   C2622470   7.509   3.932   3.236  0.3903 -0.8405  0.0850
  183DOPC   H6R22471   7.530   3.955   3.342 -0.8870 -0.4352  0.2648
  183DOPC   H6S22472   7.584   3.854   3.212  2.7317  1.2417  0.2484
  183DOPC   C2722473   7.371   3.872   3.223  0.3178 -0.0959 -0.6434
  183DOPC   H7R22474   7.364   3.819   3.126 -0.5967 -1.1156 -0.0397
  183DOPC   H7S22475   7.291   3.948   3.230  0.8631  0.3529  1.0573
  183DOPC   C2822476   7.353   3.767   3.337  0.1214  0.6713  0.1408
  183DOPC   H8R22477   7.373   3.818   3.433 -0.3855  1.0098  0.0701
  183DOPC   H8S22478   7.433   3.692   3.320  1.6412  2.0489  0.9243
  183DOPC   C2922479   7.213   3.711   3.346 -0.3169  0.0629 -0.4365
  183DOPC   H9R22480   7.135   3.770   3.395  1.4569 -0.0414  2.8573
  183DOPC  C21022481   7.174   3.586   3.311 -0.3774  0.0704 -0.7712
  183DOPC  H10R22482   7.070   3.554   3.327 -0.4250 -1.3024 -3.2941
  183DOPC  C21122483   7.262   3.479   3.262  0.3277  0.0162  1.0594
  183DOPC  H11R22484   7.227   3.382   3.303 -0.8284 -0.0598 -0.0520
  183DOPC  H11S22485   7.368   3.496   3.294  0.5072  1.7027 -0.3170
  183DOPC  C21222486   7.251   3.448   3.111 -0.1775 -0.6899  1.0246
  183DOPC  H12R22487   7.150   3.416   3.077 -0.0718  0.0622 -0.0325
  183DOPC  H12S22488   7.320   3.363   3.094  1.6501  1.0385 -0.7283
  183DOPC  C21322489   7.292   3.567   3.020 -0.9618  0.2369  0.2007
  183DOPC  H13R22490   7.389   3.609   3.056  0.2678  0.5508 -3.1104
  183DOPC  H13S22491   7.225   3.656   3.018 -0.3178  0.7891  1.3662
  183DOPC  C21422492   7.311   3.523   2.873 -0.4551 -0.1317 -0.0138
  183DOPC  H14R22493   7.379   3.435   2.871 -1.5211 -1.0170  1.1089
  183DOPC  H14S22494   7.366   3.600   2.815 -0.2837 -0.6709 -0.5800
  183DOPC  C21522495   7.179   3.479   2.802 -0.3347 -0.4128  0.3614
  183DOPC  H15R22496   7.119   3.573   2.804  0.1895  0.0284 -2.0403
  183DOPC  H15S22497   7.127   3.404   2.865 -0.0323  0.4296  1.6599
  183DOPC  C21622498   7.200   3.438   2.653  0.1005 -0.1913  0.0133
  183DOPC  H16R22499   7.258   3.344   2.666 -1.7747 -1.1433  2.1562
  183DOPC  H16S22500   7.268   3.511   2.605 -0.6373  1.8540  1.9300
  183DOPC  C21722501   7.077   3.410   2.567  0.2165  0.3225  0.0035
  183DOPC  H17R22502   7.038   3.511   2.542 -1.6372  0.0281  1.4771
  183DOPC  H17S22503   6.993   3.368   2.626  1.7380 -0.5238  1.6593
  183DOPC  C21822504   7.108   3.325   2.446 -0.0443  0.2594 -0.3109
  183DOPC  H18R22505   7.014   3.314   2.388 -0.4706 -0.6834  0.5366
  183DOPC  H18S22506   7.132   3.226   2.489 -2.6653  1.0507  3.4113
  183DOPC  H18T22507   7.192   3.360   2.382 -0.0928 -2.2581 -1.9024
  183DOPC   C3322508   8.296   4.512   3.439  1.2547  0.4128  0.0198
  183DOPC   H3X22509   8.290   4.455   3.534 -1.8931 -1.0851 -0.9327
  183DOPC   H3Y22510   8.191   4.547   3.437 -0.1395 -3.2998 -0.0584
  183DOPC   C3422511   8.407   4.609   3.453 -0.4923  0.5053  0.0201
  183DOPC   H4X22512   8.427   4.657   3.355  0.3160  1.0301  0.4336
  183DOPC   H4Y22513   8.503   4.559   3.478 -0.0190  0.9318 -0.8956
  183DOPC   C3522514   8.381   4.718   3.553 -0.1732 -0.6099  0.0039
  183DOPC   H5X22515   8.478   4.770   3.569 -0.4676  0.2035 -0.7681
  183DOPC   H5Y22516   8.350   4.672   3.649 -1.0145  1.1206  0.6171
  183DOPC   C3622517   8.279   4.820   3.506  0.3770 -1.1723  0.4801
  183DOPC   H6X22518   8.302   4.849   3.401 -2.2520  0.6541  0.2938
  183DOPC   H6Y22519   8.178   4.773   3.509 -0.9913  1.6098  1.4338
  183DOPC   C3722520   8.279   4.953   3.589 -0.3589 -0.4992 -0.2723
  183DOPC   H7X22521   8.384   4.987   3.599 -0.1592 -1.4886  1.4195
  183DOPC   H7Y22522   8.238   5.036   3.528  1.8159 -0.8770 -2.3936
  183DOPC   C3822523   8.220   4.946   3.727  0.4840 -0.2407 -0.2064
  183DOPC   H8X22524   8.239   5.045   3.774  0.1503  0.0676 -0.7087
  183DOPC   H8Y22525   8.275   4.870   3.787 -0.4862  0.4099  1.5813
  183DOPC   C3922526   8.066   4.931   3.715 -0.0806 -0.0892  0.0607
  183DOPC   H9X22527   8.016   4.952   3.619  1.1374  2.6016 -0.0924
  183DOPC  C31022528   7.986   4.894   3.813  0.0903  0.3644  0.0733
  183DOPC  H10X22529   7.880   4.880   3.787  0.4181 -0.0563 -1.1090
  183DOPC  C31122530   8.020   4.865   3.958  0.3049 -0.0578 -0.3488
  183DOPC  H11X22531   8.013   4.966   4.004  2.1643 -0.0093 -0.0976
  183DOPC  H11Y22532   8.122   4.821   3.960  0.1383 -0.4807 -1.0274
  183DOPC  C31222533   7.907   4.784   4.031  0.5988 -0.3498 -0.1217
  183DOPC  H12X22534   7.895   4.691   3.972  0.0035 -1.2766  1.3874
  183DOPC  H12Y22535   7.811   4.838   4.023 -0.8209 -2.3297  2.2515
  183DOPC  C31322536   7.929   4.764   4.189  0.0372 -0.6764  0.0127
  183DOPC  H13X22537   7.856   4.688   4.225 -0.1268 -0.4526  0.1519
  183DOPC  H13Y22538   8.027   4.723   4.218  0.1377 -0.2796  0.2407
  183DOPC  C31422539   7.902   4.889   4.279 -0.7857  0.0256  0.3159
  183DOPC  H14X22540   7.962   4.879   4.372  0.1092  1.5774 -0.0448
  183DOPC  H14Y22541   7.934   4.977   4.219  0.3767  1.8251  3.3212
  183DOPC  C31522542   7.756   4.909   4.307  0.6557 -0.1324 -0.0026
  183DOPC  H15X22543   7.693   4.877   4.222  1.1299 -1.1608  0.0159
  183DOPC  H15Y22544   7.743   5.018   4.328  0.7491  0.3641 -2.3138
  183DOPC  C31622545   7.712   4.829   4.434 -0.4428 -0.4386 -0.5049
  183DOPC  H16X22546   7.742   4.722   4.430  2.0401 -0.0304  3.1163
  183DOPC  H16Y22547   7.772   4.871   4.517 -2.3406  2.6547 -0.5246
  183DOPC  C31722548   7.567   4.854   4.457  0.1443  0.1719  0.1348
  183DOPC  H17X22549   7.545   4.963   4.455  0.9417  0.3313 -0.0910
  183DOPC  H17Y22550   7.501   4.807   4.381 -1.3719  1.0876  0.8255
  183DOPC  C31822551   7.519   4.808   4.602  0.1275 -0.3750  1.0818
  183DOPC  H18X22552   7.557   4.706   4.621  2.1634 -0.2112 -1.5585
  183DOPC  H18Y22553   7.570   4.871   4.678  0.8841  0.9610 -0.4677
  183DOPC  H18Z22554   7.409   4.808   4.617  0.0304  0.5916  0.5139
  184DOPC     N22555   3.338   0.462   2.253 -0.2037  0.4379  0.9186
  184DOPC   C1222556   3.377   0.517   2.390  0.7513 -0.3656 -0.3516
  184DOPC  H12A22557   3.352   0.622   2.393 -3.5434 -1.1972  0.6478
  184DOPC  H12B22558   3.484   0.505   2.399  0.6594 -1.0164 -0.0594
  184DOPC   C1322559   3.194   0.491   2.231 -0.0106  0.1738  0.1361
  184DOPC  H13A22560   3.161   0.591   2.253 -2.1077 -0.5936  0.6715
  184DOPC  H13B22561   3.173   0.493   2.125 -0.9280  1.7857  0.3214
  184DOPC  H13C22562   3.122   0.428   2.281 -0.7766 -0.1298 -1.2784
  184DOPC   C1422563   3.354   0.317   2.238  0.0384  1.0887 -0.4722
  184DOPC  H14A22564   3.309   0.268   2.323  1.0140  0.3134 -0.3815
  184DOPC  H14B22565   3.319   0.276   2.144 -0.5080  0.5228 -0.0284
  184DOPC  H14C22566   3.461   0.297   2.240  0.0245  1.0832  1.2017
  184DOPC   C1522567   3.425   0.521   2.149 -0.0781 -0.0913 -0.3296
  184DOPC  H15A22568   3.403   0.626   2.144 -1.6401 -0.3598  0.1795
  184DOPC  H15B22569   3.413   0.482   2.049 -0.9365 -0.1011 -0.2288
  184DOPC  H15C22570   3.528   0.501   2.177 -0.5749  0.3493  2.0495
  184DOPC   C1122571   3.317   0.444   2.511 -0.3260 -0.2361  0.8150
  184DOPC  H11A22572   3.349   0.339   2.493 -2.6417 -0.7784 -0.4775
  184DOPC  H11B22573   3.373   0.477   2.602  2.2984 -2.2517  0.0691
  184DOPC     P22574   3.110   0.580   2.587 -0.0339  0.1608 -0.0360
  184DOPC   O1322575   2.985   0.544   2.659 -0.7120 -0.0517  0.0564
  184DOPC   O1422576   3.099   0.677   2.478  0.2957 -0.2169  0.1047
  184DOPC   O1222577   3.175   0.445   2.530 -0.0261  0.4223 -0.2785
  184DOPC   O1122578   3.214   0.630   2.685  0.2827 -0.4323 -0.3423
  184DOPC    C122579   3.201   0.629   2.829 -0.2722 -0.2636 -0.2683
  184DOPC    HA22580   3.281   0.561   2.867 -2.4314 -2.7632  0.1005
  184DOPC    HB22581   3.111   0.577   2.867 -0.3236  0.5357  0.7470
  184DOPC    C222582   3.213   0.769   2.881  0.1389  0.5141 -0.2840
  184DOPC    HS22583   3.135   0.833   2.837  0.8969  2.5413  1.1579
  184DOPC   O2122584   3.340   0.827   2.844 -0.0791 -0.2596  0.3449
  184DOPC   C2122585   3.366   0.950   2.861  0.5431  0.2920  0.0994
  184DOPC   O2222586   3.293   1.034   2.916  0.5723 -0.2546  0.2801
  184DOPC   C2222587   3.505   0.987   2.819  0.8681 -0.2181  0.5809
  184DOPC   H2R22588   3.527   1.093   2.843 -0.8250 -0.2999  2.7208
  184DOPC   H2S22589   3.518   0.978   2.709 -2.2047 -1.7776  0.2336
  184DOPC    C322590   3.184   0.772   3.036 -0.7748 -0.8100  0.5168
  184DOPC    HX22591   3.193   0.873   3.083  0.4809 -0.5308 -0.2746
  184DOPC    HY22592   3.276   0.722   3.073 -0.7236  0.1857  1.8550
  184DOPC   O3122593   3.062   0.704   3.074  0.0906  0.6313 -0.3609
  184DOPC   C3122594   2.953   0.783   3.084  1.5765 -0.0722  0.2694
  184DOPC   O3222595   2.941   0.894   3.041  0.0632  0.3399 -0.1693
  184DOPC   C3222596   2.847   0.693   3.154  0.4111  0.5393 -0.1111
  184DOPC   H2X22597   2.747   0.718   3.114 -0.5851 -0.6843  1.4945
  184DOPC   H2Y22598   2.873   0.589   3.123 -0.8520 -0.4248  1.8941
  184DOPC   C2322599   3.614   0.912   2.891  0.2202 -0.6806 -0.3419
  184DOPC   H3R22600   3.709   0.920   2.834 -0.4201  1.4291 -1.2103
  184DOPC   H3S22601   3.593   0.802   2.886  1.5241 -1.0099  0.9329
  184DOPC   C2422602   3.643   0.975   3.033  0.1650 -0.6207 -0.0641
  184DOPC   H4R22603   3.651   1.085   3.037 -0.8062 -0.5585  3.8630
  184DOPC   H4S22604   3.729   0.918   3.073  0.6303  0.5275  0.5821
  184DOPC   C2522605   3.526   0.951   3.136  0.1623  0.0769 -0.3118
  184DOPC   H5R22606   3.478   0.851   3.129  0.5530 -0.0766 -0.8029
  184DOPC   H5S22607   3.453   1.030   3.109 -0.7427 -1.2465 -1.9292
  184DOPC   C2622608   3.566   0.967   3.286  0.8807 -0.3101  0.0239
  184DOPC   H6R22609   3.618   0.872   3.311  0.9541 -0.3862 -0.4066
  184DOPC   H6S22610   3.474   0.966   3.349  1.4906  0.3211  0.9458
  184DOPC   C2722611   3.667   1.080   3.313 -0.2683  0.2781 -0.8203
  184DOPC   H7R22612   3.633   1.177   3.270 -1.4225  0.1151 -0.3179
  184DOPC   H7S22613   3.759   1.062   3.254 -0.6085 -0.6959 -1.0717
  184DOPC   C2822614   3.697   1.101   3.459 -0.0058  0.4487  0.1617
  184DOPC   H8R22615   3.796   1.149   3.471  1.4431 -2.2981  0.0483
  184DOPC   H8S22616   3.697   1.000   3.505  0.4184 -0.1429 -1.0981
  184DOPC   C2922617   3.578   1.173   3.519 -0.0662 -0.3770  0.5017
  184DOPC   H9R22618   3.477   1.149   3.484  0.3780  0.1418 -1.2751
  184DOPC  C21022619   3.572   1.258   3.625 -0.1352  0.8471  0.4674
  184DOPC  H10R22620   3.470   1.285   3.656 -1.3840 -3.6340  1.0418
  184DOPC  C21122621   3.695   1.312   3.701  0.2531 -0.3235 -0.4120
  184DOPC  H11R22622   3.704   1.423   3.701 -2.4217 -0.0312  0.4864
  184DOPC  H11S22623   3.779   1.269   3.643 -1.2340 -1.8982 -1.5262
  184DOPC  C21222624   3.712   1.271   3.843 -0.4892  0.7331  0.6717
  184DOPC  H12R22625   3.821   1.282   3.865 -0.5404  0.4999  1.0433
  184DOPC  H12S22626   3.688   1.163   3.841  0.1229  0.5491 -2.3962
  184DOPC  C21322627   3.620   1.341   3.949 -0.2202 -0.3164  0.2506
  184DOPC  H13R22628   3.516   1.346   3.912 -0.5598 -0.9673  1.0967
  184DOPC  H13S22629   3.645   1.449   3.960  1.8017 -0.3686 -2.6079
  184DOPC  C21422630   3.628   1.279   4.091 -0.4661 -0.0215  1.1812
  184DOPC  H14R22631   3.732   1.303   4.121  0.5856  1.3667 -2.9272
  184DOPC  H14S22632   3.616   1.168   4.090 -0.8209  0.0149  1.1574
  184DOPC  C21522633   3.535   1.340   4.188  0.9128 -0.2391  0.8348
  184DOPC  H15R22634   3.440   1.283   4.195  0.0890  0.9382 -0.1853
  184DOPC  H15S22635   3.519   1.448   4.167  1.3262 -0.4201 -0.4912
  184DOPC  C21622636   3.598   1.335   4.326 -0.3632  0.6399  0.5197
  184DOPC  H16R22637   3.691   1.395   4.321  0.1881 -0.2918 -0.7936
  184DOPC  H16S22638   3.617   1.228   4.347  0.0373  0.0136 -2.5773
  184DOPC  C21722639   3.495   1.387   4.427 -0.3275  0.1485 -0.2210
  184DOPC  H17R22640   3.406   1.324   4.448 -0.9274  0.7303 -0.9467
  184DOPC  H17S22641   3.446   1.479   4.389 -1.0295  0.4301  1.3188
  184DOPC  C21822642   3.559   1.419   4.564 -0.5757  0.0204 -0.4171
  184DOPC  H18R22643   3.604   1.336   4.622 -0.7436 -0.1115 -0.4758
  184DOPC  H18S22644   3.479   1.455   4.633 -0.2064 -2.2001  1.2842
  184DOPC  H18T22645   3.631   1.504   4.568  1.6019 -1.7522  0.7260
  184DOPC   C3322646   2.851   0.698   3.305 -0.1698 -0.2482  0.3458
  184DOPC   H3X22647   2.950   0.670   3.347 -0.1801  1.1811  1.4145
  184DOPC   H3Y22648   2.776   0.626   3.345 -1.4439  1.4454  1.1244
  184DOPC   C3422649   2.809   0.839   3.359  0.0775  1.2615  0.6682
  184DOPC   H4X22650   2.718   0.877   3.307 -1.9154 -2.4876  1.0251
  184DOPC   H4Y22651   2.889   0.914   3.341 -0.5931  1.7179 -0.5869
  184DOPC   C3522652   2.774   0.850   3.502 -0.1626  0.2063 -0.5420
  184DOPC   H5X22653   2.706   0.769   3.535  0.6350 -0.6607 -0.9662
  184DOPC   H5Y22654   2.725   0.948   3.518  1.5778  1.1464 -0.7780
  184DOPC   C3622655   2.903   0.849   3.588  0.0374  0.3400 -0.8195
  184DOPC   H6X22656   2.934   0.743   3.604  1.9146  1.0553  0.6846
  184DOPC   H6Y22657   2.987   0.903   3.539 -0.2897  1.3605 -0.2829
  184DOPC   C3722658   2.887   0.909   3.735  0.5063  0.9046  0.3586
  184DOPC   H7X22659   2.853   1.015   3.732 -0.5142  0.6876  2.5445
  184DOPC   H7Y22660   2.803   0.851   3.779  0.0721  0.2712 -1.2160
  184DOPC   C3822661   3.018   0.898   3.807  0.0826  0.2771  0.5075
  184DOPC   H8X22662   3.066   0.800   3.786 -2.6042 -0.8476 -0.8281
  184DOPC   H8Y22663   2.987   0.885   3.913 -2.1182  2.2486  0.1650
  184DOPC   C3922664   3.093   1.025   3.790 -0.4107 -1.1763  0.4942
  184DOPC   H9X22665   3.084   1.070   3.691  1.2700 -1.0821  0.3718
  184DOPC  C31022666   3.143   1.101   3.882  0.4489 -0.8855  0.0021
  184DOPC  H10X22667   3.190   1.196   3.853 -0.4249 -0.7609 -1.0709
  184DOPC  C31122668   3.139   1.064   4.029 -0.2335  0.1701  0.0845
  184DOPC  H11X22669   3.194   0.967   4.036 -1.2944 -0.4014  0.8442
  184DOPC  H11Y22670   3.038   1.046   4.071 -0.1519  0.6662  0.5051
  184DOPC  C31222671   3.220   1.151   4.127 -0.0846  0.6940  0.2959
  184DOPC  H12X22672   3.198   1.258   4.107  1.3036  0.7935 -0.8013
  184DOPC  H12Y22673   3.324   1.136   4.091 -0.5430  1.0860 -1.2524
  184DOPC  C31322674   3.188   1.135   4.272 -0.5757  0.1008 -0.8158
  184DOPC  H13X22675   3.237   1.219   4.324 -2.9292  1.6595 -0.9343
  184DOPC  H13Y22676   3.079   1.154   4.282 -0.2245  2.3652 -0.8735
  184DOPC  C31422677   3.223   0.994   4.337  0.3898 -0.9774 -0.0002
  184DOPC  H14X22678   3.155   0.921   4.289 -0.5554 -0.7018  0.8923
  184DOPC  H14Y22679   3.331   0.971   4.325  0.2864 -1.4272 -0.0626
  184DOPC  C31522680   3.189   0.985   4.490  0.3574  0.5233  0.2479
  184DOPC  H15X22681   3.204   0.877   4.516  2.0116  0.0260 -2.4352
  184DOPC  H15Y22682   3.087   1.009   4.526 -0.7371  0.0697 -2.3699
  184DOPC  C31622683   3.277   1.061   4.589 -0.5442  0.1839  0.1638
  184DOPC  H16X22684   3.385   1.047   4.565 -0.5902 -0.1269  0.1289
  184DOPC  H16Y22685   3.270   1.171   4.587 -0.0100  0.2416  0.7821
  184DOPC  C31722686   3.262   1.010   4.738 -0.0521 -0.5902  0.2249
  184DOPC  H17X22687   3.160   1.019   4.782  0.6911 -0.0468  1.9196
  184DOPC  H17Y22688   3.284   0.901   4.741  1.4782 -0.2812  2.1924
  184DOPC  C31822689   3.364   1.068   4.836 -0.7380  0.5870 -0.4656
  184DOPC  H18X22690   3.366   1.017   4.934 -1.4963 -1.5346 -1.5016
  184DOPC  H18Y22691   3.467   1.056   4.796 -0.2833  0.4295  0.7087
  184DOPC  H18Z22692   3.348   1.177   4.848 -1.6137  0.4884 -0.6681
  185DOPC     N22693   0.760   5.193   2.407  0.3543  0.1456  0.5331
  185DOPC   C1222694   0.681   5.090   2.492  1.0304 -0.9331 -0.3954
  185DOPC  H12A22695   0.742   5.004   2.516  0.7826 -1.3232 -1.1209
  185DOPC  H12B22696   0.602   5.042   2.436 -2.4983  1.4084  2.1559
  185DOPC   C1322697   0.876   5.242   2.483 -0.3874  0.6709  0.6062
  185DOPC  H13A22698   0.857   5.325   2.550  0.1419  0.7813  0.6224
  185DOPC  H13B22699   0.916   5.160   2.541  0.2129 -1.5319 -2.6601
  185DOPC  H13C22700   0.958   5.270   2.420 -0.0474 -0.0519  0.7189
  185DOPC   C1422701   0.676   5.307   2.378 -0.0781  0.9874 -0.2901
  185DOPC  H14A22702   0.634   5.348   2.468  1.7729 -1.0757  1.6361
  185DOPC  H14B22703   0.727   5.387   2.326 -0.7953  1.5350 -0.1637
  185DOPC  H14C22704   0.591   5.276   2.318 -0.2464  0.4918  0.1981
  185DOPC   C1522705   0.812   5.138   2.275  0.0572 -0.5161 -0.2896
  185DOPC  H15A22706   0.862   5.211   2.213 -0.0312 -0.1318  0.0903
  185DOPC  H15B22707   0.739   5.091   2.210 -0.1017 -0.0185 -0.4760
  185DOPC  H15C22708   0.880   5.054   2.285 -0.1818 -0.7818 -0.8311
  185DOPC   C1122709   0.614   5.141   2.628  0.2227 -0.4399  0.8621
  185DOPC  H11A22710   0.596   5.043   2.677 -1.3630 -1.1774 -1.0763
  185DOPC  H11B22711   0.690   5.191   2.693  0.8338 -2.6983  2.0071
  185DOPC     P22712   0.462   5.331   2.699  0.2328 -0.5165  0.0737
  185DOPC   O1322713   0.341   5.405   2.651 -0.0508  0.2019 -0.2958
  185DOPC   O1422714   0.578   5.418   2.713 -0.3521  0.3197  0.5742
  185DOPC   O1222715   0.492   5.215   2.596  0.1764  0.0138  0.5977
  185DOPC   O1122716   0.430   5.250   2.830 -0.4743  0.0364 -0.2096
  185DOPC    C122717   0.308   5.190   2.851  0.4831 -0.0440 -0.1059
  185DOPC    HA22718   0.315   5.080   2.861 -1.1614  0.0563  3.6917
  185DOPC    HB22719   0.245   5.191   2.759  1.1558 -1.3947 -0.5954
  185DOPC    C222720   0.231   5.246   2.975  0.1218 -0.1336  0.4102
  185DOPC    HS22721   0.222   5.356   2.958  0.0387  0.2082  2.4355
  185DOPC   O2122722   0.306   5.203   3.088 -0.2285 -0.2155  0.3818
  185DOPC   C2122723   0.289   5.278   3.195 -0.6353 -0.3929 -0.9214
  185DOPC   O2222724   0.235   5.385   3.196 -0.4621  0.1571 -0.5422
  185DOPC   C2222725   0.357   5.214   3.319 -0.3938  0.0892  0.5808
  185DOPC   H2R22726   0.466   5.222   3.299 -0.4603 -0.4550 -0.0183
  185DOPC   H2S22727   0.329   5.107   3.308  1.0616 -0.6700  3.2651
  185DOPC    C322728   0.085   5.195   2.985  0.9931  0.4943 -1.0356
  185DOPC    HX22729   0.037   5.234   2.892 -2.4411  0.9596  0.7797
  185DOPC    HY22730   0.034   5.248   3.069  1.3371 -0.3229 -0.3013
  185DOPC   O3122731   0.077   5.054   2.986 -0.0407 -0.6709  0.1546
  185DOPC   C3122732   0.050   4.993   3.097 -0.5253  0.2306 -0.1878
  185DOPC   O3222733   0.025   5.044   3.201 -0.3470 -0.2874 -0.0297
  185DOPC   C3222734   0.039   4.840   3.064 -0.2143 -0.1691 -0.6490
  185DOPC   H2X22735  -0.049   4.833   2.997 -1.8052 -0.8265  1.3812
  185DOPC   H2Y22736   0.126   4.814   3.000  0.2471 -1.2124  0.3478
  185DOPC   C2322737   0.316   5.269   3.457  0.3737  0.3861 -0.3778
  185DOPC   H3R22738   0.331   5.379   3.445 -0.4571  0.2914 -2.8937
  185DOPC   H3S22739   0.384   5.230   3.536  4.0941  0.3172 -3.3552
  185DOPC   C2422740   0.162   5.252   3.481  0.6333 -0.3698  0.1815
  185DOPC   H4R22741   0.107   5.259   3.385  0.8695  0.2737  0.0913
  185DOPC   H4S22742   0.128   5.336   3.545 -0.3807  0.1832 -1.0431
  185DOPC   C2522743   0.121   5.123   3.553  0.9730  0.6101  0.3614
  185DOPC   H5R22744   0.184   5.116   3.644  0.2676 -4.0453  0.7265
  185DOPC   H5S22745   0.142   5.035   3.490  1.1009 -0.0631  1.3259
  185DOPC   C2622746  -0.035   5.119   3.580  0.0503  0.0044  0.6915
  185DOPC   H6R22747  -0.066   5.019   3.543 -1.9433  0.5577  0.7820
  185DOPC   H6S22748  -0.091   5.200   3.528  0.5502 -0.0503  0.0547
  185DOPC   C2722749  -0.051   5.124   3.735 -0.0396 -0.0628  0.6465
  185DOPC   H7R22750   0.038   5.085   3.788 -0.1161 -1.7434 -0.3847
  185DOPC   H7S22751  -0.135   5.057   3.761 -2.7015  1.9073 -2.0968
  185DOPC   C2822752  -0.073   5.266   3.797 -0.5030 -0.4306 -0.5221
  185DOPC   H8R22753  -0.159   5.318   3.751 -1.3163 -0.4061  0.9479
  185DOPC   H8S22754   0.027   5.314   3.785 -0.5040 -0.2154  0.2324
  185DOPC   C2922755  -0.096   5.259   3.948  0.4493  0.3391 -0.0434
  185DOPC   H9R22756  -0.008   5.250   4.013  1.6599 -0.2586 -1.6732
  185DOPC  C21022757  -0.215   5.263   4.011  0.6816  0.4292 -0.8628
  185DOPC  H10R22758  -0.223   5.252   4.120 -2.9084 -0.4605 -1.0804
  185DOPC  C21122759  -0.357   5.278   3.950  0.0463  0.2865 -0.6058
  185DOPC  H11R22760  -0.357   5.355   3.870 -0.6447  0.5423 -0.3630
  185DOPC  H11S22761  -0.427   5.309   4.031 -1.0640 -2.1807 -0.5352
  185DOPC  C21222762  -0.417   5.150   3.884  0.1519  0.2433 -0.3447
  185DOPC  H12R22763  -0.345   5.101   3.815  1.4377  1.7662 -0.1281
  185DOPC  H12S22764  -0.492   5.192   3.813 -0.6432  0.5336  0.6318
  185DOPC  C21322765  -0.479   5.061   3.988 -0.3016  0.5596 -0.4633
  185DOPC  H13R22766  -0.556   5.123   4.039  0.6379  1.4328 -0.0972
  185DOPC  H13S22767  -0.402   5.026   4.060 -2.0232  1.4024  1.9082
  185DOPC  C21422768  -0.551   4.932   3.933  0.4281  0.3993 -0.1882
  185DOPC  H14R22769  -0.625   4.867   3.985 -1.7534  0.2723 -3.1732
  185DOPC  H14S22770  -0.475   4.853   3.916  0.7609  0.4983  0.8303
  185DOPC  C21522771  -0.621   4.962   3.795 -0.2177  0.1727  0.3052
  185DOPC  H15R22772  -0.546   4.998   3.722 -1.3825  0.4674 -0.7707
  185DOPC  H15S22773  -0.693   5.041   3.824 -2.2354 -1.3673 -0.2816
  185DOPC  C21622774  -0.690   4.841   3.719 -0.3125 -0.1661 -0.1559
  185DOPC  H16R22775  -0.777   4.796   3.770  1.0955 -1.8588  0.8689
  185DOPC  H16S22776  -0.607   4.767   3.716 -2.5315 -2.7868 -1.3789
  185DOPC  C21722777  -0.720   4.895   3.580 -0.3405  0.2852 -0.2737
  185DOPC  H17R22778  -0.626   4.934   3.537 -1.7599  1.0836 -2.8380
  185DOPC  H17S22779  -0.795   4.977   3.585 -1.2016 -0.5460  2.0499
  185DOPC  C21822780  -0.769   4.787   3.475 -0.6328  0.5108  0.4920
  185DOPC  H18R22781  -0.820   4.836   3.389 -1.8901 -3.7468 -1.4321
  185DOPC  H18S22782  -0.849   4.721   3.513  1.0291 -2.8440 -1.4430
  185DOPC  H18T22783  -0.698   4.709   3.440 -2.2481 -0.4285 -0.8258
  185DOPC   C3322784   0.012   4.747   3.180 -0.3785  0.0156 -0.5362
  185DOPC   H3X22785   0.001   4.648   3.129 -1.5141  0.7275 -1.7325
  185DOPC   H3Y22786  -0.084   4.778   3.226 -0.2019 -0.0550 -0.1211
  185DOPC   C3422787   0.119   4.748   3.297 -0.1334  0.4246  0.2888
  185DOPC   H4X22788   0.116   4.850   3.341 -0.1333  1.2442 -1.5007
  185DOPC   H4Y22789   0.219   4.733   3.252 -0.2733 -1.6572  0.5820
  185DOPC   C3522790   0.089   4.639   3.400  0.7545 -0.1290  0.6024
  185DOPC   H5X22791   0.062   4.540   3.357  1.8432 -1.0523  1.9614
  185DOPC   H5Y22792  -0.005   4.668   3.452  1.8727  2.0657  1.5507
  185DOPC   C3622793   0.200   4.609   3.496 -0.4456 -0.5456  0.1324
  185DOPC   H6X22794   0.290   4.625   3.433 -1.1808 -0.9197 -1.0383
  185DOPC   H6Y22795   0.207   4.691   3.571  0.0117 -0.1229 -0.3633
  185DOPC   C3722796   0.170   4.468   3.558 -0.0341 -0.7325 -0.2606
  185DOPC   H7X22797   0.080   4.477   3.624 -0.1888 -2.0627 -0.2767
  185DOPC   H7Y22798   0.159   4.392   3.478 -0.3798 -0.0896 -0.8383
  185DOPC   C3822799   0.297   4.429   3.637  0.3310  0.1842 -0.1759
  185DOPC   H8X22800   0.383   4.429   3.566  0.8996  0.3334  0.5120
  185DOPC   H8Y22801   0.279   4.325   3.671  1.2962 -0.0487 -0.3417
  185DOPC   C3922802   0.339   4.515   3.752  0.3966 -0.7913  0.3946
  185DOPC   H9X22803   0.334   4.623   3.732  0.5581 -0.6912  0.8625
  185DOPC  C31022804   0.361   4.482   3.885 -0.0748  0.0417 -0.4370
  185DOPC  H10X22805   0.402   4.556   3.954  0.8987  1.0946 -2.0593
  185DOPC  C31122806   0.352   4.338   3.934  0.4752  0.3314  0.1932
  185DOPC  H11X22807   0.419   4.319   4.020 -1.4877  0.8005  1.9153
  185DOPC  H11Y22808   0.387   4.271   3.852 -2.8824 -2.1994  0.6197
  185DOPC  C31222809   0.211   4.291   3.972  0.5856  0.9132  0.4844
  185DOPC  H12X22810   0.147   4.330   3.890 -0.3837 -2.0629 -0.3073
  185DOPC  H12Y22811   0.168   4.338   4.063 -2.1754 -0.4004 -0.0333
  185DOPC  C31322812   0.196   4.145   3.976 -0.0640  0.8821 -0.0781
  185DOPC  H13X22813   0.222   4.103   3.877  1.0568  1.2802  0.0353
  185DOPC  H13Y22814   0.278   4.108   4.042  0.5565  0.1617 -1.2351
  185DOPC  C31422815   0.061   4.090   4.029 -0.0449  0.0225  0.3159
  185DOPC  H14X22816   0.051   3.979   4.019 -0.8020  0.2019 -1.1517
  185DOPC  H14Y22817   0.036   4.108   4.136 -1.3576  3.0247 -0.4025
  185DOPC  C31522818  -0.058   4.149   3.946 -0.2919 -0.6170 -0.2115
  185DOPC  H15X22819  -0.023   4.140   3.841 -0.6765  1.2173 -0.5229
  185DOPC  H15Y22820  -0.068   4.254   3.980  0.0905 -0.3530 -0.8925
  185DOPC  C31622821  -0.187   4.073   3.970  0.4798 -0.9727 -0.6244
  185DOPC  H16X22822  -0.176   3.970   3.930 -1.0939 -1.9751  1.3275
  185DOPC  H16Y22823  -0.235   4.063   4.070  0.3007 -0.1577 -0.6296
  185DOPC  C31722824  -0.295   4.134   3.879  0.1292  0.3999 -0.4924
  185DOPC  H17X22825  -0.337   4.227   3.922  1.4725  0.6239  0.4046
  185DOPC  H17Y22826  -0.248   4.154   3.781  0.5485 -0.7047 -0.5403
  185DOPC  C31822827  -0.412   4.031   3.868 -0.1421 -0.1892  0.0292
  185DOPC  H18X22828  -0.471   4.065   3.780  3.2078  2.0260 -1.5684
  185DOPC  H18Y22829  -0.370   3.931   3.846  3.7147  1.3672 -0.5951
  185DOPC  H18Z22830  -0.486   4.030   3.951 -1.2322  2.1953 -0.8060
  186DOPC     N22831   4.874   2.306   1.905  0.0393 -0.0922 -0.8668
  186DOPC   C1222832   4.928   2.346   2.040  0.0720 -0.0764 -0.9188
  186DOPC  H12A22833   5.007   2.279   2.073 -2.0243 -1.8940  0.7385
  186DOPC  H12B22834   4.847   2.341   2.110  0.0142  0.9593 -0.9043
  186DOPC   C1322835   4.786   2.182   1.919  0.4164 -0.0962  0.2414
  186DOPC  H13A22836   4.726   2.167   1.831  0.0067  0.3125  0.4504
  186DOPC  H13B22837   4.842   2.091   1.937  0.9009 -0.0559 -0.9188
  186DOPC  H13C22838   4.727   2.189   2.009  2.1352  0.8782  1.3381
  186DOPC   C1422839   4.984   2.268   1.807 -1.1729 -0.1423 -0.7624
  186DOPC  H14A22840   4.941   2.235   1.713  1.5234 -0.6809 -1.9126
  186DOPC  H14B22841   5.057   2.347   1.801 -0.5075 -0.8013 -1.8272
  186DOPC  H14C22842   5.036   2.182   1.847 -2.2865  0.6240  2.5818
  186DOPC   C1522843   4.795   2.414   1.847 -1.1693  0.2579  0.2937
  186DOPC  H15A22844   4.860   2.500   1.853  1.1853 -1.4645  1.4527
  186DOPC  H15B22845   4.703   2.428   1.902 -1.1313 -2.1676  1.0875
  186DOPC  H15C22846   4.771   2.391   1.744 -0.2503  0.8130 -0.0562
  186DOPC   C1122847   4.979   2.490   2.066 -0.3819 -0.0059  0.8125
  186DOPC  H11A22848   4.897   2.553   2.027  1.3943 -0.0389 -3.5990
  186DOPC  H11B22849   4.995   2.509   2.174  0.2075  1.0700  0.5536
  186DOPC     P22850   5.248   2.474   2.046 -0.4810  0.1130 -0.2407
  186DOPC   O1322851   5.318   2.595   2.090  0.4682 -0.3744  0.0671
  186DOPC   O1422852   5.315   2.395   1.939  0.5476 -0.4088  0.0290
  186DOPC   O1222853   5.105   2.517   1.994 -0.0066 -0.3548 -0.0728
  186DOPC   O1122854   5.233   2.385   2.174  0.3516 -0.6083  0.3307
  186DOPC    C122855   5.346   2.307   2.216  0.7591  0.1026  0.2907
  186DOPC    HA22856   5.399   2.355   2.301 -0.0255 -0.9878  1.4454
  186DOPC    HB22857   5.425   2.300   2.138 -0.6329  0.7648 -1.2289
  186DOPC    C222858   5.303   2.165   2.249  0.4176 -1.1944  0.0866
  186DOPC    HS22859   5.253   2.130   2.156  0.8938 -2.3913  0.2629
  186DOPC   O2122860   5.219   2.167   2.365  0.9073  0.0016 -0.0184
  186DOPC   C2122861   5.086   2.146   2.340  0.2849 -0.3141  0.6155
  186DOPC   O2222862   5.041   2.138   2.228  0.3062 -0.1839 -0.2855
  186DOPC   C2222863   5.012   2.147   2.470  0.1408  0.5382 -0.6104
  186DOPC   H2R22864   4.905   2.167   2.449  0.7169  2.0416 -2.4179
  186DOPC   H2S22865   5.061   2.228   2.530 -2.5028  1.2315  0.7439
  186DOPC    C322866   5.431   2.086   2.288 -0.1068 -0.2652 -0.0681
  186DOPC    HX22867   5.490   2.072   2.195 -2.5221 -2.5152 -1.4011
  186DOPC    HY22868   5.404   1.981   2.314 -0.9862  0.0782  0.4722
  186DOPC   O3122869   5.512   2.153   2.385  0.0669  0.1320  0.1228
  186DOPC   C3122870   5.509   2.108   2.514  0.9321 -0.0737  0.7311
  186DOPC   O3222871   5.465   2.005   2.556 -0.3540  0.3969 -0.3533
  186DOPC   C3222872   5.581   2.207   2.601  0.1444 -0.3206 -0.0289
  186DOPC   H2X22873   5.688   2.219   2.572  0.0995 -0.0524 -0.0901
  186DOPC   H2Y22874   5.526   2.304   2.594 -2.0708 -1.5079  0.1960
  186DOPC   C2322875   5.032   2.017   2.552  0.1626  0.5215  0.0765
  186DOPC   H3R22876   5.141   1.996   2.563 -0.2669 -1.7871  0.4553
  186DOPC   H3S22877   4.997   1.926   2.500 -1.6102 -0.2636  2.4610
  186DOPC   C2422878   4.964   2.016   2.687  0.5283  0.7349  0.1708
  186DOPC   H4R22879   4.854   2.011   2.673  0.7634 -1.1254 -1.4217
  186DOPC   H4S22880   4.987   2.109   2.745  0.7308  0.4934  0.4829
  186DOPC   C2522881   5.009   1.892   2.770 -0.0869  0.0957  0.3509
  186DOPC   H5R22882   5.026   1.795   2.719  1.2699  0.4527  0.0915
  186DOPC   H5S22883   4.937   1.864   2.850  0.3580 -0.2522  0.6353
  186DOPC   C2622884   5.141   1.911   2.843 -0.2430  0.0078 -0.5021
  186DOPC   H6R22885   5.142   2.005   2.902  0.1816 -0.5406  0.3882
  186DOPC   H6S22886   5.228   1.925   2.774 -0.4209  1.1672 -0.4962
  186DOPC   C2722887   5.176   1.796   2.939 -0.8024 -0.7256  0.2206
  186DOPC   H7R22888   5.205   1.703   2.886 -0.7076 -1.4671  1.5334
  186DOPC   H7S22889   5.088   1.767   2.999 -2.0171  0.4149 -0.9181
  186DOPC   C2822890   5.294   1.821   3.034 -0.6536 -0.0128 -0.0936
  186DOPC   H8R22891   5.299   1.731   3.099  0.7503  0.2299  0.1582
  186DOPC   H8S22892   5.262   1.905   3.098 -1.4518 -1.5410  1.6140
  186DOPC   C2922893   5.421   1.847   2.955 -0.2363  0.1172  0.0066
  186DOPC   H9R22894   5.408   1.926   2.880  2.4160 -0.6914 -1.4322
  186DOPC  C21022895   5.535   1.784   2.972 -0.4819  0.3885 -0.1545
  186DOPC  H10R22896   5.622   1.828   2.921 -1.4927  2.4218 -0.2345
  186DOPC  C21122897   5.574   1.669   3.062  1.0054  0.0173 -0.0454
  186DOPC  H11R22898   5.628   1.593   3.003  1.7576 -1.0959  1.9782
  186DOPC  H11S22899   5.484   1.622   3.109 -1.3966  2.5981 -1.7008
  186DOPC  C21222900   5.658   1.726   3.174 -0.4295  0.0020  0.2871
  186DOPC  H12R22901   5.593   1.796   3.232 -1.3344  0.6685 -1.4493
  186DOPC  H12S22902   5.729   1.796   3.126 -0.4768 -0.6119 -0.7028
  186DOPC  C21322903   5.711   1.608   3.258  0.6960  0.0376 -0.7067
  186DOPC  H13R22904   5.814   1.583   3.224  0.4400 -0.8867 -0.8446
  186DOPC  H13S22905   5.651   1.515   3.245  1.2842 -0.2306 -1.6097
  186DOPC  C21422906   5.716   1.652   3.409 -0.2857  0.1806  0.3593
  186DOPC  H14R22907   5.618   1.644   3.462  0.7287  0.6194  2.4413
  186DOPC  H14S22908   5.736   1.761   3.398  1.4182 -0.2042 -0.6780
  186DOPC  C21522909   5.824   1.598   3.502 -0.2641  0.2774  0.0762
  186DOPC  H15R22910   5.919   1.596   3.445  0.2579  2.5085  0.7593
  186DOPC  H15S22911   5.820   1.489   3.523  1.7340 -0.5836 -3.2053
  186DOPC  C21622912   5.855   1.679   3.634 -0.1075 -0.0541  0.6198
  186DOPC  H16R22913   5.779   1.648   3.710 -0.8583  2.3092  0.8955
  186DOPC  H16S22914   5.837   1.786   3.611 -2.0169 -0.8331 -2.1165
  186DOPC  C21722915   6.007   1.651   3.672 -0.2355 -0.5800 -0.6763
  186DOPC  H17R22916   6.078   1.673   3.589  0.7680 -0.2336  0.2497
  186DOPC  H17S22917   6.021   1.542   3.687 -0.2174 -0.5116 -0.1641
  186DOPC  C21822918   6.047   1.732   3.792  0.1502  0.3969  0.2968
  186DOPC  H18R22919   6.144   1.689   3.828 -0.9780 -3.5390 -0.8229
  186DOPC  H18S22920   5.968   1.730   3.870  1.5281  2.5192  1.8552
  186DOPC  H18T22921   6.057   1.841   3.776  0.0016  0.1749 -1.5062
  186DOPC   C3322922   5.562   2.150   2.745 -0.2472  0.3299 -0.1680
  186DOPC   H3X22923   5.629   2.065   2.767 -0.7619  0.0400  0.3065
  186DOPC   H3Y22924   5.460   2.118   2.777  0.1946  1.6966  2.9805
  186DOPC   C3422925   5.600   2.257   2.843  0.4846 -0.1111  0.6424
  186DOPC   H4X22926   5.524   2.338   2.841 -0.0599 -0.6081  0.8319
  186DOPC   H4Y22927   5.688   2.308   2.799 -2.2719  2.2598 -2.7532
  186DOPC   C3522928   5.630   2.206   2.978  0.4279 -0.0903  0.4184
  186DOPC   H5X22929   5.720   2.141   2.963  1.1270  0.3395  2.5011
  186DOPC   H5Y22930   5.539   2.153   3.012  0.5814  0.3429  1.5343
  186DOPC   C3622931   5.684   2.314   3.076 -0.1806 -0.1427 -0.5737
  186DOPC   H6X22932   5.721   2.257   3.163  1.7195 -0.0806 -1.2872
  186DOPC   H6Y22933   5.782   2.356   3.042  0.8689 -2.7592 -0.9996
  186DOPC   C3722934   5.582   2.416   3.128 -0.0947 -0.3212 -0.3794
  186DOPC   H7X22935   5.564   2.490   3.047  1.8217 -0.2607 -0.8048
  186DOPC   H7Y22936   5.486   2.372   3.162 -0.6695  1.8508  1.0489
  186DOPC   C3822937   5.647   2.498   3.249  0.1445 -0.3394  0.2036
  186DOPC   H8X22938   5.596   2.597   3.254  1.3993  0.3565 -0.2937
  186DOPC   H8Y22939   5.750   2.528   3.221 -0.7235  2.0349 -0.7591
  186DOPC   C3922940   5.647   2.424   3.379 -0.6481  0.5669  0.1735
  186DOPC   H9X22941   5.659   2.315   3.376  0.7757  0.7295 -0.5620
  186DOPC  C31022942   5.622   2.466   3.499 -0.3875 -0.2771 -0.4350
  186DOPC  H10X22943   5.617   2.389   3.578  3.3788  0.3299  0.5842
  186DOPC  C31122944   5.576   2.601   3.540  0.2693 -0.0613  0.5699
  186DOPC  H11X22945   5.589   2.673   3.457 -3.6287  0.9575  0.6688
  186DOPC  H11Y22946   5.635   2.649   3.622  1.2020  1.8812 -1.1504
  186DOPC  C31222947   5.429   2.607   3.572 -0.7425  0.0946 -0.0128
  186DOPC  H12X22948   5.420   2.708   3.617  1.5595 -0.6313  2.3413
  186DOPC  H12Y22949   5.397   2.534   3.650 -0.5171 -0.9445 -0.8652
  186DOPC  C31322950   5.343   2.594   3.445  0.3811 -0.8436  0.0401
  186DOPC  H13X22951   5.374   2.669   3.370 -0.5749  0.9109  1.3375
  186DOPC  H13Y22952   5.343   2.490   3.405 -0.7675 -1.4802  1.5966
  186DOPC  C31422953   5.202   2.637   3.484  0.5881  0.5010 -0.2086
  186DOPC  H14X22954   5.170   2.571   3.567 -0.8042  0.4807 -0.7376
  186DOPC  H14Y22955   5.191   2.745   3.507  0.7098  0.3543  0.5747
  186DOPC  C31522956   5.105   2.622   3.364 -0.1915  0.0152 -0.9097
  186DOPC  H15X22957   5.113   2.526   3.308 -2.3020  0.0123 -1.3032
  186DOPC  H15Y22958   5.128   2.704   3.292  1.3050 -1.0891 -1.7562
  186DOPC  C31622959   4.965   2.638   3.415  0.0427 -0.4001  0.6786
  186DOPC  H16X22960   4.935   2.538   3.455  0.8075 -0.1498  1.9349
  186DOPC  H16Y22961   4.948   2.702   3.504 -1.7236  1.6754 -1.0567
  186DOPC  C31722962   4.868   2.686   3.308 -0.1152 -0.1690 -0.5661
  186DOPC  H17X22963   4.776   2.728   3.353  0.4713 -0.4482  0.9241
  186DOPC  H17Y22964   4.908   2.782   3.267  0.7181 -0.3756 -0.2503
  186DOPC  C31822965   4.834   2.579   3.206  0.6319  0.5236  0.4250
  186DOPC  H18X22966   4.923   2.530   3.163  0.0216 -1.9659  1.8392
  186DOPC  H18Y22967   4.768   2.506   3.258 -2.2531  0.9661 -2.3067
  186DOPC  H18Z22968   4.771   2.626   3.127 -1.2218 -1.5968  0.5366
  187DOPC     N22969   4.315   1.706   1.995 -0.3970  0.1017  0.1459
  187DOPC   C1222970   4.236   1.660   2.119  0.7504  0.0947 -0.4503
  187DOPC  H12A22971   4.169   1.578   2.098  1.2342 -0.6944  0.9583
  187DOPC  H12B22972   4.178   1.747   2.148  1.1066  1.1074 -2.5720
  187DOPC   C1322973   4.224   1.739   1.880 -0.2859  0.0880 -0.5253
  187DOPC  H13A22974   4.157   1.821   1.902 -0.1740  0.1567 -0.4368
  187DOPC  H13B22975   4.283   1.768   1.794 -0.3542  1.2931 -0.1898
  187DOPC  H13C22976   4.170   1.648   1.860  0.6486 -0.5367 -0.2445
  187DOPC   C1422977   4.418   1.603   1.941 -0.3587  0.2027  0.3091
  187DOPC  H14A22978   4.370   1.513   1.905  1.1581 -0.7047  0.4198
  187DOPC  H14B22979   4.473   1.647   1.859  2.6529 -1.4941  1.2504
  187DOPC  H14C22980   4.481   1.570   2.023 -0.7746 -0.5928  0.3258
  187DOPC   C1522981   4.398   1.828   2.028  0.1650  0.0833 -0.4857
  187DOPC  H15A22982   4.441   1.868   1.937  0.8852 -1.8791 -1.0631
  187DOPC  H15B22983   4.475   1.801   2.098 -1.7400  0.6097  1.9590
  187DOPC  H15C22984   4.334   1.898   2.080  0.9041  0.2189  0.2519
  187DOPC   C1122985   4.302   1.611   2.248 -0.5851  0.6435 -0.6993
  187DOPC  H11A22986   4.368   1.694   2.282  2.8530 -1.8288 -0.8187
  187DOPC  H11B22987   4.219   1.589   2.319  0.7754 -2.3084  0.1326
  187DOPC     P22988   4.309   1.355   2.212  0.0589 -0.3272  0.4799
  187DOPC   O1322989   4.408   1.259   2.155  0.1879  0.0914 -0.4044
  187DOPC   O1422990   4.194   1.381   2.119  0.4681  0.6064  0.2759
  187DOPC   O1222991   4.381   1.494   2.233 -0.2296  0.8818 -0.4841
  187DOPC   O1122992   4.254   1.315   2.363 -0.0826  0.1019 -0.0582
  187DOPC    C122993   4.343   1.345   2.468  0.1957  0.3138 -0.1221
  187DOPC    HA22994   4.412   1.429   2.447  0.1740  0.4912  0.5094
  187DOPC    HB22995   4.407   1.264   2.508 -0.3811  0.1936  0.5971
  187DOPC    C222996   4.253   1.383   2.593 -0.2113 -0.0473 -0.7165
  187DOPC    HS22997   4.193   1.295   2.625 -0.3381  0.1055 -0.5368
  187DOPC   O2122998   4.182   1.507   2.566 -0.3294  0.5601 -0.2234
  187DOPC   C2122999   4.080   1.533   2.646  0.0015 -0.1603 -0.5375
  187DOPC   O2223000   4.054   1.468   2.743  0.1307 -0.4250 -0.6761
  187DOPC   C2223001   3.997   1.647   2.596  0.1253  0.3063 -0.6051
  187DOPC   H2R23002   3.933   1.599   2.519 -1.1573 -0.2534  0.7553
  187DOPC   H2S23003   4.055   1.725   2.541  0.2927  1.7409  1.5054
  187DOPC    C323004   4.356   1.401   2.715  0.1373  0.1895  0.4169
  187DOPC    HX23005   4.305   1.443   2.804  0.0111 -0.2778  0.5659
  187DOPC    HY23006   4.440   1.463   2.677 -0.4187  1.2267  0.8416
  187DOPC   O3123007   4.408   1.268   2.740  0.7388  0.1348  0.1082
  187DOPC   C3123008   4.348   1.194   2.829 -0.4294  0.0517 -0.3147
  187DOPC   O3223009   4.245   1.228   2.886  0.2803  0.5962  0.3205
  187DOPC   C3223010   4.431   1.066   2.849 -0.1102  0.6029  0.3109
  187DOPC   H2X23011   4.355   0.986   2.856  2.5292 -2.0991  0.2080
  187DOPC   H2Y23012   4.490   1.046   2.757  0.3269  0.0918  0.6938
  187DOPC   C2323013   3.913   1.711   2.708 -0.1252  0.0550 -0.0856
  187DOPC   H3R23014   3.844   1.646   2.767  0.5572  1.0804  1.9571
  187DOPC   H3S23015   3.841   1.779   2.658  0.5294  2.3121  1.8521
  187DOPC   C2423016   4.003   1.799   2.797 -0.1997  0.2280  0.5479
  187DOPC   H4R23017   4.036   1.886   2.735 -2.9518  0.7719 -0.3079
  187DOPC   H4S23018   4.094   1.745   2.831 -0.0609 -0.3116 -0.6226
  187DOPC   C2523019   3.935   1.865   2.918 -0.6762 -0.3775  0.5872
  187DOPC   H5R23020   3.897   1.776   2.972 -1.0329  0.1139  1.1553
  187DOPC   H5S23021   3.853   1.932   2.885 -0.3848 -0.1261  0.3546
  187DOPC   C2623022   4.033   1.940   3.010  0.0545  0.0955  0.2954
  187DOPC   H6R23023   4.079   2.011   2.938 -2.2196 -0.7011 -2.1219
  187DOPC   H6S23024   4.112   1.867   3.038 -1.2156 -1.1373  0.8202
  187DOPC   C2723025   3.975   1.995   3.142 -0.3813  1.1267 -0.4274
  187DOPC   H7R23026   3.932   1.906   3.192  3.0682 -0.3619  0.1352
  187DOPC   H7S23027   3.897   2.074   3.129 -0.2969  1.0726 -1.2935
  187DOPC   C2823028   4.083   2.051   3.241  0.5422 -0.2817  0.0910
  187DOPC   H8R23029   4.156   1.969   3.260  1.7239  0.5559 -0.7102
  187DOPC   H8S23030   4.032   2.064   3.339 -0.4193 -1.2434 -0.2676
  187DOPC   C2923031   4.153   2.174   3.199 -0.2055 -0.1971 -0.1405
  187DOPC   H9R23032   4.082   2.257   3.202  0.1744  0.2052 -1.4287
  187DOPC  C21023033   4.274   2.199   3.139 -0.3336  0.1648 -0.6654
  187DOPC  H10R23034   4.309   2.302   3.132 -0.1437  0.0264 -2.0043
  187DOPC  C21123035   4.359   2.084   3.090 -0.0596 -0.0373 -0.2937
  187DOPC  H11R23036   4.298   1.996   3.061 -0.9687  0.4175  0.1749
  187DOPC  H11S23037   4.427   2.050   3.170 -1.6641 -1.8258  0.3820
  187DOPC  C21223038   4.436   2.138   2.963  0.3601  0.3358 -0.1335
  187DOPC  H12R23039   4.360   2.194   2.904 -1.6806 -3.3042 -1.2535
  187DOPC  H12S23040   4.464   2.053   2.897 -1.5769 -0.7135  0.2997
  187DOPC  C21323041   4.555   2.232   2.993  0.2467  1.0731  0.1285
  187DOPC  H13R23042   4.642   2.172   3.027 -0.3127 -0.1195 -0.4871
  187DOPC  H13S23043   4.528   2.318   3.058  2.0675  1.1637  0.8408
  187DOPC  C21423044   4.611   2.298   2.869 -0.8740  0.1418 -0.0071
  187DOPC  H14R23045   4.524   2.336   2.811 -2.5292 -0.1023  2.1855
  187DOPC  H14S23046   4.671   2.234   2.801 -0.4177 -0.6428  1.1040
  187DOPC  C21523047   4.697   2.421   2.915  0.2405  0.4474  0.1896
  187DOPC  H15R23048   4.781   2.383   2.978 -1.2817 -1.2149  1.2937
  187DOPC  H15S23049   4.633   2.488   2.976 -0.5905  1.2830 -1.5371
  187DOPC  C21623050   4.744   2.494   2.788 -0.0342  0.3823  0.1064
  187DOPC  H16R23051   4.657   2.548   2.745  0.5774  0.2882 -1.2861
  187DOPC  H16S23052   4.778   2.423   2.711 -1.3037  1.6031 -1.6506
  187DOPC  C21723053   4.848   2.596   2.824  0.3123  0.0993 -0.1940
  187DOPC  H17R23054   4.933   2.547   2.879  0.5936 -0.5094 -1.1462
  187DOPC  H17S23055   4.814   2.686   2.878  0.1211  0.5606 -1.0734
  187DOPC  C21823056   4.913   2.651   2.695  0.0720  0.0776 -0.2312
  187DOPC  H18R23057   4.927   2.573   2.617  0.2189  1.1435 -1.3180
  187DOPC  H18S23058   5.014   2.691   2.719 -0.0396  0.7033 -0.7588
  187DOPC  H18T23059   4.850   2.731   2.649 -0.4967 -1.0250 -1.4311
  187DOPC   C3323060   4.520   1.059   2.979  0.4772  0.5829  0.1657
  187DOPC   H3X23061   4.541   0.951   2.993 -0.4830  0.4751  0.8398
  187DOPC   H3Y23062   4.453   1.092   3.061 -1.2231  1.8508 -1.6424
  187DOPC   C3423063   4.645   1.148   2.974  0.7832  0.7407  0.4638
  187DOPC   H4X23064   4.602   1.239   2.928 -2.7021 -0.7748  0.4081
  187DOPC   H4Y23065   4.707   1.109   2.891  0.9187  1.9378 -0.0195
  187DOPC   C3523066   4.724   1.164   3.109 -0.4958  0.0639 -0.0720
  187DOPC   H5X23067   4.831   1.170   3.080 -0.2413 -1.7186  0.3779
  187DOPC   H5Y23068   4.701   1.066   3.157 -0.0087 -0.1821 -0.3357
  187DOPC   C3623069   4.685   1.284   3.189 -0.5890  1.2677  0.5942
  187DOPC   H6X23070   4.760   1.294   3.270 -0.5001  0.3195  0.6374
  187DOPC   H6Y23071   4.699   1.383   3.139 -0.0202  1.7799  1.7278
  187DOPC   C3723072   4.545   1.275   3.247  0.5151  0.5576 -0.8092
  187DOPC   H7X23073   4.460   1.295   3.178 -0.7581 -1.5506  0.0644
  187DOPC   H7Y23074   4.534   1.175   3.292 -0.0444  1.0374  0.1494
  187DOPC   C3823075   4.526   1.366   3.370  0.8314 -0.8648  0.0776
  187DOPC   H8X23076   4.616   1.368   3.435 -0.1017  1.5692  1.4406
  187DOPC   H8Y23077   4.453   1.311   3.433  0.3450 -1.7710 -1.2152
  187DOPC   C3923078   4.470   1.507   3.343 -0.2736  0.6610  0.7992
  187DOPC   H9X23079   4.427   1.517   3.243 -0.6215 -0.2178  0.8533
  187DOPC  C31023080   4.459   1.608   3.430  0.4443 -0.6515  0.0497
  187DOPC  H10X23081   4.397   1.692   3.398 -0.3949 -0.5450  1.8435
  187DOPC  C31123082   4.508   1.611   3.571 -0.6681 -0.1126 -0.0533
  187DOPC  H11X23083   4.480   1.515   3.620 -0.2253 -0.6762 -0.8863
  187DOPC  H11Y23084   4.450   1.688   3.627 -2.6096 -0.4469 -1.4903
  187DOPC  C31223085   4.660   1.631   3.586 -0.0960 -0.2093  0.0068
  187DOPC  H12X23086   4.687   1.718   3.523  0.1394  0.2732  0.7522
  187DOPC  H12Y23087   4.714   1.545   3.540 -0.6572  1.0160 -3.1865
  187DOPC  C31323088   4.692   1.657   3.734 -0.0932 -0.1948 -0.7005
  187DOPC  H13X23089   4.661   1.764   3.745  0.1119 -0.3429  1.9207
  187DOPC  H13Y23090   4.630   1.587   3.795 -1.7535  1.0064 -0.9210
  187DOPC  C31423091   4.839   1.638   3.760 -0.2893  0.0245  0.3989
  187DOPC  H14X23092   4.864   1.531   3.744  0.8967  0.0801  1.7072
  187DOPC  H14Y23093   4.895   1.696   3.683 -0.7951 -0.2580 -0.1940
  187DOPC  C31523094   4.875   1.687   3.902  0.6672  0.0861  0.0370
  187DOPC  H15X23095   4.810   1.634   3.975  2.1924  1.2229  2.3726
  187DOPC  H15Y23096   4.847   1.794   3.903 -2.7555 -0.7021 -0.9474
  187DOPC  C31623097   5.023   1.670   3.941  0.2247  0.4405 -0.7530
  187DOPC  H16X23098   5.074   1.724   3.858 -2.8331  1.1183 -2.3158
  187DOPC  H16Y23099   5.047   1.716   4.040  0.9911 -1.5476  0.0398
  187DOPC  C31723100   5.070   1.519   3.965  0.1545 -0.2639  0.0937
  187DOPC  H17X23101   4.998   1.460   4.026  0.1519 -0.8804 -0.4928
  187DOPC  H17Y23102   5.060   1.472   3.865  2.7160  0.7680 -0.7178
  187DOPC  C31823103   5.212   1.505   4.028  0.0865  0.2180  0.2687
  187DOPC  H18X23104   5.254   1.403   4.017 -0.2216  0.1516 -0.3853
  187DOPC  H18Y23105   5.289   1.568   3.980  1.9723  0.6101  3.5100
  187DOPC  H18Z23106   5.197   1.528   4.136 -2.8352 -0.4818  0.0969
  188DOPC     N23107   1.930   0.630   2.675 -0.0359  0.1960  0.2591
  188DOPC   C1223108   1.787   0.667   2.687 -0.2163 -0.1771 -0.0098
  188DOPC  H12A23109   1.737   0.580   2.726  1.6441 -0.7446  1.2226
  188DOPC  H12B23110   1.754   0.701   2.590 -0.3891 -0.6317 -0.1126
  188DOPC   C1323111   1.953   0.537   2.562 -0.0590 -1.2046 -0.3355
  188DOPC  H13A23112   1.877   0.462   2.544 -0.3359 -0.8918 -0.4819
  188DOPC  H13B23113   1.965   0.599   2.475  0.7244  3.0100  2.4681
  188DOPC  H13C23114   2.054   0.501   2.575 -0.2237 -1.2888  0.8651
  188DOPC   C1423115   1.977   0.579   2.810  0.0564 -0.1964  0.4075
  188DOPC  H14A23116   2.082   0.555   2.813  0.0439 -0.3161 -0.0618
  188DOPC  H14B23117   1.958   0.652   2.887  2.5438  0.0354  0.8939
  188DOPC  H14C23118   1.931   0.483   2.831  1.5639 -0.7956  1.1034
  188DOPC   C1523119   2.029   0.741   2.643  0.2486 -0.9201  0.5596
  188DOPC  H15A23120   2.126   0.707   2.611  0.3167  0.8840 -1.3593
  188DOPC  H15B23121   2.043   0.796   2.735  1.3060 -0.6141  0.2241
  188DOPC  H15C23122   1.991   0.814   2.573  0.5044 -1.4031 -0.0948
  188DOPC   C1123123   1.742   0.785   2.780  0.1680  0.5250 -0.2440
  188DOPC  H11A23124   1.792   0.873   2.735  0.9929  0.7567  1.0846
  188DOPC  H11B23125   1.632   0.801   2.771 -0.0521  0.0134  1.2484
  188DOPC     P23126   1.668   0.690   3.002 -0.0527  0.0575  0.1891
  188DOPC   O1323127   1.706   0.656   3.141  0.6230 -0.4563 -0.0756
  188DOPC   O1423128   1.604   0.589   2.917  0.3989  0.5061  0.2340
  188DOPC   O1223129   1.787   0.764   2.912 -0.0579  0.2564 -0.2566
  188DOPC   O1123130   1.551   0.790   3.014 -0.5111 -0.0964  0.0423
  188DOPC    C123131   1.530   0.935   2.990  0.9522  0.7876 -0.0299
  188DOPC    HA23132   1.427   0.929   2.949 -0.3343 -1.8845  3.1218
  188DOPC    HB23133   1.589   0.981   2.907  1.7383 -1.3953 -0.7449
  188DOPC    C223134   1.535   1.029   3.117  1.2347 -0.0700 -0.4213
  188DOPC    HS23135   1.521   1.139   3.104  1.1864  0.1715  1.3721
  188DOPC   O2123136   1.658   1.015   3.189  0.1661  0.0150  0.5952
  188DOPC   C2123137   1.770   1.049   3.120 -0.1978  0.2233 -0.8425
  188DOPC   O2223138   1.773   1.082   3.000 -0.1131 -0.2647 -0.1090
  188DOPC   C2223139   1.882   1.048   3.214  0.0685 -0.0867 -0.7321
  188DOPC   H2R23140   1.854   1.102   3.307 -0.7635  0.5713 -1.3447
  188DOPC   H2S23141   1.970   1.096   3.166  2.9876 -2.5140  1.7469
  188DOPC    C323142   1.412   0.991   3.210  0.1113  0.5168 -0.1845
  188DOPC    HX23143   1.427   0.884   3.234 -0.6094  0.3979 -0.2594
  188DOPC    HY23144   1.318   1.005   3.152 -0.4611  1.2057  0.8820
  188DOPC   O3123145   1.417   1.064   3.338 -0.1614  0.3372  0.3064
  188DOPC   C3123146   1.499   1.018   3.431  0.2579  0.6334 -0.3013
  188DOPC   O3223147   1.544   0.905   3.443 -0.3500  0.8533  0.5007
  188DOPC   C3223148   1.528   1.133   3.528 -0.3063  0.7968  0.1764
  188DOPC   H2X23149   1.542   1.228   3.473 -0.7648  1.7336  1.6175
  188DOPC   H2Y23150   1.435   1.158   3.583 -0.2305  0.0066  0.6776
  188DOPC   C2323151   1.933   0.904   3.248  0.6931 -0.1137 -0.9995
  188DOPC   H3R23152   1.966   0.866   3.149 -1.8214 -1.0673 -1.5462
  188DOPC   H3S23153   1.847   0.845   3.288  0.9411 -1.4781 -2.4236
  188DOPC   C2423154   2.052   0.897   3.342  0.4007  0.3665 -0.1157
  188DOPC   H4R23155   2.120   0.977   3.303 -0.5912  0.7545 -1.1029
  188DOPC   H4S23156   2.109   0.804   3.322  0.1344 -0.1757  1.5493
  188DOPC   C2523157   2.018   0.911   3.493 -0.6948  0.5433 -0.3200
  188DOPC   H5R23158   1.925   0.969   3.512 -1.4803 -0.5139 -0.8368
  188DOPC   H5S23159   2.099   0.966   3.546 -0.8387 -0.2374  0.7423
  188DOPC   C2623160   2.019   0.768   3.561 -0.3101  0.1049  0.4842
  188DOPC   H6R23161   2.121   0.725   3.560 -0.3844 -0.0766  0.5932
  188DOPC   H6S23162   1.957   0.708   3.492  1.3263  0.0999 -1.0443
  188DOPC   C2723163   1.956   0.773   3.696 -0.6846 -0.2140 -0.9978
  188DOPC   H7R23164   1.938   0.672   3.737  0.9300 -0.7502 -1.5274
  188DOPC   H7S23165   1.856   0.821   3.694  0.0943  1.4803 -1.1255
  188DOPC   C2823166   2.047   0.837   3.801 -0.2397 -0.3857  0.0600
  188DOPC   H8R23167   2.081   0.940   3.778  1.3905 -1.2313 -1.4826
  188DOPC   H8S23168   2.144   0.784   3.808 -0.0842 -0.0023  0.9592
  188DOPC   C2923169   1.974   0.841   3.939  0.1520 -0.2265  0.8570
  188DOPC   H9R23170   1.869   0.810   3.942  0.4383 -1.3417 -0.2520
  188DOPC  C21023171   2.030   0.900   4.047 -0.8316 -0.1547  0.8344
  188DOPC  H10R23172   1.987   0.885   4.147  0.5051 -0.6760  1.3532
  188DOPC  C21123173   2.164   0.976   4.052 -0.0538  0.4087 -0.3626
  188DOPC  H11R23174   2.183   1.006   3.946 -2.5279  1.2164 -0.6566
  188DOPC  H11S23175   2.246   0.911   4.088 -0.0900 -0.7679 -2.2220
  188DOPC  C21223176   2.137   1.113   4.124 -0.6528 -0.4476 -0.3192
  188DOPC  H12R23177   2.037   1.156   4.101  0.7020  2.1443 -1.8600
  188DOPC  H12S23178   2.206   1.188   4.080 -1.9374  1.4410  0.7554
  188DOPC  C21323179   2.172   1.111   4.279 -0.0273 -0.0241  0.2788
  188DOPC  H13R23180   2.278   1.080   4.293 -0.0236 -0.5886 -0.9214
  188DOPC  H13S23181   2.117   1.034   4.336  1.1788  0.2557  1.8958
  188DOPC  C21423182   2.138   1.236   4.364  0.0592  0.1403 -0.4710
  188DOPC  H14R23183   2.028   1.249   4.365  0.2706  2.2866  0.3795
  188DOPC  H14S23184   2.179   1.321   4.305 -0.2076  0.3070 -0.4155
  188DOPC  C21523185   2.184   1.231   4.515  0.0388  0.0852  0.2412
  188DOPC  H15R23186   2.157   1.331   4.554  0.9516  0.6084 -0.4023
  188DOPC  H15S23187   2.295   1.219   4.511  0.2423  1.8617 -0.0716
  188DOPC  C21623188   2.115   1.124   4.606 -0.0285 -0.1547  0.6013
  188DOPC  H16R23189   2.126   1.025   4.556  0.2188  0.6739 -1.0777
  188DOPC  H16S23190   2.008   1.148   4.623 -0.5704 -1.8694 -0.1760
  188DOPC  C21723191   2.183   1.112   4.741  0.4474 -0.9432 -0.2627
  188DOPC  H17R23192   2.185   1.207   4.798  1.0423 -1.2406  0.2330
  188DOPC  H17S23193   2.290   1.096   4.713  0.3500 -1.4909 -0.3370
  188DOPC  C21823194   2.143   1.004   4.839 -0.3356  0.2067 -0.3817
  188DOPC  H18R23195   2.151   0.900   4.802 -4.3870 -0.3141 -0.2881
  188DOPC  H18S23196   2.035   1.014   4.863 -0.4201 -1.4582  0.0525
  188DOPC  H18T23197   2.198   1.018   4.934  1.5301 -1.6799 -1.1261
  188DOPC   C3323198   1.635   1.099   3.634 -0.3838 -0.1043  0.2021
  188DOPC   H3X23199   1.735   1.111   3.586  0.0074  0.7591  1.1902
  188DOPC   H3Y23200   1.628   0.996   3.675  2.1121  0.4548  2.2605
  188DOPC   C3423201   1.625   1.195   3.751 -0.0303  0.7125 -0.0133
  188DOPC   H4X23202   1.526   1.187   3.801 -0.2619 -1.4312 -0.6975
  188DOPC   H4Y23203   1.637   1.297   3.708  2.8208 -0.0791 -1.3113
  188DOPC   C3523204   1.735   1.170   3.858  0.9384  0.1663  0.3223
  188DOPC   H5X23205   1.836   1.170   3.814  1.0308  2.4333  0.4391
  188DOPC   H5Y23206   1.718   1.064   3.891  1.0481  0.3905  1.1375
  188DOPC   C3623207   1.732   1.258   3.988  0.5841  0.1076 -0.4336
  188DOPC   H6X23208   1.805   1.210   4.057 -1.0133  1.3779  2.3096
  188DOPC   H6Y23209   1.769   1.361   3.969  2.4421 -0.8591 -2.5441
  188DOPC   C3723210   1.606   1.256   4.077  1.3883 -0.6596  0.2429
  188DOPC   H7X23211   1.514   1.283   4.020  0.9700  2.0280  2.0138
  188DOPC   H7Y23212   1.591   1.159   4.129  1.2835 -0.1492  1.1866
  188DOPC   C3823213   1.616   1.366   4.198 -0.2410  0.0474  0.5685
  188DOPC   H8X23214   1.516   1.372   4.248 -0.5154  1.4455 -0.1048
  188DOPC   H8Y23215   1.631   1.464   4.149  1.2099 -0.3440  0.1776
  188DOPC   C3923216   1.731   1.325   4.290 -0.3062  0.7659  0.3485
  188DOPC   H9X23217   1.824   1.380   4.267 -0.3378  0.2637 -1.0904
  188DOPC  C31023218   1.733   1.235   4.384 -0.3866 -0.0056  0.6389
  188DOPC  H10X23219   1.818   1.216   4.451 -0.9268  1.1317  1.7064
  188DOPC  C31123220   1.617   1.150   4.416 -0.1679 -0.2257 -0.6199
  188DOPC  H11X23221   1.638   1.041   4.402  1.2113  0.2990 -3.3635
  188DOPC  H11Y23222   1.526   1.171   4.355 -0.0122 -1.8270 -1.4745
  188DOPC  C31223223   1.582   1.153   4.565 -0.9038 -0.5014 -0.2578
  188DOPC  H12X23224   1.596   1.256   4.603  0.1720 -0.5596 -0.4706
  188DOPC  H12Y23225   1.656   1.094   4.623  0.2963  1.4500  0.3004
  188DOPC  C31323226   1.443   1.116   4.604 -0.3351  0.8950 -0.8130
  188DOPC  H13X23227   1.435   1.140   4.712 -0.7808  1.6144 -1.0021
  188DOPC  H13Y23228   1.373   1.165   4.533 -0.4688  2.1604  0.1592
  188DOPC  C31423229   1.407   0.966   4.591  0.2493 -0.1775  0.5788
  188DOPC  H14X23230   1.429   0.933   4.487  0.6098  0.2067  0.5307
  188DOPC  H14Y23231   1.477   0.914   4.660  1.2069  0.7072  0.2914
  188DOPC  C31523232   1.259   0.925   4.630  0.1159 -0.2430 -0.1834
  188DOPC  H15X23233   1.191   0.964   4.551  1.7989 -1.0768 -2.1340
  188DOPC  H15Y23234   1.228   0.957   4.732 -1.0901 -0.6211 -0.4140
  188DOPC  C31623235   1.236   0.769   4.631  0.1895  0.2258  0.0321
  188DOPC  H16X23236   1.256   0.729   4.529  0.2994  1.4203 -0.4332
  188DOPC  H16Y23237   1.291   0.709   4.706 -0.0664 -0.6434 -0.4596
  188DOPC  C31723238   1.081   0.749   4.647  0.4812  0.1876 -0.7174
  188DOPC  H17X23239   1.057   0.781   4.751  0.5098 -1.0515 -0.3132
  188DOPC  H17Y23240   1.017   0.813   4.583 -0.4887  1.3914  1.3351
  188DOPC  C31823241   1.029   0.604   4.640  0.5714  0.5951 -0.7061
  188DOPC  H18X23242   0.958   0.582   4.722 -0.6498  0.7809 -1.6811
  188DOPC  H18Y23243   0.968   0.596   4.547 -0.5156 -0.7048  0.0885
  188DOPC  H18Z23244   1.112   0.530   4.633 -0.7868 -1.2796  1.6360
  189DOPC     N23245   3.872   5.979   2.228 -0.7992 -0.3200 -0.0708
  189DOPC   C1223246   3.987   6.057   2.165 -0.0435 -0.4679  0.3467
  189DOPC  H12A23247   3.982   6.156   2.208 -1.4487 -0.2426 -0.2746
  189DOPC  H12B23248   3.964   6.072   2.061 -2.5635  1.1991  1.0494
  189DOPC   C1323249   3.869   5.838   2.182 -0.4935 -0.7125  0.7425
  189DOPC  H13A23250   3.950   5.773   2.210 -0.2376 -1.6792 -1.9155
  189DOPC  H13B23251   3.790   5.781   2.229 -1.2838 -1.1184 -0.9724
  189DOPC  H13C23252   3.858   5.830   2.074  1.0240  0.0498  0.5115
  189DOPC   C1423253   3.738   6.042   2.213  0.2692  0.3160  0.1314
  189DOPC  H14A23254   3.725   6.143   2.248 -2.0157 -0.6368  2.3865
  189DOPC  H14B23255   3.715   6.032   2.108  1.1088 -0.6275  0.0314
  189DOPC  H14C23256   3.671   5.983   2.274  1.9435  0.1288  1.8957
  189DOPC   C1523257   3.892   5.980   2.381  0.2562  0.0642 -0.1266
  189DOPC  H15A23258   3.820   5.935   2.447  0.8822  0.3570  0.7771
  189DOPC  H15B23259   3.897   6.086   2.404 -2.4180  0.3170 -0.3416
  189DOPC  H15C23260   3.994   5.950   2.398  0.9045  1.6230 -1.0386
  189DOPC   C1123261   4.135   6.003   2.185  0.0727 -0.5302 -0.7795
  189DOPC  H11A23262   4.131   5.897   2.154  2.3802 -0.5374 -1.2525
  189DOPC  H11B23263   4.201   6.059   2.116  0.4292 -0.2100 -0.1910
  189DOPC     P23264   4.220   6.132   2.386  0.2873 -0.1379  0.1806
  189DOPC   O1323265   4.210   6.123   2.531 -0.0161 -0.2831  0.0750
  189DOPC   O1423266   4.157   6.250   2.317 -0.3216  0.3607 -0.0601
  189DOPC   O1223267   4.174   5.996   2.324  0.0010  0.0390  0.6334
  189DOPC   O1123268   4.375   6.130   2.346 -0.1558  0.2711  0.6710
  189DOPC    C123269   4.460   6.022   2.394  0.6437 -0.1539 -0.0323
  189DOPC    HA23270   4.554   6.035   2.335  0.6120 -3.4814 -0.9810
  189DOPC    HB23271   4.427   5.921   2.362 -1.9097  0.8110 -0.6969
  189DOPC    C223272   4.498   6.026   2.544 -0.6770 -0.0323  0.0653
  189DOPC    HS23273   4.416   5.979   2.603 -0.6737  0.2714  0.3155
  189DOPC   O2123274   4.540   6.162   2.585 -0.1990 -0.0267 -0.5212
  189DOPC   C2123275   4.480   6.202   2.692 -1.1900  0.3956  0.2537
  189DOPC   O2223276   4.408   6.131   2.761  0.4320 -0.4828 -0.0122
  189DOPC   C2223277   4.511   6.347   2.706 -0.1564 -0.0997  0.1346
  189DOPC   H2R23278   4.515   6.393   2.605  0.4978 -1.8106 -0.6594
  189DOPC   H2S23279   4.612   6.366   2.748  0.2210  0.8967 -1.1380
  189DOPC    C323280   4.618   5.929   2.573  0.1454  0.1527  0.0519
  189DOPC    HX23281   4.699   5.959   2.503  0.5969  0.9630  0.9016
  189DOPC    HY23282   4.593   5.825   2.545  0.3727  0.4427 -1.2979
  189DOPC   O3123283   4.675   5.931   2.702 -0.7044  0.3739 -0.3795
  189DOPC   C3123284   4.622   5.861   2.801  0.6041  0.0329  0.4528
  189DOPC   O3223285   4.520   5.789   2.793  0.0527 -0.3410  0.1942
  189DOPC   C3223286   4.694   5.887   2.933 -0.1335  0.2295  0.0760
  189DOPC   H2X23287   4.636   5.830   3.008  0.0857 -1.2750 -0.8538
  189DOPC   H2Y23288   4.794   5.838   2.926  0.7492  1.4298  2.7422
  189DOPC   C2323289   4.406   6.413   2.799  0.4829  0.0751  0.4737
  189DOPC   H3R23290   4.307   6.368   2.779 -0.2886  1.3414  1.3301
  189DOPC   H3S23291   4.388   6.516   2.763 -0.9481 -0.8594 -1.7452
  189DOPC   C2423292   4.447   6.416   2.944  0.0569  0.6097  0.7535
  189DOPC   H4R23293   4.538   6.479   2.951  0.7783 -0.4156  0.8956
  189DOPC   H4S23294   4.453   6.308   2.972  1.4901 -0.4427 -3.0418
  189DOPC   C2523295   4.336   6.490   3.031 -0.1508  0.3502  0.5640
  189DOPC   H5R23296   4.243   6.432   3.015 -0.9384  2.1917 -2.0641
  189DOPC   H5S23297   4.325   6.595   2.996 -0.5287 -0.0572 -0.5567
  189DOPC   C2623298   4.362   6.496   3.183 -0.3370  0.3018  0.2775
  189DOPC   H6R23299   4.468   6.531   3.184 -1.1155  3.1276 -1.8460
  189DOPC   H6S23300   4.360   6.395   3.228 -1.0115 -0.1925 -0.8112
  189DOPC   C2723301   4.267   6.588   3.272  0.9595 -0.3831 -0.8713
  189DOPC   H7R23302   4.168   6.542   3.252  0.3833  0.3079  0.3222
  189DOPC   H7S23303   4.265   6.694   3.237  1.1843 -0.6084 -1.5844
  189DOPC   C2823304   4.300   6.575   3.423  0.3339 -0.6439 -0.4493
  189DOPC   H8R23305   4.326   6.470   3.448  1.6624 -0.0863  0.6374
  189DOPC   H8S23306   4.216   6.609   3.487  0.3422 -0.0628 -0.7388
  189DOPC   C2923307   4.425   6.657   3.463  0.8307 -0.6056 -0.0512
  189DOPC   H9R23308   4.513   6.632   3.403  2.2342 -2.6892  2.6845
  189DOPC  C21023309   4.420   6.767   3.549  0.6228 -0.8627 -0.5091
  189DOPC  H10R23310   4.512   6.816   3.584  1.0562 -2.6405  1.0069
  189DOPC  C21123311   4.304   6.828   3.621 -0.1967 -0.2239  0.1211
  189DOPC  H11R23312   4.207   6.802   3.574 -0.6292 -0.4634  1.0976
  189DOPC  H11S23313   4.299   6.939   3.619 -2.7439 -0.2823 -1.0366
  189DOPC  C21223314   4.302   6.789   3.773  0.1777 -0.6003 -0.4019
  189DOPC  H12R23315   4.313   6.678   3.770  1.7539 -0.4489 -1.4875
  189DOPC  H12S23316   4.205   6.832   3.805  0.7402  2.1727 -2.0765
  189DOPC  C21323317   4.420   6.851   3.856 -0.5231 -0.0589  0.5646
  189DOPC  H13R23318   4.516   6.804   3.826 -1.3701 -1.0478 -0.7032
  189DOPC  H13S23319   4.408   6.825   3.963  0.2684  0.5748  0.8237
  189DOPC  C21423320   4.417   7.006   3.850 -0.2984  0.5942  0.6763
  189DOPC  H14R23321   4.323   7.040   3.898 -0.9052 -1.2265  0.8673
  189DOPC  H14S23322   4.405   7.040   3.745 -1.0106  1.1334  0.9187
  189DOPC  C21523323   4.531   7.080   3.899 -0.2472 -0.7696  0.2182
  189DOPC  H15R23324   4.617   7.072   3.829 -1.0994  1.1725 -1.1099
  189DOPC  H15S23325   4.563   7.043   4.000 -0.4509  2.0338  1.3954
  189DOPC  C21623326   4.514   7.234   3.900  0.6440  1.2148 -0.2804
  189DOPC  H16R23327   4.418   7.272   3.943 -2.1632 -3.4046 -1.7508
  189DOPC  H16S23328   4.483   7.248   3.794 -1.7869 -0.5409  0.1185
  189DOPC  C21723329   4.650   7.296   3.932  0.4450 -0.0839  0.2740
  189DOPC  H17R23330   4.650   7.403   3.900  0.8126 -0.6513 -1.7934
  189DOPC  H17S23331   4.730   7.242   3.877  2.7593  1.4888  1.9361
  189DOPC  C21823332   4.679   7.295   4.085  0.0923  0.4294  0.3323
  189DOPC  H18R23333   4.632   7.383   4.134 -2.3538 -0.7381  0.2175
  189DOPC  H18S23334   4.789   7.305   4.096 -0.1458  2.0297  1.5902
  189DOPC  H18T23335   4.649   7.196   4.126 -1.3229  0.7996  0.2214
  189DOPC   C3323336   4.705   6.041   2.968  0.6866 -0.1943  0.3333
  189DOPC   H3X23337   4.604   6.086   2.973  0.6652 -0.2423  0.3352
  189DOPC   H3Y23338   4.764   6.085   2.886  2.0900 -0.0921  1.3639
  189DOPC   C3423339   4.765   6.065   3.108  0.4241 -0.2985  1.1458
  189DOPC   H4X23340   4.866   6.020   3.102  0.9536  0.8430  1.2773
  189DOPC   H4Y23341   4.700   6.000   3.170  0.2839 -0.7015  0.5848
  189DOPC   C3523342   4.771   6.214   3.150 -0.5716 -0.0053 -0.5129
  189DOPC   H5X23343   4.666   6.248   3.139 -0.8511 -0.1474  1.4456
  189DOPC   H5Y23344   4.835   6.251   3.066  0.7805 -0.1215  0.4373
  189DOPC   C3623345   4.815   6.240   3.292 -0.0100  0.5461  0.0188
  189DOPC   H6X23346   4.733   6.221   3.364  2.2874  0.2826  2.7230
  189DOPC   H6Y23347   4.897   6.166   3.309 -0.5669  0.1989  1.2448
  189DOPC   C3723348   4.867   6.378   3.306  0.4077 -0.0516  0.0145
  189DOPC   H7X23349   4.947   6.382   3.229 -0.0103  0.2444 -0.4124
  189DOPC   H7Y23350   4.787   6.452   3.285 -0.3089 -0.4435  1.2744
  189DOPC   C3823351   4.932   6.400   3.444  1.4295 -0.4237  0.6777
  189DOPC   H8X23352   4.990   6.495   3.439 -0.7324  0.9233 -1.3209
  189DOPC   H8Y23353   5.005   6.320   3.468  1.5703 -0.8205 -0.9795
  189DOPC   C3923354   4.830   6.414   3.556 -0.4928  0.0139 -0.0468
  189DOPC   H9X23355   4.745   6.481   3.538 -1.2979 -0.0917  2.8279
  189DOPC  C31023356   4.835   6.356   3.676 -0.7562  0.0310 -0.3044
  189DOPC  H10X23357   4.755   6.374   3.749  0.5494  0.5390  1.0419
  189DOPC  C31123358   4.942   6.255   3.709 -0.2085 -0.0930 -0.6497
  189DOPC  H11X23359   4.947   6.263   3.820 -1.0700  1.3416 -0.6853
  189DOPC  H11Y23360   5.041   6.297   3.684 -1.2075  1.3858 -2.3441
  189DOPC  C31223361   4.917   6.115   3.665 -0.0797  0.3366  0.7161
  189DOPC  H12X23362   4.927   6.123   3.554  2.9269  1.8194  0.9972
  189DOPC  H12Y23363   4.820   6.069   3.693  0.3759 -0.8584  0.3625
  189DOPC  C31323364   5.024   6.024   3.727  0.0319  0.5464 -0.5600
  189DOPC  H13X23365   5.119   6.049   3.676  0.9040 -0.6185  0.4521
  189DOPC  H13Y23366   5.030   6.045   3.836 -0.5880  1.2138 -0.6509
  189DOPC  C31423367   4.985   5.877   3.705 -0.0867 -0.2068  0.2147
  189DOPC  H14X23368   5.057   5.813   3.762  0.8746  1.1564  0.5861
  189DOPC  H14Y23369   4.881   5.870   3.742 -0.4658  0.1950 -0.7691
  189DOPC  C31523370   4.986   5.846   3.550  0.0197  0.2557  0.2090
  189DOPC  H15X23371   5.081   5.873   3.499 -0.4005  0.5140 -0.4571
  189DOPC  H15Y23372   4.904   5.901   3.499 -1.6961 -1.2598  1.2113
  189DOPC  C31623373   4.976   5.693   3.540 -0.1615  0.2487  0.5062
  189DOPC  H16X23374   5.023   5.649   3.630 -2.5825  0.3418  1.9070
  189DOPC  H16Y23375   4.871   5.660   3.526 -0.0284  0.8259 -2.7957
  189DOPC  C31723376   5.060   5.623   3.432 -0.1939 -0.7537  0.0301
  189DOPC  H17X23377   5.169   5.622   3.454 -0.2573 -2.3392  0.4333
  189DOPC  H17Y23378   5.026   5.517   3.429 -0.3559 -0.6847 -0.5221
  189DOPC  C31823379   5.027   5.678   3.292  0.5386 -0.5767  0.3259
  189DOPC  H18X23380   5.065   5.612   3.211  0.7391  0.5542 -0.5433
  189DOPC  H18Y23381   4.917   5.695   3.283  0.7091 -0.0059 -1.0397
  189DOPC  H18Z23382   5.075   5.778   3.284 -0.0022 -0.4471 -2.3877
  190DOPC     N23383   4.195   6.642   2.398  0.5336  0.0899  0.7807
  190DOPC   C1223384   4.055   6.680   2.345  0.3890  0.2684  0.1277
  190DOPC  H12A23385   3.980   6.678   2.423 -0.2031  3.1661 -0.2308
  190DOPC  H12B23386   4.041   6.615   2.260  1.7658  1.5379 -1.1495
  190DOPC   C1323387   4.249   6.740   2.499  0.9762  0.1414  0.0563
  190DOPC  H13A23388   4.347   6.706   2.530  0.7208 -4.1486 -2.9507
  190DOPC  H13B23389   4.262   6.835   2.450  1.0213  0.0022 -0.2006
  190DOPC  H13C23390   4.180   6.756   2.580  2.3563  2.1213  0.9367
  190DOPC   C1423391   4.295   6.630   2.283  0.0110 -0.2416 -0.3492
  190DOPC  H14A23392   4.326   6.713   2.221 -1.4239  0.1001 -0.6511
  190DOPC  H14B23393   4.391   6.610   2.328 -0.4557  1.6713  1.6343
  190DOPC  H14C23394   4.259   6.552   2.217 -3.1110  0.9527 -0.2642
  190DOPC   C1523395   4.184   6.499   2.446  0.2154  0.2651 -0.2309
  190DOPC  H15A23396   4.279   6.455   2.472 -0.3409 -0.6024  0.3941
  190DOPC  H15B23397   4.149   6.442   2.362 -1.2138  1.4480 -0.4911
  190DOPC  H15C23398   4.114   6.506   2.529 -0.1881  1.0016 -0.6215
  190DOPC   C1123399   4.049   6.812   2.274 -0.1263 -1.0800 -0.3666
  190DOPC  H11A23400   4.143   6.838   2.220 -0.4244 -1.6019 -1.1489
  190DOPC  H11B23401   3.969   6.808   2.197  0.6349 -0.7593 -1.1880
  190DOPC     P23402   3.884   6.926   2.450  0.2278 -0.3320 -0.0802
  190DOPC   O1323403   3.881   6.805   2.539 -0.2563  0.0782  0.9231
  190DOPC   O1423404   3.761   6.948   2.366  0.3512  0.3210 -0.1582
  190DOPC   O1223405   4.016   6.916   2.365  0.4514  0.3018 -0.0154
  190DOPC   O1123406   3.901   7.059   2.529  0.3320  0.7347  0.0457
  190DOPC    C123407   4.023   7.112   2.588  0.1693 -0.2440 -0.4570
  190DOPC    HA23408   4.056   7.199   2.529 -0.2823  0.7603  0.7346
  190DOPC    HB23409   4.117   7.053   2.583  1.7558  2.0356  0.8008
  190DOPC    C223410   4.002   7.142   2.740 -1.2388 -0.3070 -0.3669
  190DOPC    HS23411   3.962   7.055   2.796  1.6353 -1.2349  0.4421
  190DOPC   O2123412   3.932   7.266   2.746  0.1721 -0.2587  0.1826
  190DOPC   C2123413   3.825   7.265   2.829  0.3217 -0.3194  0.5293
  190DOPC   O2223414   3.801   7.172   2.900  0.1934 -0.7817  0.1211
  190DOPC   C2223415   3.747   7.391   2.812 -0.2751  1.2552  0.2675
  190DOPC   H2R23416   3.713   7.400   2.707 -0.8789 -0.7228  0.2579
  190DOPC   H2S23417   3.817   7.476   2.830 -0.6742  1.7028 -0.2916
  190DOPC    C323418   4.138   7.170   2.818  0.2303 -0.2862 -0.0423
  190DOPC    HX23419   4.186   7.258   2.768 -2.5024  2.2358  1.4258
  190DOPC    HY23420   4.207   7.084   2.816 -1.1894 -1.4549 -0.8174
  190DOPC   O3123421   4.111   7.211   2.953 -0.1690  0.2591  0.7418
  190DOPC   C3123422   4.076   7.108   3.031 -0.2740 -0.3593  0.2679
  190DOPC   O3223423   4.079   6.989   2.994  0.1190 -0.4484 -0.1064
  190DOPC   C3223424   4.037   7.158   3.168  0.3699 -0.5306  0.5749
  190DOPC   H2X23425   4.125   7.211   3.209  0.7274 -0.6789  0.0171
  190DOPC   H2Y23426   3.964   7.240   3.148 -1.3485 -1.8554  1.1242
  190DOPC   C2323427   3.628   7.420   2.913 -0.4321  0.4441 -0.5567
  190DOPC   H3R23428   3.565   7.331   2.932 -1.1966  1.1476  0.2987
  190DOPC   H3S23429   3.567   7.501   2.868 -2.8445 -0.8111  0.2913
  190DOPC   C2423430   3.662   7.478   3.051 -0.2636  0.2722 -0.1133
  190DOPC   H4R23431   3.716   7.573   3.035 -0.7225  0.6434  0.4974
  190DOPC   H4S23432   3.734   7.420   3.112 -2.8583 -0.1532  2.8269
  190DOPC   C2523433   3.539   7.508   3.132  0.0164 -0.0637 -0.2556
  190DOPC   H5R23434   3.478   7.420   3.161 -0.2724  0.7232  1.6552
  190DOPC   H5S23435   3.473   7.567   3.065  1.8402 -1.2729 -3.3736
  190DOPC   C2623436   3.576   7.586   3.257  0.2426  0.2255 -0.0224
  190DOPC   H6R23437   3.638   7.676   3.235  3.2684 -1.6176  0.5537
  190DOPC   H6S23438   3.642   7.526   3.323  1.2097  0.6290 -0.6045
  190DOPC   C2723439   3.448   7.623   3.340  0.4249 -0.0360  0.3163
  190DOPC   H7R23440   3.409   7.536   3.396  0.3193 -0.0240  0.2617
  190DOPC   H7S23441   3.368   7.645   3.266  0.1051 -3.5895 -0.5510
  190DOPC   C2823442   3.470   7.739   3.437  0.2495  0.8067 -0.7428
  190DOPC   H8R23443   3.493   7.832   3.380  1.0819  0.0483 -1.6969
  190DOPC   H8S23444   3.557   7.722   3.504 -0.2142  2.2872  0.2973
  190DOPC   C2923445   3.359   7.769   3.529  1.0993 -0.4007 -0.1973
  190DOPC   H9R23446   3.261   7.738   3.489  0.4965  1.5455 -0.3166
  190DOPC  C21023447   3.356   7.805   3.661  0.6956  0.8850 -0.7619
  190DOPC  H10R23448   3.258   7.815   3.711  1.1474 -0.4397  0.4466
  190DOPC  C21123449   3.475   7.833   3.747 -0.1448 -0.5991  0.3041
  190DOPC  H11R23450   3.475   7.935   3.790 -0.9237  0.2673 -1.6445
  190DOPC  H11S23451   3.566   7.841   3.684  1.1352 -1.6302  1.9092
  190DOPC  C21223452   3.514   7.730   3.851 -0.2453  0.1532  0.1452
  190DOPC  H12R23453   3.527   7.632   3.800  1.6860  0.2563  0.3465
  190DOPC  H12S23454   3.438   7.730   3.932 -3.3442  2.4676 -2.5034
  190DOPC  C21323455   3.644   7.756   3.929 -0.4330 -0.2732 -0.4412
  190DOPC  H13R23456   3.711   7.768   3.840 -0.5194 -0.7761 -0.5728
  190DOPC  H13S23457   3.683   7.663   3.975  3.0329  2.0713  1.8410
  190DOPC  C21423458   3.654   7.874   4.028 -0.0618  0.0666  0.4384
  190DOPC  H14R23459   3.593   7.861   4.120 -1.6838  0.6430 -0.5322
  190DOPC  H14S23460   3.625   7.965   3.971 -1.3465 -1.8482 -2.1452
  190DOPC  C21523461   3.802   7.906   4.071 -0.2316  0.6207 -0.6083
  190DOPC  H15R23462   3.873   7.879   3.990  0.9841  2.5449 -0.2385
  190DOPC  H15S23463   3.821   7.851   4.165 -0.5293  1.3066 -0.1389
  190DOPC  C21623464   3.839   8.054   4.108  0.8552  0.1419  0.1151
  190DOPC  H16R23465   3.745   8.088   4.156  1.7933 -0.5737  2.6123
  190DOPC  H16S23466   3.859   8.110   4.015 -1.0344 -0.8356 -0.9541
  190DOPC  C21723467   3.961   8.081   4.192  0.4942 -0.1432 -0.9669
  190DOPC  H17R23468   3.945   8.071   4.301 -1.2175  1.6735 -0.9826
  190DOPC  H17S23469   3.993   8.188   4.193  2.4856 -0.6917  1.0036
  190DOPC  C21823470   4.093   8.005   4.165  0.0243 -0.3435 -0.3646
  190DOPC  H18R23471   4.138   8.020   4.065 -0.9278  1.7979 -0.5391
  190DOPC  H18S23472   4.083   7.899   4.195  1.3889 -0.3349  0.1813
  190DOPC  H18T23473   4.170   8.055   4.228  1.1115 -2.6061  0.2247
  190DOPC   C3323474   3.959   7.062   3.258 -0.7887 -0.2906 -0.5275
  190DOPC   H3X23475   4.035   6.988   3.292  0.9793  1.4239 -0.5775
  190DOPC   H3Y23476   3.876   7.005   3.210 -0.0877  0.3468 -2.5735
  190DOPC   C3423477   3.912   7.131   3.390 -0.3064  0.1261  0.6200
  190DOPC   H4X23478   3.818   7.190   3.385 -0.9559 -0.9021  0.4175
  190DOPC   H4Y23479   3.996   7.195   3.426  0.5150 -1.2702  1.2722
  190DOPC   C3523480   3.888   7.022   3.494 -0.4270 -0.0493 -0.5268
  190DOPC   H5X23481   3.984   6.966   3.504 -0.8034 -0.6689 -0.3014
  190DOPC   H5Y23482   3.826   6.940   3.450  1.6986 -1.8367 -0.3679
  190DOPC   C3623483   3.819   7.066   3.621 -0.3572 -0.1058 -0.2887
  190DOPC   H6X23484   3.830   7.175   3.637 -1.4421 -0.2033  1.3944
  190DOPC   H6Y23485   3.710   7.045   3.618 -0.4083  0.1469 -0.2373
  190DOPC   C3723486   3.884   6.997   3.742  0.2660  0.1358  0.4060
  190DOPC   H7X23487   3.994   7.016   3.740  0.2102  0.4835  0.6504
  190DOPC   H7Y23488   3.846   7.039   3.837 -2.0795 -0.5857 -0.1498
  190DOPC   C3823489   3.863   6.842   3.742  0.1322 -0.0072  0.3938
  190DOPC   H8X23490   3.920   6.802   3.656  0.4285  1.3870 -0.0843
  190DOPC   H8Y23491   3.758   6.820   3.712  0.1990  1.3521 -0.9761
  190DOPC   C3923492   3.890   6.772   3.872 -0.2889 -0.6499  0.3589
  190DOPC   H9X23493   3.987   6.724   3.854 -0.3425 -0.0976 -1.6107
  190DOPC  C31023494   3.819   6.772   3.987  0.1278 -0.0320  0.9461
  190DOPC  H10X23495   3.848   6.706   4.071  0.4348 -3.8539 -1.9287
  190DOPC  C31123496   3.680   6.824   4.009 -0.0566  0.3575 -0.7931
  190DOPC  H11X23497   3.662   6.923   3.962  1.7219  0.2555 -1.7337
  190DOPC  H11Y23498   3.674   6.845   4.118 -0.0201 -2.7135 -0.0971
  190DOPC  C31223499   3.564   6.734   3.986  0.0943  0.2914 -0.0195
  190DOPC  H12X23500   3.473   6.775   4.033 -0.0958  0.3790 -0.4670
  190DOPC  H12Y23501   3.584   6.635   4.033 -1.8708 -0.3926 -0.5533
  190DOPC  C31323502   3.530   6.725   3.835 -0.1394  0.1767 -0.2470
  190DOPC  H13X23503   3.530   6.823   3.783 -1.0512  0.5465  0.4229
  190DOPC  H13Y23504   3.602   6.648   3.800  1.8449  0.9338  1.9001
  190DOPC  C31423505   3.392   6.662   3.803 -0.0359  0.3337  0.6324
  190DOPC  H14X23506   3.381   6.559   3.845  3.2439  0.6906  2.7893
  190DOPC  H14Y23507   3.317   6.728   3.851  1.8422  2.2459  1.0628
  190DOPC  C31523508   3.364   6.657   3.652  0.5973  0.3944 -0.7874
  190DOPC  H15X23509   3.429   6.584   3.599 -0.7164 -1.8044  0.4963
  190DOPC  H15Y23510   3.376   6.758   3.607  1.0679  1.3117  1.2845
  190DOPC  C31623511   3.222   6.606   3.625 -0.3898  0.4699 -0.6517
  190DOPC  H16X23512   3.143   6.665   3.676 -1.4691 -2.3575  1.1173
  190DOPC  H16Y23513   3.209   6.602   3.514  1.3373  1.7980 -0.9552
  190DOPC  C31723514   3.199   6.457   3.662  0.6939 -0.5206 -0.1963
  190DOPC  H17X23515   3.288   6.408   3.619  0.5119  1.1152 -2.6872
  190DOPC  H17Y23516   3.202   6.449   3.772 -0.4643  2.9969  0.2339
  190DOPC  C31823517   3.067   6.392   3.615 -0.3002 -0.2417 -0.4096
  190DOPC  H18X23518   3.065   6.286   3.649 -1.1942 -0.0031  0.3268
  190DOPC  H18Y23519   2.982   6.448   3.660 -0.5047 -1.0260  0.2192
  190DOPC  H18Z23520   3.069   6.411   3.506  1.5642  0.3243 -0.3012
  191DOPC     N23521   4.907   0.205   2.030 -0.4452 -0.2007 -0.2072
  191DOPC   C1223522   4.770   0.169   2.081 -0.5175  0.3085  0.1663
  191DOPC  H12A23523   4.745   0.078   2.027  2.2989 -0.4497 -0.0228
  191DOPC  H12B23524   4.692   0.237   2.050 -0.2683 -0.0802 -1.4015
  191DOPC   C1323525   4.916   0.215   1.876  0.0685  0.3183  0.0973
  191DOPC  H13A23526   4.824   0.255   1.836  1.3801  1.3512 -2.0759
  191DOPC  H13B23527   4.988   0.285   1.838  0.6035  0.0255  0.5589
  191DOPC  H13C23528   4.925   0.117   1.831 -1.6304 -0.1772  0.7468
  191DOPC   C1423529   5.009   0.105   2.072 -0.7350  0.5132  0.4120
  191DOPC  H14A23530   5.103   0.139   2.031 -1.3104  0.9870 -0.5541
  191DOPC  H14B23531   5.019   0.101   2.180  0.5026 -1.7694  0.2999
  191DOPC  H14C23532   4.983   0.007   2.034 -3.4000  1.1265  0.5101
  191DOPC   C1523533   4.945   0.344   2.081 -0.1393  0.1017 -0.6998
  191DOPC  H15A23534   5.051   0.361   2.067  0.2148 -0.0745  1.5227
  191DOPC  H15B23535   4.923   0.349   2.186 -1.6641  1.1316 -1.0469
  191DOPC  H15C23536   4.883   0.420   2.036 -0.7991  0.8621  1.4218
  191DOPC   C1123537   4.766   0.137   2.239  0.7626 -0.0247  0.3511
  191DOPC  H11A23538   4.661   0.110   2.265  1.1840 -0.2534  1.9558
  191DOPC  H11B23539   4.838   0.053   2.251  1.3561  0.5844  1.1872
  191DOPC     P23540   4.694   0.360   2.349 -0.3550 -0.1515 -0.1310
  191DOPC   O1323541   4.636   0.400   2.217 -0.2661 -0.3533  0.2448
  191DOPC   O1423542   4.760   0.469   2.422 -0.2158 -0.2212 -0.1497
  191DOPC   O1223543   4.807   0.243   2.331 -0.1489  0.7760  0.7510
  191DOPC   O1123544   4.581   0.309   2.441 -0.5956  0.2191 -0.2847
  191DOPC    C123545   4.613   0.197   2.532 -0.5637  0.1064  0.3629
  191DOPC    HA23546   4.712   0.214   2.579 -0.6516 -2.1091  1.4261
  191DOPC    HB23547   4.654   0.107   2.483  0.8330  0.9196 -0.0249
  191DOPC    C223548   4.514   0.186   2.643  0.9576 -0.1283 -0.2974
  191DOPC    HS23549   4.413   0.180   2.599  1.4343  1.0801 -1.6315
  191DOPC   O2123550   4.522   0.306   2.724  0.3772  0.3372 -0.0263
  191DOPC   C2123551   4.407   0.353   2.770  0.3666  0.5400 -0.0526
  191DOPC   O2223552   4.294   0.315   2.744 -0.5304  0.0533 -0.5876
  191DOPC   C2223553   4.442   0.451   2.882  0.2146  0.0510  0.7184
  191DOPC   H2R23554   4.517   0.523   2.840  0.7256 -2.1711 -2.5859
  191DOPC   H2S23555   4.490   0.390   2.961 -1.3973 -2.7484 -0.3492
  191DOPC    C323556   4.534   0.058   2.731  0.2246  0.4415  0.0784
  191DOPC    HX23557   4.639   0.059   2.769 -0.0539  2.1563  0.9199
  191DOPC    HY23558   4.514  -0.028   2.665 -3.0132  0.2411  1.1410
  191DOPC   O3123559   4.441   0.058   2.840  0.0991  0.7325  0.3771
  191DOPC   C3123560   4.340  -0.032   2.826 -0.3738  0.0442  0.7521
  191DOPC   O3223561   4.336  -0.130   2.752  0.4159  0.3854 -0.1672
  191DOPC   C3223562   4.245  -0.009   2.943  0.5577  0.5055  0.6423
  191DOPC   H2X23563   4.310   0.006   3.031  0.4362 -0.4193  0.9030
  191DOPC   H2Y23564   4.186   0.080   2.914  0.1130 -0.2433 -0.8931
  191DOPC   C2323565   4.316   0.512   2.941  0.8261  0.2916 -0.0652
  191DOPC   H3R23566   4.260   0.425   2.980  1.4779  0.6689  1.8340
  191DOPC   H3S23567   4.246   0.560   2.870  0.6291 -1.5105 -1.1482
  191DOPC   C2423568   4.345   0.606   3.060 -0.4499  0.2022  0.4572
  191DOPC   H4R23569   4.248   0.638   3.103  0.1924  1.8103  0.8123
  191DOPC   H4S23570   4.392   0.700   3.021 -0.4976  0.9202  2.0615
  191DOPC   C2523571   4.432   0.544   3.168  0.0271  0.3352 -0.1991
  191DOPC   H5R23572   4.532   0.512   3.132  0.2533 -0.0652  0.7481
  191DOPC   H5S23573   4.388   0.448   3.202 -1.9509  0.8055 -1.3307
  191DOPC   C2623574   4.462   0.624   3.294  0.3095  0.0099 -0.4099
  191DOPC   H6R23575   4.502   0.551   3.367  0.0369 -0.5649 -0.8251
  191DOPC   H6S23576   4.364   0.658   3.334  0.9291  0.9677  0.3329
  191DOPC   C2723577   4.556   0.739   3.265  0.5145  0.3054  0.2425
  191DOPC   H7R23578   4.522   0.790   3.172 -0.3080  0.5658  0.6725
  191DOPC   H7S23579   4.656   0.700   3.238  1.5119  2.4045  0.6953
  191DOPC   C2823580   4.565   0.848   3.378  0.0867 -0.3472  0.2752
  191DOPC   H8R23581   4.463   0.887   3.399 -0.6302 -2.5801  1.2971
  191DOPC   H8S23582   4.621   0.937   3.343 -1.2171  0.3916  0.0065
  191DOPC   C2923583   4.623   0.780   3.506  0.0678  0.0292  0.5333
  191DOPC   H9R23584   4.585   0.678   3.524 -2.0083  1.0095  2.0789
  191DOPC  C21023585   4.689   0.846   3.607 -0.6640  0.2279  0.7511
  191DOPC  H10R23586   4.735   0.797   3.693 -0.4975  0.0890  0.5842
  191DOPC  C21123587   4.702   0.992   3.619  0.4241  0.1853 -0.3025
  191DOPC  H11R23588   4.633   1.033   3.542 -0.6769 -2.1825 -0.6720
  191DOPC  H11S23589   4.802   1.027   3.586  0.0742  0.3747 -1.1830
  191DOPC  C21223590   4.660   1.050   3.756  0.4346  0.2656  0.0314
  191DOPC  H12R23591   4.707   0.998   3.842 -1.0514 -0.9193  0.1480
  191DOPC  H12S23592   4.550   1.058   3.767  0.3841 -1.5568  1.0996
  191DOPC  C21323593   4.727   1.188   3.775  0.1289  0.3132 -0.2304
  191DOPC  H13R23594   4.689   1.260   3.699  4.1013  2.5879 -0.3767
  191DOPC  H13S23595   4.836   1.169   3.767  0.2796  1.0049  0.0866
  191DOPC  C21423596   4.701   1.257   3.910  0.3338 -0.0548 -0.8512
  191DOPC  H14R23597   4.764   1.347   3.928 -0.4968  0.4613 -0.4033
  191DOPC  H14S23598   4.724   1.190   3.995 -2.9984  2.2064  2.1882
  191DOPC  C21523599   4.553   1.307   3.927 -0.0420  0.0032  0.6902
  191DOPC  H15R23600   4.487   1.219   3.913  0.1200 -0.4505  2.5304
  191DOPC  H15S23601   4.538   1.388   3.853  0.3260  0.1685  0.7906
  191DOPC  C21623602   4.530   1.361   4.067 -0.7806 -0.2980 -0.3013
  191DOPC  H16R23603   4.506   1.278   4.136  0.5528  0.2987  0.9480
  191DOPC  H16S23604   4.436   1.419   4.072 -1.7224 -1.7275 -1.0058
  191DOPC  C21723605   4.642   1.442   4.130  0.1989 -0.5255 -0.5124
  191DOPC  H17R23606   4.659   1.539   4.077  2.1977 -1.3127 -1.3899
  191DOPC  H17S23607   4.743   1.399   4.145  0.8263  1.1900  0.5189
  191DOPC  C21823608   4.599   1.492   4.269  0.3350 -0.3872 -0.7132
  191DOPC  H18R23609   4.591   1.414   4.348  2.6759  3.2132  3.4992
  191DOPC  H18S23610   4.498   1.536   4.253  0.1446 -0.2429  0.7330
  191DOPC  H18T23611   4.667   1.575   4.297 -0.1468 -0.4256  0.6137
  191DOPC   C3323612   4.136  -0.119   2.973 -0.2457 -0.5858 -0.1016
  191DOPC   H3X23613   4.188  -0.214   3.002 -1.0600 -0.9130  0.3243
  191DOPC   H3Y23614   4.089  -0.139   2.874 -2.7940  1.3853  0.6186
  191DOPC   C3423615   4.029  -0.069   3.067  0.6287  0.5968  0.6698
  191DOPC   H4X23616   3.961  -0.156   3.074 -1.1187  2.0036  2.3841
  191DOPC   H4Y23617   3.968   0.011   3.019 -0.5134  0.1837  1.3957
  191DOPC   C3523618   4.079  -0.037   3.211  0.0094 -0.7460 -0.2123
  191DOPC   H5X23619   4.143   0.052   3.228  0.4522 -1.2594  0.9654
  191DOPC   H5Y23620   4.137  -0.121   3.254 -0.0977  1.1879  4.3859
  191DOPC   C3623621   3.954  -0.018   3.303 -0.3041 -0.8241  0.0780
  191DOPC   H6X23622   3.906   0.080   3.282 -1.4708 -1.7867 -2.0595
  191DOPC   H6Y23623   3.887  -0.102   3.279 -1.8691 -0.3975  2.5853
  191DOPC   C3723624   3.997  -0.045   3.453  0.2839 -0.5554 -0.1814
  191DOPC   H7X23625   4.029  -0.150   3.472 -1.5334 -1.0366  0.3874
  191DOPC   H7Y23626   4.071   0.029   3.490 -1.0873  0.1270  1.3098
  191DOPC   C3823627   3.874  -0.008   3.540 -0.2266  0.0265 -0.8843
  191DOPC   H8X23628   3.816   0.077   3.497 -1.7483 -1.1918 -1.3445
  191DOPC   H8Y23629   3.925   0.031   3.631  0.7012 -0.5714 -1.1414
  191DOPC   C3923630   3.791  -0.122   3.572  0.2425  0.3375  0.5877
  191DOPC   H9X23631   3.692  -0.116   3.525  1.1338  2.1076 -1.2338
  191DOPC  C31023632   3.821  -0.219   3.662 -0.3158  0.9162  0.1014
  191DOPC  H10X23633   3.758  -0.306   3.686  1.3753 -0.1617  0.8579
  191DOPC  C31123634   3.950  -0.226   3.750 -0.0001  0.2166 -0.0048
  191DOPC  H11X23635   4.000  -0.127   3.756 -2.1582  1.3288  1.1301
  191DOPC  H11Y23636   4.015  -0.306   3.710 -1.7467 -1.5313  0.4651
  191DOPC  C31223637   3.918  -0.279   3.895  0.0515 -0.2670 -0.3168
  191DOPC  H12X23638   3.889  -0.384   3.873 -0.2586 -0.1479 -0.4859
  191DOPC  H12Y23639   3.825  -0.238   3.941 -0.7456 -0.8024 -1.4185
  191DOPC  C31323640   4.039  -0.263   3.982  0.2536 -0.6012  0.9865
  191DOPC  H13X23641   4.130  -0.291   3.923  0.3005  2.5780 -0.6825
  191DOPC  H13Y23642   4.045  -0.158   4.015 -0.8015 -0.6665  1.4130
  191DOPC  C31423643   4.040  -0.368   4.100  0.2216  0.0863  0.0516
  191DOPC  H14X23644   3.953  -0.347   4.166 -0.3593  1.9965 -1.2359
  191DOPC  H14Y23645   4.025  -0.463   4.044  0.2440  0.4257 -0.5316
  191DOPC  C31523646   4.175  -0.359   4.166 -0.2537 -0.5334 -0.4695
  191DOPC  H15X23647   4.180  -0.257   4.210 -2.2042 -0.9397  0.8171
  191DOPC  H15Y23648   4.249  -0.380   4.086  1.1587 -0.7570  0.8515
  191DOPC  C31623649   4.182  -0.471   4.277  0.3919 -0.4142 -0.1131
  191DOPC  H16X23650   4.258  -0.441   4.352 -2.1417  0.1362  2.4189
  191DOPC  H16Y23651   4.094  -0.473   4.345  0.8347  1.3204  0.5773
  191DOPC  C31723652   4.214  -0.612   4.233  0.3065  1.1301 -0.0516
  191DOPC  H17X23653   4.143  -0.665   4.167  2.3538  0.0062 -1.4427
  191DOPC  H17Y23654   4.303  -0.606   4.167 -0.5365 -1.7518 -1.5833
  191DOPC  C31823655   4.249  -0.712   4.348  0.9112  0.6110  0.2731
  191DOPC  H18X23656   4.324  -0.684   4.425  3.3790 -2.7748 -0.6942
  191DOPC  H18Y23657   4.155  -0.732   4.404  0.0226  1.1052 -0.9917
  191DOPC  H18Z23658   4.288  -0.798   4.291 -0.1169  1.3341 -1.6209
  192DOPC     N23659   0.659   4.939   3.042 -0.3995 -0.5414  0.4339
  192DOPC   C1223660   0.734   5.029   2.938 -0.1810 -0.2299 -0.2422
  192DOPC  H12A23661   0.676   5.119   2.924  0.5849  0.1357 -1.1119
  192DOPC  H12B23662   0.736   4.975   2.845  0.0054 -0.5970 -0.0281
  192DOPC   C1323663   0.517   4.950   3.001  0.3051  0.3471  0.2867
  192DOPC  H13A23664   0.456   4.881   3.056  0.1139  0.1772 -0.1344
  192DOPC  H13B23665   0.479   5.049   3.019 -0.6032 -0.3427  2.4870
  192DOPC  H13C23666   0.496   4.928   2.897 -3.1154  0.5203  0.8339
  192DOPC   C1423667   0.669   4.983   3.182  0.1065 -0.1428 -0.0582
  192DOPC  H14A23668   0.679   5.091   3.188  0.7314 -0.2516  1.0482
  192DOPC  H14B23669   0.587   4.947   3.241 -1.1498 -0.3142 -1.8268
  192DOPC  H14C23670   0.765   4.945   3.214  0.0138 -1.9278 -1.7321
  192DOPC   C1523671   0.707   4.803   3.024 -0.0705 -0.0880 -0.6888
  192DOPC  H15A23672   0.641   4.742   3.083 -0.8532  0.3022 -1.1521
  192DOPC  H15B23673   0.813   4.798   3.047 -0.0187 -0.1408 -0.9309
  192DOPC  H15C23674   0.696   4.772   2.921 -1.9561  1.3684 -0.9878
  192DOPC   C1123675   0.876   5.061   2.979 -0.0942  0.1273  0.4905
  192DOPC  H11A23676   0.878   5.118   3.075 -0.0234  1.2922 -0.1870
  192DOPC  H11B23677   0.920   4.960   2.992 -1.3455 -0.4865  0.1429
  192DOPC     P23678   0.964   5.290   2.871  0.0259 -0.3203 -0.0005
  192DOPC   O1323679   0.853   5.357   2.942 -1.4576  0.2220 -0.6314
  192DOPC   O1423680   0.993   5.344   2.738  0.0926  0.6040  0.4404
  192DOPC   O1223681   0.932   5.138   2.868  0.0420  0.1829  0.2397
  192DOPC   O1123682   1.089   5.317   2.957 -0.4036 -0.0143 -0.2342
  192DOPC    C123683   1.192   5.220   2.987 -0.8450 -0.2776 -0.3908
  192DOPC    HA23684   1.296   5.250   2.964  0.4127 -2.6341  1.6192
  192DOPC    HB23685   1.174   5.127   2.929 -3.9096  1.0615 -1.7585
  192DOPC    C223686   1.182   5.172   3.135 -0.3680  0.3029 -0.6517
  192DOPC    HS23687   1.075   5.172   3.164 -0.3552  1.9328 -0.5478
  192DOPC   O2123688   1.258   5.271   3.213 -0.9340 -0.3133 -0.1913
  192DOPC   C2123689   1.223   5.290   3.338  0.2387 -0.4692 -0.1063
  192DOPC   O2223690   1.123   5.247   3.389 -0.3665  0.1534 -0.0077
  192DOPC   C2223691   1.337   5.358   3.418 -0.1288 -0.1348  0.1226
  192DOPC   H2R23692   1.313   5.465   3.435 -0.3998 -0.3095  0.8814
  192DOPC   H2S23693   1.430   5.346   3.358  0.5273  1.7214  0.6782
  192DOPC    C323694   1.248   5.029   3.147  0.4526  0.2779  0.1760
  192DOPC    HX23695   1.353   5.055   3.122  1.2736 -2.1872  0.7886
  192DOPC    HY23696   1.219   4.951   3.075 -0.7687  2.3667 -1.7145
  192DOPC   O3123697   1.248   4.973   3.282  0.2399  0.4057  0.0813
  192DOPC   C3123698   1.133   4.910   3.314 -0.3973 -0.8107  0.1705
  192DOPC   O3223699   1.034   4.912   3.250  0.5849 -0.2957 -0.0116
  192DOPC   C3223700   1.146   4.824   3.440 -0.1390  0.3951  0.2238
  192DOPC   H2X23701   1.116   4.722   3.406  1.0316  0.4837 -1.1685
  192DOPC   H2Y23702   1.252   4.813   3.469  0.4862 -0.5980 -2.1728
  192DOPC   C2323703   1.360   5.276   3.549  0.6900 -0.0424 -0.2003
  192DOPC   H3R23704   1.382   5.170   3.525  0.4006 -0.8464  2.6722
  192DOPC   H3S23705   1.273   5.286   3.617  0.2423  1.1370 -0.9061
  192DOPC   C2423706   1.483   5.327   3.618  1.2434  0.3587  0.1866
  192DOPC   H4R23707   1.482   5.437   3.629  1.3070  0.2511  1.3363
  192DOPC   H4S23708   1.564   5.307   3.544  0.8209  1.9110 -0.7448
  192DOPC   C2523709   1.518   5.269   3.757  0.3643 -0.6343  0.3376
  192DOPC   H5R23710   1.615   5.311   3.791 -0.1893  0.5690  0.4745
  192DOPC   H5S23711   1.535   5.166   3.719 -2.7073 -0.5658 -1.6285
  192DOPC   C2623712   1.407   5.259   3.865 -0.3287 -0.0396 -0.1218
  192DOPC   H6R23713   1.463   5.227   3.956 -0.8104 -0.5339  0.0033
  192DOPC   H6S23714   1.338   5.176   3.841  0.0158 -1.2682  2.7267
  192DOPC   C2723715   1.353   5.390   3.907  0.1541 -0.3698  0.3249
  192DOPC   H7R23716   1.264   5.414   3.844 -1.6382 -2.0144  2.0882
  192DOPC   H7S23717   1.421   5.478   3.903  0.8611 -0.7974  2.0035
  192DOPC   C2823718   1.307   5.386   4.058 -0.5929 -0.6396 -0.2706
  192DOPC   H8R23719   1.294   5.496   4.072  1.5195 -0.3294 -0.3629
  192DOPC   H8S23720   1.393   5.347   4.117  0.3507  1.3409 -0.2184
  192DOPC   C2923721   1.180   5.311   4.079 -0.6311 -1.0682  0.2105
  192DOPC   H9R23722   1.097   5.352   4.021  1.5315  3.5649 -0.0761
  192DOPC  C21023723   1.167   5.188   4.125 -0.1863  0.3755 -0.3331
  192DOPC  H10R23724   1.062   5.155   4.129 -0.1885  0.3733 -0.4033
  192DOPC  C21123725   1.270   5.103   4.191 -0.2641  0.7129  0.4538
  192DOPC  H11R23726   1.368   5.152   4.208 -0.1350  0.6441 -0.0615
  192DOPC  H11S23727   1.303   5.018   4.127 -0.4434 -0.4222  1.8231
  192DOPC  C21223728   1.208   5.026   4.312 -0.0229 -0.1829  0.6333
  192DOPC  H12R23729   1.140   4.948   4.274  2.2473 -0.4322 -3.5106
  192DOPC  H12S23730   1.156   5.101   4.376 -1.3881  0.4395 -1.1245
  192DOPC  C21323731   1.320   4.972   4.400  0.4710  0.1727  0.2137
  192DOPC  H13R23732   1.411   5.036   4.401  1.3473 -1.0256  0.1011
  192DOPC  H13S23733   1.369   4.887   4.348  0.2963 -0.4404  1.0402
  192DOPC  C21423734   1.269   4.940   4.538 -0.1637 -0.6505 -0.3706
  192DOPC  H14R23735   1.237   5.039   4.578  0.6288 -0.9408  1.0550
  192DOPC  H14S23736   1.350   4.910   4.608 -1.0573  1.2024  1.5678
  192DOPC  C21523737   1.155   4.849   4.528 -0.0023 -0.5322 -0.1004
  192DOPC  H15R23738   1.069   4.902   4.482  0.4838  0.0391 -0.3690
  192DOPC  H15S23739   1.122   4.825   4.631 -1.0763  1.3329  0.0349
  192DOPC  C21623740   1.173   4.714   4.460 -0.3793  1.1436 -0.1987
  192DOPC  H16R23741   1.284   4.703   4.456 -0.5253 -0.2601 -0.9440
  192DOPC  H16S23742   1.134   4.721   4.356  1.9921 -1.1444 -1.3556
  192DOPC  C21723743   1.097   4.599   4.530  0.2537 -0.5137  0.4855
  192DOPC  H17R23744   0.989   4.620   4.509  0.5891  1.6148  0.6888
  192DOPC  H17S23745   1.122   4.588   4.637 -0.3288  0.9209  0.7884
  192DOPC  C21823746   1.134   4.462   4.468  0.4446  0.3120  0.4297
  192DOPC  H18R23747   1.099   4.452   4.363 -0.8392 -0.5124  0.9120
  192DOPC  H18S23748   1.100   4.375   4.529  1.4570  0.6306  1.4918
  192DOPC  H18T23749   1.244   4.449   4.472  0.5031 -0.5768 -2.2801
  192DOPC   C3323750   1.057   4.870   3.556  0.0855  0.2971  0.2746
  192DOPC   H3X23751   1.042   4.779   3.619 -2.3638 -1.3440 -2.4517
  192DOPC   H3Y23752   0.959   4.905   3.519 -0.3313 -0.1281  0.9435
  192DOPC   C3423753   1.119   4.985   3.636  0.0828  0.1244 -0.1003
  192DOPC   H4X23754   1.169   5.055   3.565 -1.5782  2.0982  0.5867
  192DOPC   H4Y23755   1.188   4.944   3.713  0.1351  0.0758 -0.1729
  192DOPC   C3523756   1.019   5.070   3.712 -0.0247 -0.2997 -0.1462
  192DOPC   H5X23757   0.967   5.138   3.640  0.1319  0.7019  0.6546
  192DOPC   H5Y23758   1.070   5.124   3.795 -2.5867  0.1552  1.2645
  192DOPC   C3623759   0.912   4.987   3.796  0.1418 -0.3540 -0.3860
  192DOPC   H6X23760   0.837   5.051   3.848  1.8858  1.0332  0.5081
  192DOPC   H6Y23761   0.859   4.922   3.723  0.7873 -2.0612  0.6074
  192DOPC   C3723762   0.980   4.897   3.897  0.8433  0.5665  0.5413
  192DOPC   H7X23763   1.069   4.854   3.846 -0.6249 -0.5192 -1.2466
  192DOPC   H7Y23764   1.017   4.969   3.973  1.6279 -1.8049  2.5179
  192DOPC   C3823765   0.876   4.801   3.947  0.2891 -0.0497 -0.0652
  192DOPC   H8X23766   0.780   4.854   3.932  1.7298  2.7055 -0.1184
  192DOPC   H8Y23767   0.885   4.786   4.057 -1.8459 -0.3160  0.1178
  192DOPC   C3923768   0.885   4.671   3.878 -0.4873  0.4067  0.0408
  192DOPC   H9X23769   0.943   4.676   3.785  0.7378  3.5102  0.8441
  192DOPC  C31023770   0.832   4.552   3.905  0.3290  0.8565 -0.1230
  192DOPC  H10X23771   0.865   4.469   3.841  1.2840  0.3253  1.0088
  192DOPC  C31123772   0.752   4.514   4.029  0.2462  0.3506 -0.2047
  192DOPC  H11X23773   0.653   4.475   3.998 -0.0343 -0.0526  1.1284
  192DOPC  H11Y23774   0.716   4.604   4.082  0.2609  0.6546 -0.7002
  192DOPC  C31223775   0.831   4.402   4.096  0.4205 -0.7548  0.3117
  192DOPC  H12X23776   0.933   4.440   4.122  0.0715  1.1048 -0.8174
  192DOPC  H12Y23777   0.841   4.315   4.029  0.2588 -1.1652  0.8142
  192DOPC  C31323778   0.761   4.372   4.230 -0.6992 -0.0435 -0.2489
  192DOPC  H13X23779   0.766   4.457   4.301 -0.6015 -1.0629  1.0081
  192DOPC  H13Y23780   0.657   4.344   4.202 -0.5685 -2.8516  1.6360
  192DOPC  C31423781   0.829   4.251   4.297 -0.0018  0.1821  0.3672
  192DOPC  H14X23782   0.939   4.260   4.307 -0.0366 -0.7202  2.0104
  192DOPC  H14Y23783   0.788   4.229   4.398 -1.9024  0.3592 -0.3183
  192DOPC  C31523784   0.804   4.120   4.213 -0.3308  0.6464 -0.1797
  192DOPC  H15X23785   0.844   4.137   4.111  0.9538  0.3597  0.2573
  192DOPC  H15Y23786   0.695   4.099   4.224 -0.1214  0.3947  1.7860
  192DOPC  C31623787   0.874   3.999   4.280  0.9514 -0.1249  0.1540
  192DOPC  H16X23788   0.877   3.915   4.207  1.6400 -0.2501  0.3202
  192DOPC  H16Y23789   0.982   4.025   4.292  0.6902  0.5577  1.1813
  192DOPC  C31723790   0.831   3.958   4.421  0.8050  0.1397 -0.4648
  192DOPC  H17X23791   0.858   4.040   4.490  0.5015 -0.5757  0.5295
  192DOPC  H17Y23792   0.727   3.929   4.445  1.1447 -0.9822 -0.2871
  192DOPC  C31823793   0.909   3.835   4.470 -0.2645  0.0543  0.8167
  192DOPC  H18X23794   0.901   3.818   4.580  1.3966 -0.1980  0.9332
  192DOPC  H18Y23795   0.867   3.745   4.420 -2.1251 -0.5433  3.2665
  192DOPC  H18Z23796   1.018   3.843   4.449 -0.2364  0.8244  1.2296
  193DOPC     N23797   7.100   1.250   1.923 -0.6699  0.5952  0.2858
  193DOPC   C1223798   7.143   1.102   1.928  0.5683 -0.4190 -0.4363
  193DOPC  H12A23799   7.229   1.100   1.993 -0.8755  1.1315  1.6784
  193DOPC  H12B23800   7.172   1.063   1.832  0.8261  0.5586 -0.7603
  193DOPC   C1323801   6.979   1.262   1.835 -0.8219 -0.1058  0.4454
  193DOPC  H13A23802   7.003   1.249   1.730 -2.0213  0.0357  0.1315
  193DOPC  H13B23803   6.908   1.181   1.850 -0.6769 -0.7657 -1.9596
  193DOPC  H13C23804   6.934   1.359   1.850  3.1571  2.0430 -0.3163
  193DOPC   C1423805   7.201   1.337   1.856  0.5855 -0.3319  0.0231
  193DOPC  H14A23806   7.149   1.427   1.825  0.9031 -0.2169 -0.1843
  193DOPC  H14B23807   7.282   1.346   1.927  0.8006  0.1365 -0.2704
  193DOPC  H14C23808   7.241   1.295   1.764 -0.8520 -0.5408 -0.5223
  193DOPC   C1523809   7.061   1.296   2.054 -0.0384 -0.2680 -0.6339
  193DOPC  H15A23810   7.133   1.278   2.132 -2.1244  0.6699  1.6760
  193DOPC  H15B23811   6.969   1.250   2.089  0.1210  1.7245  2.9547
  193DOPC  H15C23812   7.031   1.400   2.051 -0.2643 -0.3529 -2.5147
  193DOPC   C1123813   7.044   0.998   1.982  0.0335  0.0992  0.4747
  193DOPC  H11A23814   6.948   1.008   1.927  0.5429  1.7160 -0.2116
  193DOPC  H11B23815   7.086   0.900   1.950 -0.1959  0.7142 -1.9490
  193DOPC     P23816   6.973   0.878   2.212 -0.0351  0.2427  0.3613
  193DOPC   O1323817   7.077   0.767   2.205 -0.4493  0.0964  0.3809
  193DOPC   O1423818   6.835   0.850   2.166 -0.5295  0.2029 -0.5396
  193DOPC   O1223819   7.024   1.002   2.122  0.0868  0.1051 -0.5124
  193DOPC   O1123820   6.967   0.935   2.355  0.5953  0.6639 -0.3189
  193DOPC    C123821   6.922   0.846   2.456 -0.3339 -0.5584  0.1696
  193DOPC    HA23822   6.986   0.848   2.547 -2.9614 -1.3775  2.1822
  193DOPC    HB23823   6.930   0.743   2.414  1.6354  0.8496 -3.2361
  193DOPC    C223824   6.775   0.872   2.503 -0.5562 -0.4751 -0.1511
  193DOPC    HS23825   6.711   0.848   2.416 -2.1839 -2.4871  1.4865
  193DOPC   O2123826   6.768   1.012   2.541 -0.5437 -0.2448 -0.1191
  193DOPC   C2123827   6.655   1.070   2.563  0.0484  0.5895 -0.0286
  193DOPC   O2223828   6.547   1.023   2.521  0.4222  1.0188 -0.0510
  193DOPC   C2223829   6.681   1.192   2.639 -0.2182  0.2645 -0.9304
  193DOPC   H2R23830   6.655   1.287   2.586  0.5353  0.7999 -0.3664
  193DOPC   H2S23831   6.790   1.207   2.657 -0.6065  1.6546  0.5341
  193DOPC    C323832   6.729   0.783   2.615 -0.4803  0.5404  0.2537
  193DOPC    HX23833   6.735   0.680   2.573  2.3802  0.7644 -0.1134
  193DOPC    HY23834   6.622   0.804   2.634 -0.4466  0.6567  0.3203
  193DOPC   O3123835   6.825   0.779   2.726  0.5358 -0.3573 -0.3100
  193DOPC   C3123836   6.763   0.730   2.836 -0.1692 -0.2857 -0.1282
  193DOPC   O3223837   6.649   0.682   2.835 -0.2073 -0.0169  0.2889
  193DOPC   C3223838   6.852   0.745   2.959 -0.0448 -0.2983  0.0952
  193DOPC   H2X23839   6.934   0.670   2.967 -0.9268 -1.0584  4.4279
  193DOPC   H2Y23840   6.903   0.843   2.950  1.6262 -1.2771 -1.9650
  193DOPC   C2323841   6.612   1.198   2.782 -0.2224  0.0822  0.0244
  193DOPC   H3R23842   6.679   1.254   2.851 -0.1855 -1.5968  1.4128
  193DOPC   H3S23843   6.602   1.097   2.827 -0.1826 -0.1714 -0.5354
  193DOPC   C2423844   6.470   1.247   2.779  0.3109  0.1131  0.6053
  193DOPC   H4R23845   6.414   1.211   2.691  0.9624  2.7318 -0.9823
  193DOPC   H4S23846   6.475   1.358   2.770 -0.5597  0.1506  0.5288
  193DOPC   C2523847   6.392   1.213   2.905 -0.3222 -0.2334  0.2532
  193DOPC   H5R23848   6.297   1.270   2.905 -0.6040 -0.6998  0.4969
  193DOPC   H5S23849   6.446   1.251   2.994 -2.9395  2.6362  0.7884
  193DOPC   C2623850   6.351   1.067   2.918  0.1798  0.5803  0.1418
  193DOPC   H6R23851   6.263   1.063   2.986 -1.4924  0.4024 -1.9328
  193DOPC   H6S23852   6.422   1.005   2.977  1.0848  0.2593 -1.2455
  193DOPC   C2723853   6.303   0.990   2.793  0.0034 -1.0055 -0.3263
  193DOPC   H7R23854   6.384   0.968   2.720  0.6489 -0.7428  0.2971
  193DOPC   H7S23855   6.232   1.057   2.739  1.0524 -1.1105 -1.9057
  193DOPC   C2823856   6.223   0.863   2.818  1.0545  0.2706 -0.2024
  193DOPC   H8R23857   6.181   0.834   2.719  0.7332  2.7819 -0.8594
  193DOPC   H8S23858   6.154   0.895   2.900  2.1747 -0.1110  0.9116
  193DOPC   C2923859   6.305   0.752   2.880 -0.0683 -0.1436  0.2602
  193DOPC   H9R23860   6.336   0.678   2.805 -0.8771  1.8204 -2.1006
  193DOPC  C21023861   6.317   0.713   3.011  0.0017  0.6414 -0.3260
  193DOPC  H10R23862   6.383   0.629   3.038 -0.9326 -0.0909 -0.2888
  193DOPC  C21123863   6.248   0.760   3.134 -0.4738 -0.1169  0.5288
  193DOPC  H11R23864   6.170   0.684   3.153 -0.4119 -0.3915 -0.2445
  193DOPC  H11S23865   6.201   0.856   3.106  0.3299 -0.1357 -1.0331
  193DOPC  C21223866   6.341   0.788   3.255  0.1013 -0.1112  0.0115
  193DOPC  H12R23867   6.277   0.852   3.321 -0.1150  0.3872 -0.6750
  193DOPC  H12S23868   6.420   0.858   3.222  2.3226 -2.5629 -0.1230
  193DOPC  C21323869   6.392   0.671   3.324  0.0500  0.2190  1.0702
  193DOPC  H13R23870   6.472   0.630   3.260  0.2841  1.7234  0.3433
  193DOPC  H13S23871   6.312   0.595   3.335 -0.0599  0.3497  1.1774
  193DOPC  C21423872   6.464   0.693   3.464 -0.4377 -0.1255  0.7873
  193DOPC  H14R23873   6.393   0.744   3.533  0.5148 -1.7888  3.1164
  193DOPC  H14S23874   6.554   0.757   3.454 -1.7933  1.9558  1.2221
  193DOPC  C21523875   6.501   0.561   3.528  0.2195  0.3607 -0.8060
  193DOPC  H15R23876   6.553   0.488   3.462  0.8505  0.4677 -0.4377
  193DOPC  H15S23877   6.403   0.517   3.557 -0.7457  1.0458 -2.8357
  193DOPC  C21623878   6.586   0.580   3.655  0.1601 -0.3014  0.6190
  193DOPC  H16R23879   6.529   0.633   3.734  0.4446  1.7740 -0.5036
  193DOPC  H16S23880   6.678   0.633   3.624  0.2321 -0.2785  0.8685
  193DOPC  C21723881   6.632   0.448   3.732 -0.1553 -0.3508  0.1961
  193DOPC  H17R23882   6.703   0.395   3.665  0.2985  1.0675 -0.4751
  193DOPC  H17S23883   6.544   0.393   3.772 -0.7091 -0.1349 -0.7041
  193DOPC  C21823884   6.710   0.486   3.858  0.0196 -0.1977 -0.6179
  193DOPC  H18R23885   6.767   0.396   3.892 -0.3913 -0.4908 -0.7034
  193DOPC  H18S23886   6.645   0.529   3.937  0.6639 -0.3317 -0.0017
  193DOPC  H18T23887   6.781   0.569   3.837  0.4497  0.1044  1.7414
  193DOPC   C3323888   6.780   0.742   3.098  0.1711  0.0684  0.1466
  193DOPC   H3X23889   6.856   0.732   3.179 -0.1967 -2.6823  0.2500
  193DOPC   H3Y23890   6.729   0.644   3.107  0.6665 -0.0731  1.9007
  193DOPC   C3423891   6.685   0.859   3.121 -1.0457  0.0607 -0.0114
  193DOPC   H4X23892   6.647   0.857   3.225  2.7391 -0.3988  1.5121
  193DOPC   H4Y23893   6.595   0.861   3.055 -0.2498 -1.3776 -1.2126
  193DOPC   C3523894   6.748   1.000   3.114 -0.6543  0.6079 -0.9432
  193DOPC   H5X23895   6.773   1.033   3.011  3.3961 -0.6804 -0.5636
  193DOPC   H5Y23896   6.835   1.000   3.183 -0.5448  1.8827 -1.0594
  193DOPC   C3623897   6.656   1.109   3.181 -0.1834  0.7499 -0.0534
  193DOPC   H6X23898   6.582   1.143   3.105  0.2664  0.8792 -0.4324
  193DOPC   H6Y23899   6.602   1.058   3.264  0.1336 -0.9748 -0.8733
  193DOPC   C3723900   6.731   1.229   3.246 -0.4723  0.1484  0.5083
  193DOPC   H7X23901   6.661   1.290   3.307 -1.5371 -1.9727  1.4963
  193DOPC   H7Y23902   6.806   1.181   3.311 -0.5943  0.2618  0.7336
  193DOPC   C3823903   6.789   1.316   3.126 -0.2913 -0.4220  0.3715
  193DOPC   H8X23904   6.697   1.340   3.068  0.0274 -0.8966 -0.3319
  193DOPC   H8Y23905   6.844   1.252   3.055 -2.3463 -1.1442 -0.6616
  193DOPC   C3923906   6.852   1.449   3.162 -0.7317 -0.2075  0.0081
  193DOPC   H9X23907   6.792   1.541   3.157 -0.8472 -0.2170  0.9988
  193DOPC  C31023908   6.982   1.460   3.194 -0.3463  0.6450  0.4499
  193DOPC  H10X23909   7.026   1.560   3.207  0.6832  0.0977  1.3515
  193DOPC  C31123910   7.074   1.346   3.215 -0.9122 -0.3894  0.0467
  193DOPC  H11X23911   7.112   1.302   3.120  0.1871 -0.9676  0.7322
  193DOPC  H11Y23912   7.020   1.267   3.271 -1.6397 -1.7359 -2.4314
  193DOPC  C31223913   7.198   1.393   3.284  0.4370  0.2034 -0.7468
  193DOPC  H12X23914   7.182   1.450   3.379 -1.9529 -0.0652 -0.9411
  193DOPC  H12Y23915   7.251   1.477   3.234  0.1662  1.9510  1.7166
  193DOPC  C31323916   7.281   1.271   3.302  0.9286 -1.2792  0.1393
  193DOPC  H13X23917   7.219   1.193   3.351  0.4537 -0.3839  0.9933
  193DOPC  H13Y23918   7.324   1.240   3.204 -0.4175  0.2623 -0.9913
  193DOPC  C31423919   7.409   1.290   3.389 -0.1683  0.7256 -0.0943
  193DOPC  H14X23920   7.474   1.200   3.386 -1.8476 -0.5228 -0.3160
  193DOPC  H14Y23921   7.470   1.371   3.344 -1.0497  1.2539 -0.3641
  193DOPC  C31523922   7.373   1.317   3.537  0.3226  0.3038 -0.3326
  193DOPC  H15X23923   7.320   1.414   3.554  0.3535  0.3247 -0.3569
  193DOPC  H15Y23924   7.467   1.328   3.595 -0.0279 -0.8199  0.5005
  193DOPC  C31623925   7.292   1.207   3.609 -0.2240 -0.4750 -0.0561
  193DOPC  H16X23926   7.186   1.224   3.577  0.2115  0.7350 -0.9444
  193DOPC  H16Y23927   7.347   1.119   3.570  3.5584  1.9318 -0.7347
  193DOPC  C31723928   7.304   1.197   3.769  0.5843  0.9943  0.1098
  193DOPC  H17X23929   7.240   1.113   3.801 -0.9739  1.9899 -0.2606
  193DOPC  H17Y23930   7.407   1.168   3.800  0.7397  0.6004 -0.7625
  193DOPC  C31823931   7.262   1.322   3.841  0.4006 -0.2030 -0.1724
  193DOPC  H18X23932   7.312   1.409   3.795 -0.4180  0.3306 -0.0772
  193DOPC  H18Y23933   7.156   1.348   3.822  0.2868 -1.5490 -1.6635
  193DOPC  H18Z23934   7.282   1.310   3.949  0.3146  2.0713  0.1311
  194DOPC     N23935   0.867   7.608   2.411  0.0843  0.2215  0.1129
  194DOPC   C1223936   0.997   7.574   2.480 -0.0631 -0.0137  0.0190
  194DOPC  H12A23937   1.085   7.627   2.448 -0.0106 -1.3235 -2.2517
  194DOPC  H12B23938   1.016   7.469   2.459  0.1586 -0.2783  1.4267
  194DOPC   C1323939   0.839   7.751   2.434  0.4647  0.1020  0.1576
  194DOPC  H13A23940   0.907   7.818   2.384  0.6970  2.5977  3.4320
  194DOPC  H13B23941   0.741   7.782   2.400  1.0099  2.0574  0.2345
  194DOPC  H13C23942   0.854   7.773   2.539  2.5584  0.3298 -0.1666
  194DOPC   C1423943   0.749   7.534   2.453 -1.0660 -0.3909  0.3349
  194DOPC  H14A23944   0.732   7.545   2.559  0.8846 -0.0092  0.6480
  194DOPC  H14B23945   0.668   7.574   2.394  1.2051  3.1689 -0.7011
  194DOPC  H14C23946   0.756   7.427   2.436 -2.5584 -0.7160  1.5797
  194DOPC   C1523947   0.885   7.579   2.263  0.4747 -0.3978 -0.6527
  194DOPC  H15A23948   0.815   7.644   2.213 -0.4679  0.0219  1.1076
  194DOPC  H15B23949   0.871   7.475   2.237 -0.3612 -0.5220  0.2336
  194DOPC  H15C23950   0.978   7.617   2.225  0.4899 -1.5814 -1.8783
  194DOPC   C1123951   0.997   7.577   2.631  0.3062  0.6269 -0.0235
  194DOPC  H11A23952   0.920   7.509   2.675  1.3579 -0.9601 -0.5691
  194DOPC  H11B23953   1.089   7.527   2.666  0.4342  0.2173 -0.9247
  194DOPC     P23954   1.100   7.808   2.693 -0.2581 -0.3434  0.0646
  194DOPC   O1323955   1.064   7.918   2.600 -0.6442  0.3242 -0.7863
  194DOPC   O1423956   1.226   7.736   2.672  0.1565  0.4302 -0.0104
  194DOPC   O1223957   0.976   7.704   2.684 -0.0541 -0.4040 -0.3492
  194DOPC   O1123958   1.106   7.863   2.840  0.2435  0.2718 -0.3690
  194DOPC    C123959   1.006   7.837   2.939  0.8140  0.0200 -0.3335
  194DOPC    HA23960   1.017   7.733   2.974  1.3168 -0.2871 -1.3583
  194DOPC    HB23961   0.899   7.852   2.910  0.2525 -1.4924  0.8400
  194DOPC    C223962   1.047   7.913   3.065  0.4524  0.0489 -0.5839
  194DOPC    HS23963   1.147   7.880   3.101  0.5868 -0.5292 -1.4365
  194DOPC   O2123964   0.936   7.882   3.158 -0.4165 -0.3409  0.9203
  194DOPC   C2123965   0.961   7.776   3.229 -0.4969 -0.5519  0.6559
  194DOPC   O2223966   1.049   7.696   3.212 -0.2814 -1.2225 -0.3589
  194DOPC   C2223967   0.852   7.755   3.330  0.7397 -0.0199 -0.2862
  194DOPC   H2R23968   0.792   7.675   3.281 -0.3722  1.0098 -0.6494
  194DOPC   H2S23969   0.795   7.848   3.351  0.4652 -0.0672 -0.8056
  194DOPC    C323970   1.054   8.074   3.035 -0.0517  0.3827  0.3727
  194DOPC    HX23971   0.952   8.107   3.007 -0.4020  1.4433  2.6559
  194DOPC    HY23972   1.108   8.093   2.940 -2.1607  0.5862 -0.8485
  194DOPC   O3123973   1.100   8.153   3.143 -0.1033  0.1916 -0.2796
  194DOPC   C3123974   1.232   8.161   3.146  0.3276  0.6463 -0.0682
  194DOPC   O3223975   1.308   8.101   3.070  0.3985  0.0470  0.4099
  194DOPC   C3223976   1.281   8.261   3.246  0.0444  0.4651 -0.6501
  194DOPC   H2X23977   1.392   8.267   3.254  0.0681 -0.8300  0.1990
  194DOPC   H2Y23978   1.255   8.367   3.222  2.8370  2.0016  2.2702
  194DOPC   C2323979   0.920   7.710   3.465 -0.2230  0.1330 -0.2091
  194DOPC   H3R23980   0.970   7.613   3.445 -0.3432 -0.2516  1.2695
  194DOPC   H3S23981   0.835   7.687   3.533 -0.6746  1.2996 -0.3400
  194DOPC   C2423982   1.022   7.812   3.515  0.1013 -0.2118 -0.5641
  194DOPC   H4R23983   0.978   7.912   3.490 -0.1867 -0.2447 -0.2016
  194DOPC   H4S23984   1.116   7.804   3.457 -0.4087  1.4720 -1.7340
  194DOPC   C2523985   1.055   7.795   3.665 -0.1907 -0.7023  0.4974
  194DOPC   H5R23986   1.065   7.685   3.672 -0.3891 -0.9406 -2.0632
  194DOPC   H5S23987   0.964   7.822   3.724  0.5692  2.0812  0.5412
  194DOPC   C2623988   1.170   7.872   3.718 -0.5508  0.3861 -0.7752
  194DOPC   H6R23989   1.161   7.982   3.711  2.9488  1.0465  2.1606
  194DOPC   H6S23990   1.263   7.840   3.665 -0.4995  0.8027 -0.9335
  194DOPC   C2723991   1.197   7.855   3.871  0.5001  0.2156  0.0955
  194DOPC   H7R23992   1.206   7.745   3.889 -1.1864  0.1178  0.5163
  194DOPC   H7S23993   1.103   7.879   3.926 -0.2985 -3.5165  0.6389
  194DOPC   C2823994   1.316   7.937   3.907  0.3848 -0.1962 -0.3624
  194DOPC   H8R23995   1.284   8.042   3.926 -1.7762 -0.1646 -3.3538
  194DOPC   H8S23996   1.391   7.947   3.825  1.5109  0.2706  0.6948
  194DOPC   C2923997   1.387   7.870   4.018  0.1074 -0.7273 -0.6116
  194DOPC   H9R23998   1.418   7.765   4.002  0.5880 -0.7402  0.3242
  194DOPC  C21023999   1.402   7.918   4.148 -0.2821 -0.0086  0.1038
  194DOPC  H10R24000   1.458   7.864   4.226 -0.8179 -1.1069 -0.2574
  194DOPC  C21124001   1.361   8.050   4.206 -0.2351  0.1458  0.0011
  194DOPC  H11R24002   1.342   8.122   4.123 -1.5401  0.5640  0.6337
  194DOPC  H11S24003   1.438   8.099   4.271  2.1340 -0.0178 -2.4893
  194DOPC  C21224004   1.233   8.038   4.286 -0.0488 -0.3708 -0.9418
  194DOPC  H12R24005   1.228   8.135   4.339  1.6862 -0.1471 -1.1270
  194DOPC  H12S24006   1.245   7.972   4.375 -1.0415 -3.5014 -2.9439
  194DOPC  C21324007   1.103   8.003   4.216 -0.5224  0.2331  0.2004
  194DOPC  H13R24008   1.114   7.922   4.141 -1.0746 -0.9502  1.3488
  194DOPC  H13S24009   1.079   8.096   4.159  1.5127 -0.6067 -2.2286
  194DOPC  C21424010   0.990   7.974   4.310  0.6869  0.0965 -0.0467
  194DOPC  H14R24011   0.895   7.967   4.252  0.8514  1.5948 -0.5197
  194DOPC  H14S24012   0.970   8.043   4.394 -1.3353 -0.6769  0.1751
  194DOPC  C21524013   0.990   7.831   4.377 -0.6794  0.2124 -0.4920
  194DOPC  H15R24014   1.088   7.800   4.419 -1.8322 -3.6173 -0.3236
  194DOPC  H15S24015   0.973   7.753   4.301 -0.1155 -1.7247  1.2709
  194DOPC  C21624016   0.886   7.814   4.485 -0.2631  0.4883 -0.7152
  194DOPC  H16R24017   0.874   7.705   4.505  1.0882  0.6676  1.4751
  194DOPC  H16S24018   0.786   7.848   4.450 -0.4528  2.1100  1.1876
  194DOPC  C21724019   0.912   7.886   4.620 -0.5914  1.0893  0.5050
  194DOPC  H17R24020   0.962   7.984   4.605  0.5069  0.2056 -2.5083
  194DOPC  H17S24021   0.974   7.811   4.673 -0.7842  0.1705 -0.5153
  194DOPC  C21824022   0.794   7.894   4.716 -0.2118 -0.2689  0.1260
  194DOPC  H18R24023   0.737   7.799   4.706 -0.0165 -0.3986  0.2353
  194DOPC  H18S24024   0.727   7.981   4.699 -1.4621 -1.2315  0.0014
  194DOPC  H18T24025   0.828   7.899   4.822 -0.1273  1.6168  0.0454
  194DOPC   C3324026   1.236   8.244   3.395 -0.0019  0.6216  0.5292
  194DOPC   H3X24027   1.264   8.143   3.433 -0.4607 -0.5709 -2.0846
  194DOPC   H3Y24028   1.126   8.230   3.398 -0.0986  1.4077  0.7322
  194DOPC   C3424029   1.284   8.359   3.491 -0.3862 -0.1425  0.9999
  194DOPC   H4X24030   1.221   8.451   3.489 -0.4506 -0.1954 -0.1695
  194DOPC   H4Y24031   1.387   8.387   3.462  0.1405 -3.5561 -0.9750
  194DOPC   C3524032   1.307   8.295   3.630 -0.0951  0.0291  0.0082
  194DOPC   H5X24033   1.392   8.223   3.620  0.4104  0.7779 -1.3885
  194DOPC   H5Y24034   1.218   8.238   3.664 -0.1963  1.5910  2.6049
  194DOPC   C3624035   1.344   8.405   3.727 -0.9361 -0.4243 -0.1987
  194DOPC   H6X24036   1.446   8.434   3.694 -0.9125  0.0859  0.3045
  194DOPC   H6Y24037   1.273   8.490   3.718 -1.3143 -0.6976  0.1431
  194DOPC   C3724038   1.341   8.352   3.866  0.1341  0.1783 -0.9842
  194DOPC   H7X24039   1.243   8.303   3.887  2.0502 -3.3824  0.5873
  194DOPC   H7Y24040   1.406   8.262   3.867 -1.0860 -0.7505 -1.9604
  194DOPC   C3824041   1.372   8.452   3.977 -0.0939 -0.8788  0.1418
  194DOPC   H8X24042   1.308   8.538   3.945 -3.9003 -4.5267 -3.3709
  194DOPC   H8Y24043   1.476   8.490   3.970 -0.2791 -0.2950  0.4522
  194DOPC   C3924044   1.317   8.412   4.113  0.2795 -0.2348 -0.1406
  194DOPC   H9X24045   1.210   8.388   4.115  0.1675  0.2498  2.2513
  194DOPC  C31024046   1.385   8.405   4.223 -0.3857  0.2159 -0.8123
  194DOPC  H10X24047   1.349   8.362   4.318  1.2355 -2.7701 -1.4431
  194DOPC  C31124048   1.528   8.429   4.235 -0.4256 -0.6367  0.4902
  194DOPC  H11X24049   1.552   8.475   4.333  0.4959  3.8132 -1.5551
  194DOPC  H11Y24050   1.560   8.506   4.162  1.6476 -1.1273  0.8231
  194DOPC  C31224051   1.606   8.289   4.220 -0.0347  0.1320  0.0310
  194DOPC  H12X24052   1.572   8.232   4.131  0.9555  0.9210 -0.8667
  194DOPC  H12Y24053   1.595   8.228   4.312  1.0646 -0.1305 -0.0063
  194DOPC  C31324054   1.754   8.299   4.204 -0.1056 -0.1931  0.5095
  194DOPC  H13X24055   1.772   8.371   4.122 -3.1365  0.5972  0.3851
  194DOPC  H13Y24056   1.806   8.347   4.289  0.5996  0.1721 -0.1300
  194DOPC  C31424057   1.824   8.165   4.188 -0.2598  0.1902 -0.2780
  194DOPC  H14X24058   1.930   8.192   4.165 -0.3757 -0.0466 -1.1203
  194DOPC  H14Y24059   1.831   8.111   4.284 -0.3347  1.7357  0.6323
  194DOPC  C31524060   1.776   8.081   4.070 -0.4854  0.6134 -0.7210
  194DOPC  H15X24061   1.676   8.045   4.103  1.0357 -1.2983  2.2337
  194DOPC  H15Y24062   1.838   7.989   4.078 -3.2367 -1.2393  0.5986
  194DOPC  C31624063   1.785   8.134   3.928  0.1592 -0.5262  0.0579
  194DOPC  H16X24064   1.754   8.240   3.929  0.5031 -0.4139 -0.4360
  194DOPC  H16Y24065   1.887   8.131   3.884 -0.6014  0.4023 -1.8929
  194DOPC  C31724066   1.688   8.058   3.836 -0.8808  0.1936 -0.6696
  194DOPC  H17X24067   1.717   7.952   3.825 -0.9712 -0.0317  0.9256
  194DOPC  H17Y24068   1.585   8.060   3.879  0.3843  0.2134  2.6481
  194DOPC  C31824069   1.689   8.135   3.701 -0.1768 -0.2764 -0.4870
  194DOPC  H18X24070   1.625   8.075   3.632 -0.5107 -0.9768  0.4093
  194DOPC  H18Y24071   1.645   8.236   3.710 -0.7485 -0.6660  1.7853
  194DOPC  H18Z24072   1.795   8.135   3.667 -0.3143 -0.4196 -0.9235
  195DOPC     N24073   5.539   0.860   1.953 -1.3164  0.4468 -0.1074
  195DOPC   C1224074   5.508   0.792   2.087 -0.1566  0.3075 -0.3412
  195DOPC  H12A24075   5.401   0.781   2.101 -0.0630  1.6626  1.9182
  195DOPC  H12B24076   5.547   0.861   2.161 -0.3637  1.8085 -1.5704
  195DOPC   C1324077   5.502   0.778   1.844  0.0518 -0.3057  0.2551
  195DOPC  H13A24078   5.504   0.830   1.750 -0.4386 -0.9110 -0.1027
  195DOPC  H13B24079   5.570   0.694   1.845  0.5475  0.0303 -1.6354
  195DOPC  H13C24080   5.401   0.743   1.863  0.5191 -0.4798  2.7240
  195DOPC   C1424081   5.685   0.894   1.946  0.0903  0.4601 -0.0966
  195DOPC  H14A24082   5.714   0.948   2.035  1.7691  0.1896 -0.4506
  195DOPC  H14B24083   5.745   0.805   1.940 -0.6776  0.0185 -1.8139
  195DOPC  H14C24084   5.712   0.950   1.858  0.3820  1.0108  0.3356
  195DOPC   C1524085   5.457   0.985   1.941 -0.3533  1.0075 -0.0022
  195DOPC  H15A24086   5.489   1.055   2.017  0.7695  1.0645 -0.5074
  195DOPC  H15B24087   5.351   0.967   1.949  0.0760 -1.0786  2.1249
  195DOPC  H15C24088   5.482   1.036   1.849  1.7078  2.0329  1.0571
  195DOPC   C1124089   5.580   0.651   2.112  0.0527  0.6147 -0.2741
  195DOPC  H11A24090   5.551   0.610   2.211  1.4664 -0.5906 -0.3250
  195DOPC  H11B24091   5.554   0.579   2.033 -0.6215 -0.3020  0.7579
  195DOPC     P24092   5.801   0.718   2.240  0.2600  0.1128  0.0289
  195DOPC   O1324093   5.701   0.793   2.324  0.1695 -0.4973  0.0719
  195DOPC   O1424094   5.902   0.803   2.187  0.4022 -0.1093 -0.0914
  195DOPC   O1224095   5.724   0.650   2.113  0.4048  0.0278 -0.7184
  195DOPC   O1124096   5.865   0.600   2.329 -0.0102  1.0893 -0.5607
  195DOPC    C124097   5.855   0.463   2.277  0.0964  0.2637  0.3324
  195DOPC    HA24098   5.950   0.411   2.304 -0.8047 -1.1782  0.8276
  195DOPC    HB24099   5.853   0.468   2.166  0.1651  2.6470  0.3952
  195DOPC    C224100   5.731   0.390   2.331 -0.0349  0.1720 -0.4024
  195DOPC    HS24101   5.638   0.417   2.276 -1.0055 -3.4829 -0.7983
  195DOPC   O2124102   5.723   0.391   2.474 -0.1025  0.2195  0.3786
  195DOPC   C2124103   5.636   0.480   2.516  0.6721  0.7234  0.0760
  195DOPC   O2224104   5.565   0.548   2.445 -0.1949 -0.6947  0.1250
  195DOPC   C2224105   5.642   0.491   2.666  0.1696  0.1657  0.0918
  195DOPC   H2R24106   5.747   0.495   2.703  0.2423  0.0800 -0.1035
  195DOPC   H2S24107   5.600   0.400   2.714  1.5420  0.7153  2.4672
  195DOPC    C324108   5.742   0.240   2.295 -0.6684 -0.0885  0.1229
  195DOPC    HX24109   5.836   0.197   2.336  0.0616  2.4324  1.3164
  195DOPC    HY24110   5.735   0.234   2.185 -1.5009  1.8033  0.0249
  195DOPC   O3124111   5.631   0.170   2.358 -0.0886  0.0771 -0.0969
  195DOPC   C3124112   5.627   0.042   2.327  0.1576  0.7317 -1.1284
  195DOPC   O3224113   5.691  -0.011   2.240  0.2946  0.1210  0.0465
  195DOPC   C3224114   5.535  -0.031   2.427  0.1997  0.2646 -0.4825
  195DOPC   H2X24115   5.445  -0.046   2.363  1.1351  0.6743 -1.9366
  195DOPC   H2Y24116   5.577  -0.132   2.446 -0.7711  0.0132  0.4864
  195DOPC   C2324117   5.564   0.612   2.715  0.3955  0.3292 -0.5219
  195DOPC   H3R24118   5.461   0.612   2.672 -0.2556 -0.9057  0.9501
  195DOPC   H3S24119   5.623   0.700   2.683  0.7951  0.4161  0.4107
  195DOPC   C2424120   5.555   0.623   2.867 -0.4813  0.0093  0.0849
  195DOPC   H4R24121   5.504   0.542   2.923 -1.1160 -0.5931 -1.3302
  195DOPC   H4S24122   5.494   0.714   2.887 -0.8156 -0.3916  0.9487
  195DOPC   C2524123   5.693   0.649   2.929 -0.6436 -0.5820  0.0054
  195DOPC   H5R24124   5.748   0.727   2.872 -0.4895  1.9170  3.2967
  195DOPC   H5S24125   5.754   0.556   2.929  0.2538 -0.0068 -0.4073
  195DOPC   C2624126   5.677   0.700   3.068 -0.0307  0.4029  1.0083
  195DOPC   H6R24127   5.618   0.634   3.136  0.9856 -1.0842  0.5006
  195DOPC   H6S24128   5.623   0.796   3.055 -1.1119 -0.3773 -0.6600
  195DOPC   C2724129   5.815   0.736   3.129  0.6046 -0.1926 -0.1120
  195DOPC   H7R24130   5.867   0.797   3.052 -1.8735 -0.1885 -1.9042
  195DOPC   H7S24131   5.885   0.654   3.154  0.9214  0.7377  2.3834
  195DOPC   C2824132   5.804   0.818   3.269  0.4322  0.0327  0.2426
  195DOPC   H8R24133   5.747   0.758   3.343  1.3001 -1.2175 -0.0624
  195DOPC   H8S24134   5.755   0.916   3.253 -1.6276 -0.6420  2.0183
  195DOPC   C2924135   5.941   0.860   3.314  0.4862  0.4802 -0.6149
  195DOPC   H9R24136   6.024   0.844   3.243 -0.8827  0.8045 -2.3351
  195DOPC  C21024137   5.966   0.936   3.421  1.1114  0.2572  0.0924
  195DOPC  H10R24138   6.065   0.981   3.439  0.3325  1.5757  1.3346
  195DOPC  C21124139   5.863   0.988   3.522  0.3495 -0.2936 -0.6603
  195DOPC  H11R24140   5.758   0.959   3.500 -0.3475  1.2735  0.4567
  195DOPC  H11S24141   5.874   1.098   3.517 -2.1690  0.0698  0.4620
  195DOPC  C21224142   5.898   0.954   3.666 -0.2339  0.1910  0.4103
  195DOPC  H12R24143   5.983   1.022   3.686  0.0446  0.8425 -2.5159
  195DOPC  H12S24144   5.930   0.850   3.683  0.1798  0.6704  2.8275
  195DOPC  C21324145   5.788   0.995   3.766 -0.3995 -0.0968  0.1911
  195DOPC  H13R24146   5.756   1.100   3.747 -0.1696  0.1918  1.3306
  195DOPC  H13S24147   5.843   0.987   3.862  0.7151 -2.0930 -0.5612
  195DOPC  C21424148   5.666   0.891   3.779 -0.6657 -0.5722 -0.6170
  195DOPC  H14R24149   5.706   0.787   3.777 -1.1009 -0.7336 -1.7007
  195DOPC  H14S24150   5.607   0.900   3.686 -2.1445  2.8292  0.4768
  195DOPC  C21524151   5.587   0.912   3.909  0.0420  1.0076  0.9839
  195DOPC  H15R24152   5.639   0.857   3.991  1.3398  1.7282  0.6838
  195DOPC  H15S24153   5.501   0.842   3.904  1.4622 -0.7752  0.1832
  195DOPC  C21624154   5.556   1.051   3.959 -0.4037  0.5712 -0.1131
  195DOPC  H16R24155   5.499   1.109   3.883 -0.2286  1.2521  0.2739
  195DOPC  H16S24156   5.656   1.099   3.966  0.6094 -1.4527  0.3424
  195DOPC  C21724157   5.485   1.059   4.099  0.1692  0.4976 -0.2237
  195DOPC  H17R24158   5.379   1.030   4.082 -0.1462  2.3743 -1.7783
  195DOPC  H17S24159   5.481   1.167   4.125  0.9935  0.3318  0.6498
  195DOPC  C21824160   5.547   0.980   4.214  0.6244 -0.4908  0.8254
  195DOPC  H18R24161   5.533   0.872   4.195  1.6178 -0.3623 -0.9198
  195DOPC  H18S24162   5.503   1.018   4.308 -0.4794  2.1547 -0.6405
  195DOPC  H18T24163   5.654   1.008   4.227  1.0170 -1.3874 -0.3033
  195DOPC   C3324164   5.513   0.048   2.557 -0.5911  0.0087 -0.4363
  195DOPC   H3X24165   5.487   0.155   2.544 -0.6543 -0.0307 -0.6403
  195DOPC   H3Y24166   5.607   0.034   2.616 -0.4782  0.1122 -0.5925
  195DOPC   C3424167   5.406  -0.024   2.646 -0.4250 -0.0945  0.9115
  195DOPC   H4X24168   5.424  -0.133   2.654  0.8803  0.1195  1.0181
  195DOPC   H4Y24169   5.308  -0.006   2.596  0.1194  1.3846  0.3226
  195DOPC   C3524170   5.388   0.018   2.795  0.5100 -0.6134 -0.7340
  195DOPC   H5X24171   5.484   0.010   2.850  0.0276  0.6221  0.3380
  195DOPC   H5Y24172   5.313  -0.046   2.846 -0.1235  0.7756  0.1583
  195DOPC   C3624173   5.327   0.158   2.825  0.3109  0.6963  0.0585
  195DOPC   H6X24174   5.401   0.236   2.796  1.6371 -0.3180  0.6171
  195DOPC   H6Y24175   5.238   0.187   2.766  0.3150 -1.1765 -0.9574
  195DOPC   C3724176   5.283   0.155   2.967 -0.4055  0.8132 -0.4706
  195DOPC   H7X24177   5.208   0.075   2.988  1.5055 -1.0919 -0.5401
  195DOPC   H7Y24178   5.369   0.119   3.028  0.7001  1.2803 -1.7024
  195DOPC   C3824179   5.239   0.294   3.014  0.4577 -0.7889 -0.0142
  195DOPC   H8X24180   5.161   0.326   2.941  0.9939 -0.1514 -0.3229
  195DOPC   H8Y24181   5.323   0.359   2.981  1.4883 -1.6988  0.7304
  195DOPC   C3924182   5.208   0.321   3.156  0.0810 -0.1078 -0.1899
  195DOPC   H9X24183   5.295   0.359   3.211  1.9703  0.1033 -3.1149
  195DOPC  C31024184   5.086   0.313   3.210  0.1100  0.2966  0.2085
  195DOPC  H10X24185   5.078   0.343   3.316 -2.5827 -2.3698  0.9018
  195DOPC  C31124186   4.958   0.269   3.147  0.1928  0.1477 -0.1696
  195DOPC  H11X24187   4.947   0.167   3.190 -0.2244  0.9560  1.7664
  195DOPC  H11Y24188   4.972   0.247   3.039 -2.0218 -1.8232 -0.1260
  195DOPC  C31224189   4.825   0.343   3.172  0.5510  0.5914 -0.7510
  195DOPC  H12X24190   4.756   0.300   3.096  2.4940 -1.6511 -1.3645
  195DOPC  H12Y24191   4.842   0.452   3.161  0.0356  0.6858 -0.6564
  195DOPC  C31324192   4.756   0.320   3.305 -0.1467 -0.9554 -0.6049
  195DOPC  H13X24193   4.648   0.309   3.280 -0.4126 -3.7258  1.2943
  195DOPC  H13Y24194   4.780   0.221   3.349  0.9699 -0.1605  0.6306
  195DOPC  C31424195   4.795   0.420   3.408 -0.1766 -0.4400  0.7226
  195DOPC  H14X24196   4.901   0.451   3.392 -0.2746  1.0361  2.4725
  195DOPC  H14Y24197   4.747   0.519   3.393 -0.5706 -1.1368 -4.5043
  195DOPC  C31524198   4.788   0.363   3.560  0.5643 -0.3154 -0.4560
  195DOPC  H15X24199   4.853   0.432   3.618 -0.8386  1.9109 -1.3957
  195DOPC  H15Y24200   4.834   0.263   3.548 -0.8323 -0.6480 -4.5777
  195DOPC  C31624201   4.647   0.353   3.626  0.0889 -0.1854  0.2275
  195DOPC  H16X24202   4.580   0.441   3.615 -3.1059 -2.2576  1.3768
  195DOPC  H16Y24203   4.598   0.275   3.564  0.6886 -1.7734  1.6514
  195DOPC  C31724204   4.661   0.311   3.774 -0.0100  0.3755 -0.0287
  195DOPC  H17X24205   4.727   0.388   3.819 -0.0813  1.3440 -1.5102
  195DOPC  H17Y24206   4.566   0.318   3.831 -0.1672 -0.5617 -0.1472
  195DOPC  C31824207   4.717   0.172   3.794 -0.4184  0.1742 -0.6081
  195DOPC  H18X24208   4.806   0.142   3.733  1.2912  1.0656  1.3272
  195DOPC  H18Y24209   4.761   0.171   3.896  0.8278  0.8343 -1.1221
  195DOPC  H18Z24210   4.647   0.086   3.785 -0.0516 -0.1344 -0.5505
  196DOPC     N24211   1.433   1.327   2.550 -0.4670  0.7531 -0.1309
  196DOPC   C1224212   1.365   1.238   2.651 -0.0983  0.2770  0.5586
  196DOPC  H12A24213   1.442   1.207   2.721 -0.0147 -0.2096  0.2527
  196DOPC  H12B24214   1.327   1.153   2.597 -2.5099  1.8951 -0.4947
  196DOPC   C1324215   1.564   1.261   2.512 -0.4598 -0.3889  0.4188
  196DOPC  H13A24216   1.615   1.313   2.432  2.5146 -0.3698  2.2047
  196DOPC  H13B24217   1.630   1.257   2.596  0.2539 -0.0370 -0.1119
  196DOPC  H13C24218   1.537   1.166   2.469  0.1509  0.4253 -1.9403
  196DOPC   C1424219   1.460   1.468   2.605  0.0859 -0.8410 -0.1262
  196DOPC  H14A24220   1.504   1.530   2.528  3.7587 -0.3657  2.1291
  196DOPC  H14B24221   1.368   1.516   2.634 -0.8580 -2.1044 -0.9089
  196DOPC  H14C24222   1.536   1.469   2.682  0.4121 -0.6594 -0.4437
  196DOPC   C1524223   1.352   1.345   2.424  0.3168 -0.8322 -0.3995
  196DOPC  H15A24224   1.389   1.416   2.352 -0.2232 -1.6312 -1.4865
  196DOPC  H15B24225   1.247   1.363   2.442  0.3356  0.1217 -1.1790
  196DOPC  H15C24226   1.349   1.247   2.377  0.9538 -1.2189  0.3300
  196DOPC   C1124227   1.240   1.284   2.722 -0.6459  0.3215 -0.2373
  196DOPC  H11A24228   1.216   1.209   2.801 -0.1481  0.5850  0.1738
  196DOPC  H11B24229   1.259   1.374   2.784 -0.2385  0.7287 -0.9417
  196DOPC     P24230   1.033   1.195   2.586  0.2368 -0.1253  0.4067
  196DOPC   O1324231   1.113   1.094   2.511  0.3771  0.5268  0.1385
  196DOPC   O1424232   0.925   1.255   2.507 -0.2345  0.2896 -0.1085
  196DOPC   O1224233   1.126   1.315   2.642  0.5563 -0.3926 -0.1204
  196DOPC   O1124234   0.976   1.125   2.712  0.6077  0.2866  0.0528
  196DOPC    C124235   0.873   1.171   2.796  0.1071 -0.4485  0.0088
  196DOPC    HA24236   0.781   1.120   2.759  0.9086 -0.6072 -1.8384
  196DOPC    HB24237   0.864   1.282   2.790  0.8724 -0.4770 -3.5979
  196DOPC    C224238   0.880   1.129   2.945  0.2149  0.4077  0.6632
  196DOPC    HS24239   0.783   1.156   2.993 -1.1770 -0.3186 -1.6099
  196DOPC   O2124240   0.991   1.189   3.013 -0.3891 -0.5477  0.3365
  196DOPC   C2124241   0.972   1.308   3.045 -1.3111 -0.3968  0.6037
  196DOPC   O2224242   0.871   1.373   3.026 -0.2139  0.0399 -0.9864
  196DOPC   C2224243   1.104   1.363   3.108  0.5349 -1.1093  0.3827
  196DOPC   H2R24244   1.167   1.405   3.027 -1.4242  0.8732 -0.2199
  196DOPC   H2S24245   1.159   1.277   3.152  1.7651 -1.0276 -0.9145
  196DOPC    C324246   0.892   0.971   2.963  0.4302 -0.1510  0.1956
  196DOPC    HX24247   0.997   0.947   2.936  0.2977 -2.1128  1.2540
  196DOPC    HY24248   0.815   0.915   2.905  2.9881 -2.1731 -1.4629
  196DOPC   O3124249   0.867   0.937   3.103 -0.2097 -0.1553 -0.4351
  196DOPC   C3124250   0.977   0.920   3.186 -0.2724 -0.0681  0.2565
  196DOPC   O3224251   1.092   0.908   3.143  0.2131  0.0450 -0.3239
  196DOPC   C3224252   0.931   0.916   3.330 -0.6239  0.0060  0.4519
  196DOPC   H2X24253   0.829   0.958   3.348 -0.4200  1.6431 -1.8101
  196DOPC   H2Y24254   0.944   0.810   3.359  2.4874 -0.1130 -1.0268
  196DOPC   C2324255   1.100   1.475   3.221  0.6400 -0.4021  0.3093
  196DOPC   H3R24256   1.013   1.544   3.207  2.8238  2.7189  1.0794
  196DOPC   H3S24257   1.183   1.548   3.208 -1.1776  1.5022 -1.6606
  196DOPC   C2424258   1.112   1.416   3.364  0.1490  0.1115  0.3977
  196DOPC   H4R24259   1.202   1.351   3.372 -0.4823 -0.5947  2.2090
  196DOPC   H4S24260   1.030   1.341   3.378  0.2169  0.4093  2.8447
  196DOPC   C2524261   1.114   1.520   3.474 -0.5151 -0.5471  0.1358
  196DOPC   H5R24262   1.025   1.586   3.465  1.7451  2.7914  0.2652
  196DOPC   H5S24263   1.212   1.571   3.480 -0.2154 -1.0304 -0.5203
  196DOPC   C2624264   1.085   1.454   3.609 -0.2566 -0.1230  0.1827
  196DOPC   H6R24265   1.166   1.384   3.639 -0.2489 -0.1308  0.1440
  196DOPC   H6S24266   0.986   1.405   3.603 -0.4917  0.2530  0.9670
  196DOPC   C2724267   1.077   1.560   3.725 -0.0604  0.4019 -0.0870
  196DOPC   H7R24268   1.016   1.647   3.693 -0.9780  0.1359  0.9009
  196DOPC   H7S24269   1.172   1.615   3.742 -0.4090  0.6725  1.0861
  196DOPC   C2824270   1.038   1.480   3.845 -0.3422  0.4889  0.0672
  196DOPC   H8R24271   1.130   1.420   3.861 -1.8880 -2.1853 -0.5109
  196DOPC   H8S24272   0.955   1.414   3.813 -0.3758  1.1622 -1.2920
  196DOPC   C2924273   1.023   1.558   3.969 -0.0097  0.1779 -0.8536
  196DOPC   H9R24274   0.920   1.589   3.991 -0.3932 -2.5765  1.8687
  196DOPC  C21024275   1.122   1.616   4.049  0.0063  0.4913 -0.3788
  196DOPC  H10R24276   1.100   1.688   4.129  3.6214 -0.0556  1.3166
  196DOPC  C21124277   1.264   1.577   4.042  1.1504  0.3436  0.0878
  196DOPC  H11R24278   1.303   1.599   3.940  2.5585  0.2776  0.5925
  196DOPC  H11S24279   1.281   1.469   4.064  0.8697  0.3073  0.1347
  196DOPC  C21224280   1.357   1.642   4.138 -0.4641  0.3612  0.0572
  196DOPC  H12R24281   1.343   1.752   4.127 -2.2059  0.5249  2.9198
  196DOPC  H12S24282   1.464   1.625   4.114 -0.6745 -1.0670  0.0285
  196DOPC  C21324283   1.342   1.598   4.291 -0.1269  0.3573  0.6037
  196DOPC  H13R24284   1.362   1.489   4.298 -1.0578 -0.0327 -1.8398
  196DOPC  H13S24285   1.233   1.610   4.310 -0.1494  0.4733  0.4029
  196DOPC  C21424286   1.437   1.673   4.387 -0.1197  0.0187  1.0104
  196DOPC  H14R24287   1.393   1.774   4.395 -0.9219  0.1445 -2.8782
  196DOPC  H14S24288   1.543   1.669   4.353 -0.2911 -1.5289  0.5655
  196DOPC  C21524289   1.441   1.605   4.526 -0.3327  0.8980 -0.1410
  196DOPC  H15R24290   1.516   1.657   4.590  1.3528 -1.3894 -0.1164
  196DOPC  H15S24291   1.467   1.498   4.510  0.0887  0.7173  1.5404
  196DOPC  C21624292   1.307   1.621   4.602 -0.1527 -0.2340 -0.1132
  196DOPC  H16R24293   1.219   1.586   4.545 -0.3183  0.8085 -0.5260
  196DOPC  H16S24294   1.297   1.730   4.619  4.7677  0.5504 -0.7505
  196DOPC  C21724295   1.303   1.538   4.731  0.4969 -0.4481 -0.5171
  196DOPC  H17R24296   1.325   1.432   4.705 -0.2159 -0.8215  0.3150
  196DOPC  H17S24297   1.204   1.542   4.782  1.1523  1.4566  0.7507
  196DOPC  C21824298   1.401   1.582   4.837  0.2665  0.6469 -0.4290
  196DOPC  H18R24299   1.396   1.691   4.858  0.0841  0.7913 -1.2076
  196DOPC  H18S24300   1.502   1.562   4.797 -0.8840 -0.8684 -2.8091
  196DOPC  H18T24301   1.385   1.526   4.932  2.5566 -0.3161 -0.5617
  196DOPC   C3324302   1.022   1.008   3.415 -0.4386  0.0806  0.1279
  196DOPC   H3X24303   1.040   1.106   3.365  2.1907 -0.0649  0.6223
  196DOPC   H3Y24304   1.122   0.960   3.420 -0.5847 -0.7278 -2.7838
  196DOPC   C3424305   0.978   1.030   3.554 -0.2208  0.2601 -0.6382
  196DOPC   H4X24306   0.930   0.936   3.586 -1.2631  1.4490  1.5013
  196DOPC   H4Y24307   0.891   1.098   3.568  0.0269  0.2033  1.5264
  196DOPC   C3524308   1.092   1.062   3.649 -0.2517  0.0576  0.5553
  196DOPC   H5X24309   1.143   1.146   3.595 -1.4020 -0.4100 -1.3567
  196DOPC   H5Y24310   1.175   0.989   3.645  1.4361  1.9176 -1.4801
  196DOPC   C3624311   1.042   1.108   3.784 -0.4312  0.1633 -0.0423
  196DOPC   H6X24312   0.977   1.197   3.771  0.4625  0.8567  0.1868
  196DOPC   H6Y24313   0.971   1.034   3.828  1.4076 -2.7706 -1.6348
  196DOPC   C3724314   1.164   1.129   3.875 -0.4758  0.6346 -0.2172
  196DOPC   H7X24315   1.230   1.041   3.872  0.0777  0.8934  2.3719
  196DOPC   H7Y24316   1.225   1.218   3.846  1.5156 -0.1808  1.3004
  196DOPC   C3824317   1.120   1.133   4.022 -0.4679  0.2106 -0.8154
  196DOPC   H8X24318   1.062   1.044   4.054  0.5165  0.5624  2.2674
  196DOPC   H8Y24319   1.054   1.223   4.027 -0.9535 -0.1963  0.4419
  196DOPC   C3924320   1.234   1.139   4.116 -0.2118  0.4855  0.1776
  196DOPC   H9X24321   1.332   1.115   4.072 -0.5574 -0.4395 -0.1185
  196DOPC  C31024322   1.232   1.158   4.247  0.3951 -0.9366  0.4280
  196DOPC  H10X24323   1.325   1.149   4.305  1.4768  0.9320 -0.8991
  196DOPC  C31124324   1.110   1.189   4.328  0.0180  0.1686  0.4955
  196DOPC  H11X24325   1.071   1.102   4.386 -1.5323  1.3438  1.3095
  196DOPC  H11Y24326   1.028   1.210   4.256  0.0810  0.4149  0.4957
  196DOPC  C31224327   1.120   1.315   4.420  0.5036  0.6415 -0.0645
  196DOPC  H12X24328   1.135   1.396   4.345  0.3693  0.3579 -0.4009
  196DOPC  H12Y24329   1.206   1.306   4.490 -0.1473 -0.9068  0.5713
  196DOPC  C31324330   0.993   1.347   4.497  0.1075 -0.6017  0.1607
  196DOPC  H13X24331   0.989   1.457   4.484  1.6155 -0.4866  0.4843
  196DOPC  H13Y24332   0.905   1.312   4.438  0.8168  0.8482 -1.9049
  196DOPC  C31424333   1.005   1.310   4.645  0.1492 -0.4890  0.4039
  196DOPC  H14X24334   0.985   1.202   4.663  2.7868 -1.0112  0.7207
  196DOPC  H14Y24335   1.116   1.314   4.657 -0.0521  0.7994  2.2158
  196DOPC  C31524336   0.930   1.406   4.744 -0.0016 -0.5836  0.4362
  196DOPC  H15X24337   0.971   1.508   4.725  0.4409 -0.6501  0.9958
  196DOPC  H15Y24338   0.963   1.382   4.847  2.8732 -1.7270 -0.6583
  196DOPC  C31624339   0.780   1.404   4.729 -0.7397  0.2651 -0.3061
  196DOPC  H16X24340   0.753   1.434   4.626  0.2405  2.5430  0.0356
  196DOPC  H16Y24341   0.743   1.300   4.742  0.3577 -0.0081  0.8576
  196DOPC  C31724342   0.704   1.511   4.807  0.1674  0.0300 -0.2096
  196DOPC  H17X24343   0.594   1.499   4.812  0.0658  0.9504  0.0347
  196DOPC  H17Y24344   0.734   1.495   4.913  1.4916 -0.1089 -0.5931
  196DOPC  C31824345   0.716   1.659   4.749  0.1202  0.0706  0.1375
  196DOPC  H18X24346   0.823   1.679   4.724 -0.4606 -0.9451 -3.9317
  196DOPC  H18Y24347   0.654   1.664   4.657 -1.9670 -0.4319  1.4589
  196DOPC  H18Z24348   0.675   1.734   4.820  0.3890  1.8917 -1.5370
  197DOPC     N24349   1.883   7.131   2.574  0.2627 -0.0185 -0.9299
  197DOPC   C1224350   1.975   7.240   2.624 -0.4966  0.4708  0.5131
  197DOPC  H12A24351   1.971   7.320   2.551  1.3925 -0.3798 -0.5683
  197DOPC  H12B24352   2.078   7.211   2.611  0.4175  2.7195  2.1061
  197DOPC   C1324353   1.905   6.999   2.641 -0.2356 -0.8292  0.1896
  197DOPC  H13A24354   1.910   7.006   2.748 -0.9678 -2.0102  0.3275
  197DOPC  H13B24355   1.826   6.929   2.616  0.6084 -1.2956 -1.2852
  197DOPC  H13C24356   2.000   6.954   2.615  0.9876  1.2011  0.9069
  197DOPC   C1424357   1.905   7.117   2.430  0.0634 -0.4172 -0.5503
  197DOPC  H14A24358   2.001   7.069   2.417  0.8341  1.1766 -0.9325
  197DOPC  H14B24359   1.825   7.058   2.388 -1.1743  1.0113 -0.3065
  197DOPC  H14C24360   1.915   7.208   2.373  1.9345 -0.9317 -1.1220
  197DOPC   C1524361   1.742   7.166   2.600 -0.0182  0.1194  0.0659
  197DOPC  H15A24362   1.723   7.190   2.703 -1.2951  1.1694 -0.3858
  197DOPC  H15B24363   1.672   7.088   2.577  0.8704 -0.5423 -0.4850
  197DOPC  H15C24364   1.705   7.248   2.540  1.3829  1.8946  1.5015
  197DOPC   C1124365   1.957   7.299   2.763  0.1617  0.3347 -0.3312
  197DOPC  H11A24366   2.025   7.387   2.771  1.3910 -0.7351  2.8664
  197DOPC  H11B24367   1.852   7.330   2.786  0.0657 -0.1352 -0.1324
  197DOPC     P24368   2.143   7.161   2.879 -0.2987  0.9016 -0.1362
  197DOPC   O1324369   2.221   7.201   2.762 -0.1708  0.4165  0.1857
  197DOPC   O1424370   2.131   7.015   2.904  0.4919  0.1173 -0.0749
  197DOPC   O1224371   1.989   7.200   2.854  0.1679  0.1000  0.3387
  197DOPC   O1124372   2.183   7.246   3.002 -0.1230  0.1750 -0.4026
  197DOPC    C124373   2.108   7.335   3.074  0.5155  0.5746 -0.5290
  197DOPC    HA24374   2.010   7.360   3.029  0.6304  0.3363 -0.9093
  197DOPC    HB24375   2.165   7.428   3.090  0.5655  0.3985  0.4267
  197DOPC    C224376   2.085   7.275   3.223 -0.4513  0.4556  0.5442
  197DOPC    HS24377   2.189   7.240   3.241 -0.5016 -0.7033 -1.1414
  197DOPC   O2124378   1.994   7.166   3.229  0.6103  0.4426  0.0853
  197DOPC   C2124379   2.033   7.062   3.312 -0.8332  0.5187 -0.1697
  197DOPC   O2224380   2.149   7.046   3.344  0.1935 -0.0702 -0.0466
  197DOPC   C2224381   1.924   6.970   3.352  0.3062 -1.0021  0.2685
  197DOPC   H2R24382   1.952   6.864   3.330 -0.0602 -1.5467  2.2315
  197DOPC   H2S24383   1.841   7.000   3.285  1.0951 -0.6637 -0.5784
  197DOPC    C324384   2.040   7.389   3.325  0.1857 -0.2473 -0.2656
  197DOPC    HX24385   1.931   7.407   3.321  0.3960  0.8926 -1.9332
  197DOPC    HY24386   2.083   7.479   3.276  1.2496 -1.6558 -2.0392
  197DOPC   O3124387   2.090   7.363   3.456  0.0882  0.5965 -0.0553
  197DOPC   C3124388   2.223   7.372   3.469 -0.4084  0.2973  0.1892
  197DOPC   O3224389   2.298   7.398   3.378 -0.1121  0.1356  0.0451
  197DOPC   C3224390   2.270   7.351   3.613  0.3532  0.5098 -0.1542
  197DOPC   H2X24391   2.374   7.311   3.614 -0.1671 -0.9441 -0.8142
  197DOPC   H2Y24392   2.273   7.451   3.661 -1.8594  1.5582 -2.0211
  197DOPC   C2324393   1.872   6.982   3.496 -0.1375  0.2314 -0.5283
  197DOPC   H3R24394   1.953   6.949   3.564 -0.6084  0.0825 -0.0288
  197DOPC   H3S24395   1.789   6.909   3.504  0.1397 -0.2624 -1.8387
  197DOPC   C2424396   1.818   7.126   3.527 -0.0117 -0.6419 -0.8926
  197DOPC   H4R24397   1.720   7.148   3.479 -0.0179  0.1619 -0.5316
  197DOPC   H4S24398   1.897   7.197   3.493 -0.4325  0.9897  1.3358
  197DOPC   C2524399   1.817   7.157   3.678 -0.7562 -0.0946 -0.0772
  197DOPC   H5R24400   1.914   7.134   3.729 -0.2103 -1.1388 -1.5045
  197DOPC   H5S24401   1.747   7.080   3.716 -0.3150 -0.1965  0.5531
  197DOPC   C2624402   1.745   7.290   3.699  0.3525  0.2440 -0.5168
  197DOPC   H6R24403   1.659   7.288   3.629 -1.0002  2.2851  0.9659
  197DOPC   H6S24404   1.800   7.384   3.676 -0.4636  1.0969  0.8408
  197DOPC   C2724405   1.702   7.317   3.848 -0.0497  0.5322  0.3502
  197DOPC   H7R24406   1.782   7.341   3.921 -0.8070  0.4505  1.2203
  197DOPC   H7S24407   1.667   7.216   3.878 -0.8831  0.6103 -0.3191
  197DOPC   C2824408   1.589   7.414   3.859 -0.5956 -0.1064  0.3137
  197DOPC   H8R24409   1.546   7.401   3.961 -0.4585  0.0678  0.3939
  197DOPC   H8S24410   1.507   7.395   3.787 -0.6637  0.0348  0.3518
  197DOPC   C2924411   1.646   7.550   3.849 -0.0183  0.2722  0.3030
  197DOPC   H9R24412   1.639   7.590   3.746  1.8859 -1.5128 -0.6067
  197DOPC  C21024413   1.704   7.622   3.948 -0.2046  0.0109 -0.7929
  197DOPC  H10R24414   1.747   7.719   3.921  0.7591 -0.4997 -1.1339
  197DOPC  C21124415   1.714   7.571   4.088 -0.1159  0.0274  0.3751
  197DOPC  H11R24416   1.804   7.507   4.100 -0.1062 -0.1423 -0.5327
  197DOPC  H11S24417   1.633   7.500   4.114  0.5260 -1.0206 -0.4012
  197DOPC  C21224418   1.710   7.680   4.199 -0.0908  0.0711  0.3257
  197DOPC  H12R24419   1.607   7.698   4.235  0.1358  1.7589  0.2026
  197DOPC  H12S24420   1.753   7.775   4.161 -1.1615  0.2891 -0.3840
  197DOPC  C21324421   1.799   7.642   4.318  1.0259 -0.3539 -0.0719
  197DOPC  H13R24422   1.896   7.607   4.277  0.1458 -0.3205 -2.2897
  197DOPC  H13S24423   1.744   7.565   4.377 -0.3798  0.2830 -0.5202
  197DOPC  C21424424   1.823   7.765   4.403  0.2160 -0.5711 -0.3417
  197DOPC  H14R24425   1.727   7.806   4.440  1.0349  1.4036 -0.2939
  197DOPC  H14S24426   1.860   7.846   4.337 -1.5709  0.9415  0.4137
  197DOPC  C21524427   1.921   7.750   4.515  0.6276 -0.2592 -0.4360
  197DOPC  H15R24428   2.011   7.719   4.458  1.2564 -0.3159  0.5611
  197DOPC  H15S24429   1.897   7.661   4.577  1.0805 -0.0011  0.1125
  197DOPC  C21624430   1.937   7.878   4.603  0.5237 -0.4021 -0.3253
  197DOPC  H16R24431   1.837   7.901   4.646  1.3135  1.4946  0.6304
  197DOPC  H16S24432   1.958   7.963   4.535 -0.2913 -0.5684 -0.7947
  197DOPC  C21724433   2.054   7.861   4.697 -0.0010  0.1037 -0.3618
  197DOPC  H17R24434   2.146   7.833   4.642  0.3868  0.1509  0.2530
  197DOPC  H17S24435   2.035   7.773   4.762 -5.0174 -1.1295 -2.9942
  197DOPC  C21824436   2.098   7.993   4.771  0.4850 -0.2698  0.1993
  197DOPC  H18R24437   2.023   8.023   4.847 -1.9481 -0.5514 -1.9497
  197DOPC  H18S24438   2.115   8.077   4.700  0.1406  0.0567  0.4988
  197DOPC  H18T24439   2.196   7.975   4.822  1.4473  1.9889 -0.7142
  197DOPC   C3324440   2.179   7.255   3.697  0.0776  0.2321  0.6400
  197DOPC   H3X24441   2.154   7.165   3.637 -1.9778 -0.3729  2.2431
  197DOPC   H3Y24442   2.074   7.288   3.715 -0.9093 -2.3909  0.2169
  197DOPC   C3424443   2.249   7.238   3.830  0.5347  0.0528 -0.2364
  197DOPC   H4X24444   2.287   7.336   3.863 -2.7429  1.4057 -0.0959
  197DOPC   H4Y24445   2.342   7.179   3.816  0.1010 -0.8213  0.4454
  197DOPC   C3524446   2.159   7.173   3.943 -0.3354 -0.1016 -0.3895
  197DOPC   H5X24447   2.133   7.068   3.918 -1.4086 -0.5300  2.1901
  197DOPC   H5Y24448   2.065   7.230   3.958 -0.1095 -0.0822  1.1597
  197DOPC   C3624449   2.225   7.165   4.084  0.2100  0.2915  0.8132
  197DOPC   H6X24450   2.183   7.081   4.142 -0.0864  0.3450  0.6769
  197DOPC   H6Y24451   2.333   7.142   4.073 -0.1142 -0.4875 -1.0620
  197DOPC   C3724452   2.213   7.301   4.149  0.2142 -0.3886 -0.1039
  197DOPC   H7X24453   2.281   7.373   4.098  1.6629 -0.9378  0.9778
  197DOPC   H7Y24454   2.114   7.347   4.129 -0.4618 -2.5050 -2.0972
  197DOPC   C3824455   2.253   7.289   4.298  0.2487  0.1512  0.3322
  197DOPC   H8X24456   2.354   7.242   4.296  0.6032  0.9180 -0.5051
  197DOPC   H8Y24457   2.190   7.216   4.354 -0.2321  0.4590  0.1881
  197DOPC   C3924458   2.268   7.423   4.369  0.4422 -0.2263 -0.3703
  197DOPC   H9X24459   2.333   7.500   4.325 -1.1688  3.1089  2.6447
  197DOPC  C31024460   2.214   7.454   4.490 -0.1894  0.5199 -0.7595
  197DOPC  H10X24461   2.205   7.559   4.522 -1.0921  0.2389 -0.0462
  197DOPC  C31124462   2.126   7.370   4.578 -0.8178  0.1166 -0.0943
  197DOPC  H11X24463   2.107   7.267   4.544 -0.9853 -0.6006  2.0225
  197DOPC  H11Y24464   2.028   7.422   4.584 -1.7193 -1.1316 -2.6297
  197DOPC  C31224465   2.182   7.358   4.719  0.9941  0.0663 -0.0968
  197DOPC  H12X24466   2.183   7.459   4.767 -1.2133  0.9223 -1.6857
  197DOPC  H12Y24467   2.285   7.317   4.730  1.3084  0.6475 -0.7387
  197DOPC  C31324468   2.095   7.253   4.793 -0.1504 -0.7079 -0.4611
  197DOPC  H13X24469   1.990   7.288   4.783 -0.1158 -0.6538 -0.6557
  197DOPC  H13Y24470   2.099   7.160   4.733 -1.3054 -1.6009  0.8204
  197DOPC  C31424471   2.130   7.248   4.940 -0.5774  0.2073  0.1071
  197DOPC  H14X24472   2.071   7.159   4.973 -0.0398 -0.1576  0.0962
  197DOPC  H14Y24473   2.239   7.234   4.951 -0.4305 -0.1105 -1.5594
  197DOPC  C31524474   2.103   7.375   5.023  0.4650  1.0211 -0.6704
  197DOPC  H15X24475   2.010   7.424   4.987 -1.8294 -3.0943 -0.9056
  197DOPC  H15Y24476   2.181   7.450   4.996  0.7522  1.5318  1.3840
  197DOPC  C31624477   2.118   7.355   5.175  0.8637 -0.7157  0.4650
  197DOPC  H16X24478   2.045   7.277   5.205 -0.8481  0.1414 -1.2797
  197DOPC  H16Y24479   2.220   7.322   5.205  2.1070 -0.0568 -2.6659
  197DOPC  C31724480   2.070   7.474   5.263  0.0575  0.0382 -0.2646
  197DOPC  H17X24481   2.133   7.565   5.256  0.0001  0.0643 -0.4370
  197DOPC  H17Y24482   1.966   7.504   5.241 -1.1138 -2.2811  1.6191
  197DOPC  C31824483   2.062   7.433   5.406  0.0693 -0.2532 -0.6182
  197DOPC  H18X24484   1.988   7.351   5.419 -0.2715  0.2213  0.5014
  197DOPC  H18Y24485   2.160   7.401   5.449 -0.5599 -1.0820  0.2350
  197DOPC  H18Z24486   2.037   7.525   5.462 -0.3071 -0.8865  0.2742
  198DOPC     N24487   6.846   6.075   1.393 -0.0819 -0.3117  0.1069
  198DOPC   C1224488   6.756   6.080   1.518 -0.1790 -0.2449  0.0238
  198DOPC  H12A24489   6.676   6.008   1.514 -1.1982  0.9007 -0.6902
  198DOPC  H12B24490   6.704   6.173   1.533  1.0348  0.4545  0.0792
  198DOPC   C1324491   6.759   6.095   1.275 -0.1751 -0.5914  0.8804
  198DOPC  H13A24492   6.690   6.178   1.278 -1.8461 -1.9646  2.3206
  198DOPC  H13B24493   6.821   6.110   1.188  0.7928 -1.4889  1.3979
  198DOPC  H13C24494   6.704   6.006   1.247  1.6158 -1.4376 -0.1788
  198DOPC   C1424495   6.915   5.947   1.379  0.6275 -0.2601 -0.3613
  198DOPC  H14A24496   6.838   5.872   1.384  0.4827 -0.0280  1.9921
  198DOPC  H14B24497   6.954   5.938   1.278 -1.3420 -1.2259 -1.0984
  198DOPC  H14C24498   6.993   5.938   1.453  0.2482  2.2692  0.4393
  198DOPC   C1524499   6.946   6.190   1.398 -0.7797 -0.5687  0.4251
  198DOPC  H15A24500   6.993   6.187   1.495 -1.5602  0.0086  0.8361
  198DOPC  H15B24501   6.895   6.285   1.397  1.0928  0.4988  1.3039
  198DOPC  H15C24502   7.017   6.184   1.317 -1.4691  0.9076 -0.3268
  198DOPC   C1124503   6.829   6.059   1.655  0.4371  0.2494 -0.0957
  198DOPC  H11A24504   6.753   6.054   1.736  1.0467 -1.2213  0.4137
  198DOPC  H11B24505   6.874   5.958   1.650 -0.5623 -0.2271  0.3412
  198DOPC     P24506   6.898   6.280   1.785  0.2469  0.0654  0.1411
  198DOPC   O1324507   6.756   6.323   1.764 -0.2834  0.0179  0.0304
  198DOPC   O1424508   7.006   6.384   1.765 -0.0833  0.5864  0.6648
  198DOPC   O1224509   6.934   6.153   1.692 -0.1111  0.0969  0.8425
  198DOPC   O1124510   6.906   6.215   1.931 -0.4833 -0.0718 -0.2613
  198DOPC    C124511   6.800   6.170   2.011  0.1638 -0.7750  0.2613
  198DOPC    HA24512   6.849   6.094   2.076 -0.7141 -1.1200  0.5353
  198DOPC    HB24513   6.724   6.119   1.948 -0.6366 -0.2248  0.7623
  198DOPC    C224514   6.737   6.280   2.109  0.1885  0.8776  0.9927
  198DOPC    HS24515   6.665   6.332   2.041  0.9179  0.2080 -0.3320
  198DOPC   O2124516   6.833   6.357   2.174  0.0182  0.1084 -0.6159
  198DOPC   C2124517   6.803   6.486   2.175 -0.1273 -0.2094 -0.1683
  198DOPC   O2224518   6.700   6.533   2.129  0.0799 -0.2858 -0.2094
  198DOPC   C2224519   6.918   6.567   2.241  0.4620 -0.7100 -0.1405
  198DOPC   H2R24520   6.882   6.666   2.275  0.2065 -1.6038  2.4263
  198DOPC   H2S24521   6.985   6.571   2.153 -1.2046 -1.8783 -1.5387
  198DOPC    C324522   6.637   6.217   2.213 -0.3352 -0.2445  0.6404
  198DOPC    HX24523   6.696   6.146   2.275  1.4515  0.7857  0.1960
  198DOPC    HY24524   6.566   6.151   2.160 -0.0696 -0.4207  0.4994
  198DOPC   O3124525   6.584   6.323   2.300 -0.1369  0.2670  0.1187
  198DOPC   C3124526   6.482   6.395   2.248  0.3072 -0.4908 -0.4049
  198DOPC   O3224527   6.433   6.370   2.143  0.2696 -0.4771  0.4910
  198DOPC   C3224528   6.432   6.493   2.352 -0.0801  0.0973  0.1472
  198DOPC   H2X24529   6.473   6.595   2.335 -0.0348  0.4072  1.8697
  198DOPC   H2Y24530   6.322   6.484   2.344 -0.6397  0.3785  4.8078
  198DOPC   C2324531   6.987   6.502   2.361 -0.6459 -0.2107 -0.3581
  198DOPC   H3R24532   7.086   6.550   2.374 -1.6721  1.9752 -0.2422
  198DOPC   H3S24533   7.005   6.393   2.349 -0.0881 -0.2969  1.0329
  198DOPC   C2424534   6.907   6.520   2.495 -0.7793  0.0711 -0.1140
  198DOPC   H4R24535   6.968   6.455   2.561  1.7285  0.3824 -1.9689
  198DOPC   H4S24536   6.805   6.481   2.477 -1.8153  2.7434 -0.4183
  198DOPC   C2524537   6.908   6.666   2.552 -0.2277 -0.0636 -0.5839
  198DOPC   H5R24538   6.852   6.733   2.484 -0.8425 -0.7455 -0.7644
  198DOPC   H5S24539   7.011   6.706   2.563 -0.0753 -1.0169  2.4843
  198DOPC   C2624540   6.829   6.662   2.689 -0.5971 -0.9519 -0.1488
  198DOPC   H6R24541   6.891   6.613   2.767 -0.5212  0.9993  1.0899
  198DOPC   H6S24542   6.727   6.622   2.671 -0.6098 -0.8564 -0.2900
  198DOPC   C2724543   6.799   6.798   2.725  0.0954  0.3757  0.5114
  198DOPC   H7R24544   6.730   6.793   2.812 -2.3508 -1.1441 -1.3978
  198DOPC   H7S24545   6.746   6.843   2.638  0.2992 -0.4358 -0.0427
  198DOPC   C2824546   6.926   6.878   2.768 -0.0754  0.4409  0.0910
  198DOPC   H8R24547   7.003   6.878   2.688 -1.0144 -2.4143 -0.9495
  198DOPC   H8S24548   6.979   6.827   2.852  0.7971  2.8247  1.0588
  198DOPC   C2924549   6.895   7.021   2.794 -0.1073 -0.4544 -0.7540
  198DOPC   H9R24550   6.878   7.089   2.709  1.1526  0.9876  0.1086
  198DOPC  C21024551   6.880   7.060   2.920 -0.0470 -0.1662 -0.1752
  198DOPC  H10R24552   6.861   7.167   2.935  1.6871  0.3750 -1.3962
  198DOPC  C21124553   6.897   6.978   3.050 -0.2084  0.4438  0.1450
  198DOPC  H11R24554   6.973   6.897   3.047 -1.7368 -1.2469  3.0672
  198DOPC  H11S24555   6.799   6.931   3.070  0.1254 -0.3503 -0.0402
  198DOPC  C21224556   6.932   7.071   3.168  0.5411  0.3779 -0.5059
  198DOPC  H12R24557   7.019   7.136   3.142 -1.7402  2.6945 -3.1269
  198DOPC  H12S24558   6.975   6.997   3.238  0.8422  1.5037  0.5233
  198DOPC  C21324559   6.821   7.155   3.233 -0.1914  0.6432  0.8641
  198DOPC  H13R24560   6.743   7.094   3.284 -0.8066  0.9765  0.3394
  198DOPC  H13S24561   6.784   7.213   3.145  3.6457 -0.2910 -1.5730
  198DOPC  C21424562   6.886   7.248   3.338 -0.7166 -0.1020  0.3409
  198DOPC  H14R24563   6.916   7.341   3.286 -2.6448  0.6397  0.4844
  198DOPC  H14S24564   6.985   7.210   3.373 -0.6879 -0.9489 -0.6118
  198DOPC  C21524565   6.787   7.278   3.449 -0.2348  0.4110  0.2026
  198DOPC  H15R24566   6.753   7.181   3.489 -0.5019  0.5712  0.3712
  198DOPC  H15S24567   6.699   7.328   3.402 -0.2997 -0.6061 -0.8029
  198DOPC  C21624568   6.840   7.372   3.556  0.1832  0.5134 -0.8676
  198DOPC  H16R24569   6.838   7.475   3.514 -0.7751  0.8329 -0.0536
  198DOPC  H16S24570   6.946   7.341   3.569 -0.0998 -0.1850 -0.1275
  198DOPC  C21724571   6.762   7.369   3.695 -0.0833 -0.2470 -0.2268
  198DOPC  H17R24572   6.763   7.273   3.752 -2.1940 -0.3551 -0.2903
  198DOPC  H17S24573   6.659   7.405   3.673  0.1200 -1.0378 -2.7579
  198DOPC  C21824574   6.829   7.476   3.784 -0.3633  0.3296 -0.1654
  198DOPC  H18R24575   6.805   7.574   3.738 -3.6509 -1.9696 -3.9637
  198DOPC  H18S24576   6.938   7.465   3.803 -0.4185  1.7716  1.2080
  198DOPC  H18T24577   6.787   7.468   3.887  0.8869  0.8915  0.4101
  198DOPC   C3324578   6.450   6.460   2.502  0.2265  0.4365  0.6885
  198DOPC   H3X24579   6.559   6.446   2.522  0.8831 -0.1801 -2.6653
  198DOPC   H3Y24580   6.400   6.363   2.523  0.9576 -0.7730 -2.5526
  198DOPC   C3424581   6.383   6.573   2.584 -0.3799 -0.6671  0.1224
  198DOPC   H4X24582   6.300   6.611   2.520 -0.4711 -1.3615 -0.1802
  198DOPC   H4Y24583   6.454   6.656   2.606 -3.4378  2.4338 -0.7774
  198DOPC   C3524584   6.319   6.528   2.713 -0.4193 -0.0050 -0.7837
  198DOPC   H5X24585   6.227   6.472   2.684  0.1281 -0.6188 -1.3394
  198DOPC   H5Y24586   6.285   6.616   2.773 -0.5255 -0.1870 -0.5745
  198DOPC   C3624587   6.404   6.438   2.805 -0.0890 -0.1419 -0.0773
  198DOPC   H6X24588   6.337   6.417   2.892  0.0789  2.2296  0.7084
  198DOPC   H6Y24589   6.422   6.353   2.737  0.5777  0.3038 -0.4707
  198DOPC   C3724590   6.538   6.488   2.846  0.2360  0.1536 -0.0812
  198DOPC   H7X24591   6.608   6.488   2.760  2.2567 -0.9694  1.4764
  198DOPC   H7Y24592   6.535   6.594   2.878 -2.1515 -0.4087  1.8860
  198DOPC   C3824593   6.605   6.408   2.959  0.4013  0.1855  0.4506
  198DOPC   H8X24594   6.626   6.309   2.915  1.0561  0.0879  0.9669
  198DOPC   H8Y24595   6.521   6.387   3.028  0.3732  0.5444  0.5286
  198DOPC   C3924596   6.725   6.469   3.016  0.6000 -0.5245  1.0135
  198DOPC   H9X24597   6.811   6.472   2.948  1.1056 -1.8531  1.5667
  198DOPC  C31024598   6.730   6.534   3.137 -0.4877  0.0443  0.6132
  198DOPC  H10X24599   6.830   6.571   3.165 -0.2139 -1.3761  1.6260
  198DOPC  C31124600   6.615   6.558   3.236 -0.0772  0.2437  0.4610
  198DOPC  H11X24601   6.524   6.505   3.199  1.0863 -0.9148 -0.8420
  198DOPC  H11Y24602   6.600   6.667   3.251  1.2231  0.3839  0.8943
  198DOPC  C31224603   6.644   6.495   3.376 -0.2217  0.1064  0.3612
  198DOPC  H12X24604   6.729   6.551   3.422 -0.0039  2.1035 -2.2385
  198DOPC  H12Y24605   6.676   6.392   3.353  0.4740  0.1045  1.2705
  198DOPC  C31324606   6.527   6.479   3.474 -0.0061  0.4039 -0.0405
  198DOPC  H13X24607   6.453   6.409   3.431 -0.1462 -0.1619  1.0836
  198DOPC  H13Y24608   6.564   6.415   3.557 -2.5782 -1.5810 -0.3134
  198DOPC  C31424609   6.460   6.609   3.523 -0.0730 -0.0233  0.2720
  198DOPC  H14X24610   6.417   6.671   3.442 -0.2583  1.8253  1.6964
  198DOPC  H14Y24611   6.380   6.579   3.594 -0.8260  0.5866 -0.2983
  198DOPC  C31524612   6.549   6.706   3.601  0.1150  0.6744  0.0980
  198DOPC  H15X24613   6.630   6.725   3.528 -0.2255  0.4206 -0.3539
  198DOPC  H15Y24614   6.590   6.665   3.696  1.9585  1.4069 -0.3574
  198DOPC  C31624615   6.472   6.828   3.647  0.1729 -0.2084  0.0539
  198DOPC  H16X24616   6.417   6.879   3.565 -1.2539  0.1018  1.1523
  198DOPC  H16Y24617   6.378   6.807   3.702  0.0227  1.8420  0.6377
  198DOPC  C31724618   6.560   6.937   3.700 -0.4839 -0.1262  0.1683
  198DOPC  H17X24619   6.644   6.897   3.760 -0.5265  1.9909  1.7840
  198DOPC  H17Y24620   6.600   7.002   3.619 -3.3201  2.5900  0.7491
  198DOPC  C31824621   6.495   7.024   3.798  0.0418 -0.0480 -0.7357
  198DOPC  H18X24622   6.408   7.073   3.750 -0.0148  0.5451 -0.0441
  198DOPC  H18Y24623   6.462   6.968   3.888 -1.5508  1.3839 -0.3753
  198DOPC  H18Z24624   6.565   7.100   3.838 -0.1812  0.8144 -1.9613
  199DOPC     N24625   6.635   7.577   1.636 -0.7268 -0.2260 -0.1261
  199DOPC   C1224626   6.655   7.654   1.764  0.0861  0.1404  0.9389
  199DOPC  H12A24627   6.706   7.743   1.729 -0.4447 -1.1046 -3.6099
  199DOPC  H12B24628   6.722   7.595   1.824 -0.5138 -1.9001 -0.2848
  199DOPC   C1324629   6.538   7.649   1.541 -0.4165 -0.0563 -0.1687
  199DOPC  H13A24630   6.526   7.583   1.456  0.9323  1.0673 -1.2835
  199DOPC  H13B24631   6.441   7.666   1.585 -0.7318 -1.6728 -0.1844
  199DOPC  H13C24632   6.573   7.747   1.513  2.7515 -0.5477  1.5876
  199DOPC   C1424633   6.591   7.440   1.659  0.1451 -0.6894  0.4280
  199DOPC  H14A24634   6.569   7.404   1.560 -0.7833  1.0111 -0.0306
  199DOPC  H14B24635   6.664   7.374   1.703  0.8082 -0.5942 -0.5101
  199DOPC  H14C24636   6.511   7.444   1.732  0.0292  3.2392  0.2617
  199DOPC   C1524637   6.772   7.550   1.565  0.7154  0.2314 -0.2605
  199DOPC  H15A24638   6.809   7.650   1.542 -0.3192  0.6229 -0.2637
  199DOPC  H15B24639   6.764   7.493   1.474 -0.2977 -1.0082  0.5767
  199DOPC  H15C24640   6.830   7.494   1.636  1.7089  0.0875 -1.1592
  199DOPC   C1124641   6.532   7.688   1.853 -0.0285 -0.5033 -0.5366
  199DOPC  H11A24642   6.483   7.600   1.899 -2.1810  0.7401 -0.3115
  199DOPC  H11B24643   6.578   7.744   1.938  1.1442 -0.1762 -1.3477
  199DOPC     P24644   6.358   7.882   1.833  0.2761 -0.8196  0.0792
  199DOPC   O1324645   6.219   7.872   1.788  0.3197  0.0428 -0.3664
  199DOPC   O1424646   6.426   8.006   1.786  0.0616  0.1540 -0.2971
  199DOPC   O1224647   6.435   7.760   1.780 -0.9125  0.9151 -0.2606
  199DOPC   O1124648   6.371   7.885   1.990  0.0532  0.4781 -0.2380
  199DOPC    C124649   6.262   7.843   2.077 -0.7095 -0.3369 -0.5477
  199DOPC    HA24650   6.248   7.733   2.076 -0.2601 -0.4063  0.1792
  199DOPC    HB24651   6.165   7.886   2.043 -0.8892 -1.2616 -1.2423
  199DOPC    C224652   6.286   7.888   2.224 -0.1761  0.2346  0.1540
  199DOPC    HS24653   6.281   7.998   2.210 -1.1467  0.0030 -1.6463
  199DOPC   O2124654   6.405   7.832   2.285  0.0139 -0.3400 -0.4660
  199DOPC   C2124655   6.442   7.907   2.389 -0.2219  0.1094  0.1956
  199DOPC   O2224656   6.405   8.021   2.413  0.7100 -0.3442  0.2105
  199DOPC   C2224657   6.541   7.824   2.472  0.0616  0.5320 -0.1957
  199DOPC   H2R24658   6.634   7.806   2.414 -0.2249  1.2422 -0.8898
  199DOPC   H2S24659   6.504   7.719   2.480  1.3712  0.0424 -0.3451
  199DOPC    C324660   6.154   7.840   2.305 -0.0190  0.2285 -0.2832
  199DOPC    HX24661   6.160   7.729   2.296  2.5419  0.4681 -2.9620
  199DOPC    HY24662   6.067   7.878   2.248 -1.3502  0.7276  1.9715
  199DOPC   O3124663   6.151   7.893   2.444  0.2361 -0.6340  0.2266
  199DOPC   C3124664   6.073   7.834   2.531  0.0263  0.3295  0.7668
  199DOPC   O3224665   6.028   7.722   2.506  0.1479 -0.8715 -0.2515
  199DOPC   C3224666   6.028   7.929   2.637 -0.4777  0.6477 -0.7250
  199DOPC   H2X24667   6.105   7.932   2.717 -3.2060  0.8960  2.0798
  199DOPC   H2Y24668   6.022   8.031   2.592  2.1064  0.9633 -0.4902
  199DOPC   C2324669   6.562   7.882   2.610  0.0575  0.7744 -0.8465
  199DOPC   H3R24670   6.593   7.989   2.605  1.5005  0.3703 -0.9410
  199DOPC   H3S24671   6.644   7.829   2.663 -1.9483  0.0269  1.6886
  199DOPC   C2424672   6.440   7.872   2.704  0.1119 -0.1365 -0.2729
  199DOPC   H4R24673   6.395   7.771   2.708 -2.6493  1.0276  1.1396
  199DOPC   H4S24674   6.365   7.943   2.661  1.4582  1.0937 -0.6837
  199DOPC   C2524675   6.466   7.913   2.850 -0.3542 -0.3032  0.5456
  199DOPC   H5R24676   6.512   7.824   2.899  1.4834 -0.1392 -0.7955
  199DOPC   H5S24677   6.363   7.928   2.890 -0.6926  0.7815 -0.6690
  199DOPC   C2624678   6.551   8.036   2.884  0.2854  0.4329 -0.0329
  199DOPC   H6R24679   6.523   8.122   2.820 -1.5593 -0.5768 -0.6450
  199DOPC   H6S24680   6.650   7.994   2.854 -0.9707 -2.1324 -0.9055
  199DOPC   C2724681   6.551   8.068   3.036  0.4504  0.3308  0.7348
  199DOPC   H7R24682   6.446   8.086   3.068 -0.0272 -0.5632 -0.2365
  199DOPC   H7S24683   6.609   8.162   3.050  1.6432 -0.1428 -0.7402
  199DOPC   C2824684   6.605   7.963   3.126 -0.5257 -0.2583  0.7349
  199DOPC   H8R24685   6.699   7.927   3.080  1.2430  0.5818  3.4262
  199DOPC   H8S24686   6.539   7.875   3.142 -0.0993 -0.9802 -1.2318
  199DOPC   C2924687   6.653   8.015   3.260  0.4015  0.5610 -0.5357
  199DOPC   H9R24688   6.707   8.111   3.250 -0.2278  0.6767 -3.6222
  199DOPC  C21024689   6.658   7.947   3.377 -0.0006  0.1349 -0.0932
  199DOPC  H10R24690   6.727   7.978   3.457  0.2588 -1.0942  0.1858
  199DOPC  C21124691   6.587   7.815   3.413  0.1041 -0.2063  0.6412
  199DOPC  H11R24692   6.662   7.738   3.439  1.2923  1.4429  2.4009
  199DOPC  H11S24693   6.522   7.783   3.330 -0.4475 -1.0001  1.3666
  199DOPC  C21224694   6.489   7.831   3.535  0.0898 -0.6496 -0.1827
  199DOPC  H12R24695   6.437   7.928   3.526  0.9615 -0.1155  0.3850
  199DOPC  H12S24696   6.536   7.848   3.634 -1.0815  0.0580  0.2662
  199DOPC  C21324697   6.385   7.717   3.530 -0.1542 -0.4346  0.0452
  199DOPC  H13R24698   6.433   7.634   3.474  2.5595  0.8346  0.3276
  199DOPC  H13S24699   6.292   7.751   3.481 -0.3677 -2.4341 -1.0509
  199DOPC  C21424700   6.367   7.660   3.676  0.5416 -0.2169 -0.2020
  199DOPC  H14R24701   6.463   7.630   3.723  0.3456  0.1711  0.4574
  199DOPC  H14S24702   6.304   7.570   3.654 -0.5158  0.6237 -0.6924
  199DOPC  C21524703   6.293   7.762   3.775 -0.0878  0.4043  0.6746
  199DOPC  H15R24704   6.200   7.799   3.729 -0.0500  0.6891  0.8258
  199DOPC  H15S24705   6.353   7.850   3.805  0.0962  1.7050 -3.0185
  199DOPC  C21624706   6.246   7.686   3.907  0.0081 -0.1007  0.4482
  199DOPC  H16R24707   6.329   7.621   3.941 -0.7946 -1.6104 -0.3744
  199DOPC  H16S24708   6.164   7.617   3.878 -1.5649  2.1799 -0.8332
  199DOPC  C21724709   6.197   7.770   4.023 -0.1173  0.1919  0.3487
  199DOPC  H17R24710   6.123   7.840   3.980  1.4551  0.9647 -1.2078
  199DOPC  H17S24711   6.287   7.826   4.056  0.1706 -0.8665  1.4843
  199DOPC  C21824712   6.144   7.700   4.145  0.2691  0.3126  0.0769
  199DOPC  H18R24713   6.045   7.658   4.118  0.4203 -0.8385  1.2002
  199DOPC  H18S24714   6.132   7.777   4.224  2.6732  0.2021  0.6308
  199DOPC  H18T24715   6.203   7.613   4.181  1.8654  0.5865 -1.7693
  199DOPC   C3324716   5.895   7.883   2.712 -0.0298 -0.0044 -0.0199
  199DOPC   H3X24717   5.905   7.773   2.723 -1.9548 -0.1774  0.3621
  199DOPC   H3Y24718   5.798   7.903   2.662 -1.0055  1.4704  2.2488
  199DOPC   C3424719   5.882   7.941   2.849 -0.8536 -0.0347  0.1694
  199DOPC   H4X24720   5.887   8.052   2.849  0.2435 -0.0574 -1.0183
  199DOPC   H4Y24721   5.965   7.901   2.912  0.4097  0.0465 -1.3757
  199DOPC   C3524722   5.753   7.896   2.920  0.1005  0.3511  0.2316
  199DOPC   H5X24723   5.752   7.785   2.922 -0.6272  0.2941 -1.6146
  199DOPC   H5Y24724   5.665   7.933   2.862  0.4840  1.1687  0.1534
  199DOPC   C3624725   5.752   7.955   3.060  0.2793  0.8247 -0.1259
  199DOPC   H6X24726   5.843   7.922   3.113  0.0812  0.4914  0.0059
  199DOPC   H6Y24727   5.779   8.063   3.057  1.3954  0.6394  1.8593
  199DOPC   C3724728   5.639   7.941   3.156 -0.1130 -0.1205  0.1040
  199DOPC   H7X24729   5.539   7.985   3.136 -0.5950 -1.2331  0.0306
  199DOPC   H7Y24730   5.632   7.831   3.165 -3.2032 -0.0938 -1.0637
  199DOPC   C3824731   5.678   7.993   3.289 -1.2619 -1.2188 -0.0173
  199DOPC   H8X24732   5.696   8.102   3.299 -0.8875 -1.2155 -0.6840
  199DOPC   H8Y24733   5.782   7.959   3.310 -0.9652 -1.1242 -1.2741
  199DOPC   C3924734   5.588   7.941   3.402  0.1764  1.0789  0.4252
  199DOPC   H9X24735   5.564   7.834   3.409 -0.0718  1.1298  0.3595
  199DOPC  C31024736   5.530   8.020   3.491 -0.5720 -0.2100 -0.1647
  199DOPC  H10X24737   5.480   7.973   3.577  0.1787  0.7909  0.8365
  199DOPC  C31124738   5.531   8.172   3.496  0.0546 -1.0948 -0.3993
  199DOPC  H11X24739   5.626   8.215   3.458  0.0392 -1.1039 -0.4471
  199DOPC  H11Y24740   5.506   8.214   3.596  1.9563 -1.0991  0.1243
  199DOPC  C31224741   5.423   8.235   3.400  0.6230  0.3715  0.7675
  199DOPC  H12X24742   5.427   8.181   3.303  1.2942  2.8750 -0.6798
  199DOPC  H12Y24743   5.448   8.338   3.368 -2.3703  1.0737  0.4876
  199DOPC  C31324744   5.278   8.244   3.462  0.5459  0.0001 -0.1993
  199DOPC  H13X24745   5.214   8.286   3.382  2.1003  1.1638 -0.8936
  199DOPC  H13Y24746   5.254   8.140   3.494  5.1137 -0.7076  1.6844
  199DOPC  C31424747   5.260   8.326   3.590  0.7713  0.9653 -0.6651
  199DOPC  H14X24748   5.317   8.271   3.669 -0.4095  1.9474  0.9404
  199DOPC  H14Y24749   5.321   8.417   3.576  1.5176  0.4054 -1.1047
  199DOPC  C31524750   5.119   8.339   3.642 -0.6512 -0.1807  0.3029
  199DOPC  H15X24751   5.078   8.237   3.661  1.7351 -1.1567  0.5793
  199DOPC  H15Y24752   5.056   8.384   3.562  1.6769  1.0860 -0.9111
  199DOPC  C31624753   5.114   8.418   3.769  0.3070  0.5067  0.5856
  199DOPC  H16X24754   5.184   8.371   3.841 -0.5565 -0.9111  0.5402
  199DOPC  H16Y24755   5.131   8.524   3.743 -0.2666 -0.1182 -2.7580
  199DOPC  C31724756   4.986   8.406   3.844  0.5758 -0.4631  0.4466
  199DOPC  H17X24757   4.976   8.490   3.917  1.0293 -0.9056  1.0238
  199DOPC  H17Y24758   4.895   8.408   3.779  1.5640  0.3769 -0.9814
  199DOPC  C31824759   4.978   8.279   3.931 -0.1645 -0.4120  0.3670
  199DOPC  H18X24760   5.052   8.280   4.014 -1.2146 -3.4428  1.4910
  199DOPC  H18Y24761   4.870   8.269   3.956 -0.7722 -1.1712 -2.3056
  199DOPC  H18Z24762   5.014   8.189   3.877  1.6154  0.1323  0.5755
  200DOPC     N24763   0.333   0.716   2.402  0.0095 -0.1307  0.2294
  200DOPC   C1224764   0.364   0.577   2.348  0.4563  0.2549 -0.1063
  200DOPC  H12A24765   0.346   0.573   2.241 -0.2814  0.3225  0.0065
  200DOPC  H12B24766   0.289   0.512   2.391  0.1056  1.0545  0.5241
  200DOPC   C1324767   0.401   0.817   2.323  0.1093  0.3729 -0.5448
  200DOPC  H13A24768   0.365   0.810   2.222 -0.0622  1.5809 -0.5917
  200DOPC  H13B24769   0.396   0.915   2.370  1.4648  0.9713 -1.5765
  200DOPC  H13C24770   0.506   0.790   2.322  0.4004  1.4375 -0.4222
  200DOPC   C1424771   0.366   0.711   2.550 -0.8116  0.4539  0.0349
  200DOPC  H14A24772   0.306   0.640   2.605 -0.0382 -0.5801 -0.4332
  200DOPC  H14B24773   0.468   0.686   2.573 -0.4764  1.7545  0.0455
  200DOPC  H14C24774   0.358   0.815   2.579  0.0121  0.5166  0.0500
  200DOPC   C1524775   0.183   0.723   2.387 -0.1581  0.3604  0.1763
  200DOPC  H15A24776   0.154   0.718   2.283 -0.7487 -0.8962  0.3839
  200DOPC  H15B24777   0.148   0.813   2.435  0.2859  0.7127 -0.1452
  200DOPC  H15C24778   0.141   0.640   2.441  2.8506 -0.9624  0.6561
  200DOPC   C1124779   0.503   0.517   2.386  0.1702 -0.1077 -0.0978
  200DOPC  H11A24780   0.526   0.436   2.315 -1.1580 -1.3946  0.8763
  200DOPC  H11B24781   0.587   0.590   2.383 -0.9809  1.2250 -1.2140
  200DOPC     P24782   0.611   0.364   2.566 -0.1890 -0.0658  0.0245
  200DOPC   O1324783   0.741   0.438   2.556 -0.1248 -0.7743  0.3445
  200DOPC   O1424784   0.599   0.245   2.489 -0.8240 -0.0206  0.7246
  200DOPC   O1224785   0.497   0.461   2.516  0.0955 -0.3176 -0.5376
  200DOPC   O1124786   0.572   0.331   2.714 -0.8289  0.0472 -0.4018
  200DOPC    C124787   0.587   0.424   2.822  0.3158  0.1935 -0.2834
  200DOPC    HA24788   0.485   0.465   2.842  0.2834 -0.4335  0.9273
  200DOPC    HB24789   0.659   0.505   2.800  1.5056 -1.3378 -2.3851
  200DOPC    C224790   0.621   0.366   2.961 -0.3769  0.1522 -0.4082
  200DOPC    HS24791   0.716   0.310   2.949 -0.2273 -0.2123  1.9131
  200DOPC   O2124792   0.510   0.287   3.010  0.0577 -0.4236 -0.0546
  200DOPC   C2124793   0.520   0.162   2.998 -0.7695 -0.4327 -0.3958
  200DOPC   O2224794   0.619   0.101   2.956  0.2492 -0.4498 -0.1730
  200DOPC   C2224795   0.396   0.092   3.045 -0.0765 -0.1422  0.3354
  200DOPC   H2R24796   0.359   0.029   2.962  2.4103  0.2556 -1.1484
  200DOPC   H2S24797   0.313   0.163   3.068  0.3729  0.5141 -0.0278
  200DOPC    C324798   0.652   0.484   3.067  0.0274 -0.1809 -0.0313
  200DOPC    HX24799   0.554   0.525   3.100  2.2327  4.0460  2.1316
  200DOPC    HY24800   0.707   0.564   3.012 -0.8412 -0.4741 -1.3908
  200DOPC   O3124801   0.720   0.436   3.181 -0.0627 -0.6593  0.2964
  200DOPC   C3124802   0.778   0.533   3.266  0.2191 -0.4613 -0.1184
  200DOPC   O3224803   0.761   0.654   3.258  0.1757  0.5031  0.0940
  200DOPC   C3224804   0.838   0.467   3.390 -0.5289 -0.3677 -0.2815
  200DOPC   H2X24805   0.778   0.379   3.420  0.5232 -0.4714  1.6874
  200DOPC   H2Y24806   0.935   0.426   3.353 -0.8153  0.6988 -2.4088
  200DOPC   C2324807   0.434   0.002   3.160 -0.4212 -0.2048 -1.0013
  200DOPC   H3R24808   0.522  -0.056   3.124  1.3710  0.6304  1.6792
  200DOPC   H3S24809   0.354  -0.072   3.182 -0.3091 -0.2141 -0.6248
  200DOPC   C2424810   0.472   0.080   3.287 -0.4435  0.4211 -0.0879
  200DOPC   H4R24811   0.390   0.151   3.310 -0.8325  0.6130 -1.9348
  200DOPC   H4S24812   0.564   0.138   3.264  0.0810 -0.3736 -0.0393
  200DOPC   C2524813   0.496  -0.010   3.408 -0.1803 -0.4273 -0.2849
  200DOPC   H5R24814   0.568  -0.085   3.367  0.3553 -0.7919  1.2816
  200DOPC   H5S24815   0.401  -0.059   3.437 -1.7342  1.3778 -2.0436
  200DOPC   C2624816   0.566   0.062   3.524  0.8386  0.1002 -0.1272
  200DOPC   H6R24817   0.632   0.140   3.482 -1.7223  2.6635  0.2270
  200DOPC   H6S24818   0.629  -0.010   3.580 -1.4299 -2.1423 -0.2686
  200DOPC   C2724819   0.479   0.143   3.622 -0.2148 -0.4072  0.3233
  200DOPC   H7R24820   0.401   0.084   3.675  1.8853 -0.7216  3.3133
  200DOPC   H7S24821   0.427   0.222   3.563  0.2153 -0.0672  0.3930
  200DOPC   C2824822   0.561   0.227   3.719  0.0342 -0.4368  0.6523
  200DOPC   H8R24823   0.503   0.311   3.761  0.2285 -0.8374  1.7355
  200DOPC   H8S24824   0.633   0.275   3.650 -0.2458 -1.4968 -0.4180
  200DOPC   C2924825   0.626   0.141   3.821 -0.3191 -0.2569 -0.1318
  200DOPC   H9R24826   0.642   0.040   3.782  0.7765 -0.2727  0.3131
  200DOPC  C21024827   0.658   0.175   3.945  0.4667  0.0518  0.4390
  200DOPC  H10R24828   0.694   0.097   4.014  0.9983  0.0551  0.1698
  200DOPC  C21124829   0.633   0.310   4.006  0.4094  0.2250  0.8615
  200DOPC  H11R24830   0.566   0.371   3.941  0.6666 -1.1377 -0.7633
  200DOPC  H11S24831   0.728   0.368   4.015  0.2976  0.3039  1.5614
  200DOPC  C21224832   0.580   0.296   4.149  0.5878  0.2938 -0.0749
  200DOPC  H12R24833   0.650   0.241   4.214  0.8714  0.5080 -0.1961
  200DOPC  H12S24834   0.478   0.253   4.148  0.5677  0.3080  0.8008
  200DOPC  C21324835   0.558   0.437   4.215  0.4029  0.0160  0.1794
  200DOPC  H13R24836   0.660   0.481   4.217  0.5542 -0.1892  3.3880
  200DOPC  H13S24837   0.541   0.427   4.325  0.6578 -0.0357  0.2149
  200DOPC  C21424838   0.456   0.532   4.153  0.2782  0.3967  0.0524
  200DOPC  H14R24839   0.353   0.491   4.151  0.2552  0.4695 -0.7094
  200DOPC  H14S24840   0.490   0.554   4.049  0.1317 -0.7910 -0.2567
  200DOPC  C21524841   0.451   0.673   4.220 -0.0480  0.0707  0.4337
  200DOPC  H15R24842   0.557   0.703   4.232 -0.2668 -0.0461  3.6967
  200DOPC  H15S24843   0.411   0.671   4.324  1.9679 -2.9162  1.2870
  200DOPC  C21624844   0.387   0.782   4.131  0.7859 -0.5525 -0.0216
  200DOPC  H16R24845   0.308   0.731   4.070  1.0672  0.3234 -1.1503
  200DOPC  H16S24846   0.465   0.823   4.064  2.8407 -0.6362  2.1926
  200DOPC  C21724847   0.333   0.899   4.212  0.6264 -0.4669  0.8239
  200DOPC  H17R24848   0.414   0.960   4.258  1.4456  0.7252 -1.9674
  200DOPC  H17S24849   0.269   0.860   4.294 -0.4511 -0.0101  0.2305
  200DOPC  C21824850   0.245   0.993   4.123  0.2463  0.1779  0.1963
  200DOPC  H18R24851   0.213   1.092   4.161 -0.0820  1.3388 -2.7879
  200DOPC  H18S24852   0.155   0.930   4.104  0.8746 -0.2598 -1.5486
  200DOPC  H18T24853   0.296   1.018   4.028 -0.5666  0.7011 -0.1173
  200DOPC   C3324854   0.848   0.550   3.519 -0.4051 -0.4921  0.0416
  200DOPC   H3X24855   0.746   0.587   3.541  0.2482  1.7860 -0.5924
  200DOPC   H3Y24856   0.915   0.638   3.516  1.7771 -2.0462  0.4594
  200DOPC   C3424857   0.903   0.462   3.631 -0.5291 -0.1145 -0.1538
  200DOPC   H4X24858   0.994   0.408   3.595 -0.7303  0.4109 -1.5336
  200DOPC   H4Y24859   0.828   0.382   3.646 -2.5068  1.8225  0.7381
  200DOPC   C3524860   0.932   0.525   3.767 -0.1631 -0.3469 -0.1818
  200DOPC   H5X24861   1.017   0.596   3.754 -1.1707  1.7106  3.1228
  200DOPC   H5Y24862   0.961   0.444   3.838 -1.8610 -0.0469  0.9298
  200DOPC   C3624863   0.813   0.594   3.827 -0.1549 -0.0264  0.4874
  200DOPC   H6X24864   0.791   0.693   3.782 -0.8049 -0.1701  0.4744
  200DOPC   H6Y24865   0.730   0.526   3.798  0.0077  0.1391 -0.3918
  200DOPC   C3724866   0.819   0.614   3.980 -0.2515  0.3549 -0.2049
  200DOPC   H7X24867   0.719   0.637   4.022  0.5098  3.3523  0.2005
  200DOPC   H7Y24868   0.847   0.514   4.020  2.1618  1.1914  0.3407
  200DOPC   C3824869   0.913   0.721   4.038 -0.3320 -0.0133  0.2102
  200DOPC   H8X24870   0.875   0.820   4.004 -0.2866  0.5131  1.6130
  200DOPC   H8Y24871   1.013   0.705   3.993 -0.3598 -0.9408  0.4655
  200DOPC   C3924872   0.919   0.716   4.188  0.3314 -0.4211 -0.1635
  200DOPC   H9X24873   0.977   0.635   4.236 -0.2390 -0.8142 -0.1276
  200DOPC  C31024874   0.867   0.815   4.270 -0.2671  0.3276  0.1157
  200DOPC  H10X24875   0.879   0.805   4.379  1.2550  0.3006 -0.0332
  200DOPC  C31124876   0.771   0.933   4.243 -0.0760  0.0595  0.0089
  200DOPC  H11X24877   0.694   0.924   4.164 -1.3814 -1.8374  1.4331
  200DOPC  H11Y24878   0.836   1.020   4.217  0.8421 -0.7981 -0.6193
  200DOPC  C31224879   0.684   0.963   4.372 -1.3526  0.1506 -0.2885
  200DOPC  H12X24880   0.666   0.860   4.410  0.5793 -0.4651 -0.9543
  200DOPC  H12Y24881   0.585   1.001   4.338 -0.7088  1.7115 -0.4836
  200DOPC  C31324882   0.761   1.049   4.469  0.7458 -0.1463 -0.3849
  200DOPC  H13X24883   0.857   0.995   4.482  0.3826 -1.1012 -1.4487
  200DOPC  H13Y24884   0.773   1.155   4.439 -2.2190  0.2215 -0.6164
  200DOPC  C31424885   0.700   1.039   4.607  0.6669 -0.1282 -0.5366
  200DOPC  H14X24886   0.676   0.936   4.640  0.7194 -0.3914 -1.2979
  200DOPC  H14Y24887   0.773   1.064   4.688 -0.6998 -0.0706  0.7250
  200DOPC  C31524888   0.572   1.123   4.619  0.3973 -0.0202  0.3272
  200DOPC  H15X24889   0.513   1.082   4.534  0.8685 -1.8403  0.8330
  200DOPC  H15Y24890   0.581   1.233   4.601 -4.3854  0.5091 -0.0043
  200DOPC  C31624891   0.500   1.108   4.755 -0.2916 -0.3154 -0.2546
  200DOPC  H16X24892   0.487   0.999   4.770  2.1121 -0.4099  1.5917
  200DOPC  H16Y24893   0.571   1.150   4.829  2.9268 -3.9524 -0.9735
  200DOPC  C31724894   0.358   1.176   4.765 -0.4112  0.5737 -0.3155
  200DOPC  H17X24895   0.303   1.127   4.681 -1.2644 -0.4187  0.7789
  200DOPC  H17Y24896   0.312   1.152   4.863 -1.1290 -0.8004 -0.9591
  200DOPC  C31824897   0.355   1.329   4.754 -0.1685  0.5860  0.0293
  200DOPC  H18X24898   0.406   1.355   4.659  2.0664 -0.0289  0.9916
  200DOPC  H18Y24899   0.252   1.369   4.772 -0.1834  0.8801 -0.6926
  200DOPC  H18Z24900   0.417   1.367   4.838 -2.5865  1.1377  1.6994
  201SOD    SOD24901   2.524   6.978   3.114  0.3908  0.5274  0.4803
  202SOD    SOD24902   6.064   0.885   2.045  0.0042  0.6676 -0.3727
  203SOD    SOD24903   1.111   0.034   1.872  1.0049  0.5784 -0.7683
  204SOD    SOD24904   2.787   2.392   7.950 -0.1998  0.0207 -0.6105
  205SOD    SOD24905   2.732   2.897   0.743  0.2465  0.4239 -0.2593
  206SOD    SOD24906   2.093   1.499   0.025 -0.2170 -0.2223 -0.1307
  207SOD    SOD24907   6.406   1.544   8.272  0.3426  0.1025  0.4617
  208SOD    SOD24908   0.531   5.300   0.029  0.3077 -0.1131 -0.5837
  209SOD    SOD24909   1.946   4.800   9.658 -0.0364  0.0973  0.2829
  210SOD    SOD24910   6.734   3.598   9.315  0.3573  0.2827 -0.2940
  211SOD    SOD24911   5.465   0.948   9.639  0.2305 -0.1951 -0.0275
  212SOD    SOD24912   7.363   6.572   8.382 -0.4193 -0.0310 -0.0069
  213SOD    SOD24913   4.177   6.224   9.554 -0.2112 -0.1857 -0.5408
  214SOD    SOD24914   4.527   6.053   0.641  0.4959  0.2846 -0.2815
  215SOD    SOD24915   2.420   0.757   2.826 -0.0025  0.3493 -0.1756
  216SOD    SOD24916   2.458   2.862   8.947  0.1818 -0.3755  0.2394
  217SOD    SOD24917   4.759   0.670   7.318  0.5582  0.1454 -0.2804
  218SOD    SOD24918   3.172   2.438   7.452  0.1287 -0.1618  0.5811
  219SOD    SOD24919   4.114   3.016   9.949 -0.0965  0.3439  0.3330
  220SOD    SOD24920   1.245   1.967   9.072 -0.3486  0.1366  0.3776
  221SOD    SOD24921   4.034   6.130   7.528  0.1918 -0.2278  0.4065
  222SOD    SOD24922   2.458   6.573   6.917  0.0454 -0.1840  0.2485
  223SOD    SOD24923   4.582   7.618   7.805 -0.2042 -0.0304 -0.2544
  224SOD    SOD24924   4.288   2.870   9.033  0.0853 -0.6550  0.3644
  225SOD    SOD24925   7.277   3.116   0.058 -0.0445 -0.0581  0.3337
  226SOD    SOD24926   5.267   2.383   9.741  0.6402 -0.1771 -0.3347
  227CLA    CLA24927   1.311   2.137   9.564 -0.3306  0.0953  0.0129
  228CLA    CLA24928   7.153   2.859   1.278 -0.2984 -0.0126 -0.0865
  229CLA    CLA24929   5.694   5.323   7.556  0.0651  0.0568  0.1094
  230CLA    CLA24930   4.274   4.646   9.211 -0.0976 -0.0309  0.1227
  231CLA    CLA24931   3.511   3.181   9.618 -0.4654 -0.6316 -0.2786
  232CLA    CLA24932   6.582   5.293   9.706 -0.3368  0.0330  0.0849
  233CLA    CLA24933   4.014   0.620   0.076 -0.0407  0.1229 -0.1958
  234CLA    CLA24934   3.450   4.215   8.858 -0.3660  0.4082  0.0055
  235CLA    CLA24935   1.414   3.941   1.625  0.6470  0.1265 -0.1633
  236CLA    CLA24936   2.348   5.492   9.420 -0.0948  0.0167  0.1359
  237CLA    CLA24937   5.129   2.545   9.321 -0.1368  0.2919  0.2122
  238CLA    CLA24938   1.338   2.682   7.883 -0.5397  0.0886 -0.3396
  239CLA    CLA24939   4.716   0.977   8.131 -0.1675 -0.2357  0.0964
  240CLA    CLA24940   3.747   2.273   1.142 -0.1670  0.1841  0.1034
  241CLA    CLA24941   1.213   4.002   9.403  0.3448 -0.0428 -0.2791
  242CLA    CLA24942   5.404   0.333   0.537 -0.3361  0.1506 -0.0231
  243CLA    CLA24943   3.471   6.521   9.398  0.2054  0.3452  0.0544
  244CLA    CLA24944   2.056   1.788   8.031  0.4584  0.2462 -0.0565
  245CLA    CLA24945   3.356   0.246   7.950 -0.0762  0.2109  0.1417
  246CLA    CLA24946   6.398   5.181   7.945 -0.0616  0.0021  0.0128
  247CLA    CLA24947   2.413   6.686   0.608 -0.2151  0.1987 -0.0185
  248CLA    CLA24948   2.502   3.544   8.790  0.2731  0.1814  0.3698
  249CLA    CLA24949   1.876   0.485   1.553  0.4844  0.2742  0.2346
  250CLA    CLA24950   2.378   2.702   9.636 -0.2302 -0.1453 -0.3699
  251CLA    CLA24951   5.908   2.570   0.959 -0.0291 -0.0838  0.2183
  252CLA    CLA24952   0.162   6.071   0.938  0.1405 -0.2589 -0.2092
  253TIP3   OH224953   6.247   0.902   8.801 -0.3597 -0.1420  0.4223
  253TIP3    H124954   6.242   0.909   8.896 -0.5548  1.9932  0.2997
  253TIP3    H224955   6.308   0.830   8.785  0.3568  0.0404  2.1637
  254TIP3   OH224956   1.530   5.129   9.239  0.4627  0.0595 -0.2580
  254TIP3    H124957   1.600   5.185   9.273 -0.6593  1.0564  0.5358
  254TIP3    H224958   1.556   5.040   9.262  0.7712  0.5391  1.3983
  255TIP3   OH224959   5.843   3.836   0.323  0.6129  0.2561 -0.1809
  255TIP3    H124960   5.805   3.833   0.411 -0.6724 -2.0990 -0.7029
  255TIP3    H224961   5.937   3.833   0.338  0.4537  0.7705  1.1146
  256TIP3   OH224962   7.207   1.427   7.426  0.2325  0.8705  0.4030
  256TIP3    H124963   7.203   1.492   7.496 -2.2548 -0.6191  1.7855
  256TIP3    H224964   7.247   1.350   7.466 -1.2731 -0.0241  0.2944
  257TIP3   OH224965   0.812   4.398   2.591 -0.3523  0.8391  0.0072
  257TIP3    H124966   0.720   4.413   2.570 -0.2946  2.5174  0.7761
  257TIP3    H224967   0.849   4.486   2.599  0.8253  0.2348  1.8229
  258TIP3   OH224968   0.557   1.684   1.129 -0.0834  0.1190 -0.0195
  258TIP3    H124969   0.636   1.631   1.133 -0.0576  0.0669 -0.9505
  258TIP3    H224970   0.559   1.738   1.208  0.1371 -0.9216  0.7013
  259TIP3   OH224971   2.159   7.535   9.978 -0.4636 -0.0120 -0.0541
  259TIP3    H124972   2.212   7.506   9.904 -0.7923 -0.4442 -0.1280
  259TIP3    H224973   2.213   7.599  10.023 -0.8218  1.4152 -1.5329
  260TIP3   OH224974   2.539   7.251   2.850  0.2961 -0.7887 -0.6826
  260TIP3    H124975   2.519   7.170   2.802  1.7204 -1.4460 -0.2119
  260TIP3    H224976   2.634   7.251   2.858  0.2539  0.5698 -0.0181
  261TIP3   OH224977   5.494   4.958   7.851  0.6531 -0.0732  0.1182
  261TIP3    H124978   5.467   5.012   7.926 -0.0522 -0.5632  0.2286
  261TIP3    H224979   5.575   4.998   7.821 -0.2122  1.4817 -0.2389
  262TIP3   OH224980   2.486   5.885   0.726 -0.3932 -0.0446  0.1204
  262TIP3    H124981   2.438   5.946   0.781 -1.6577 -0.0989 -0.8904
  262TIP3    H224982   2.446   5.894   0.639  0.5178 -1.0866 -0.4317
  263TIP3   OH224983   6.671   4.583   9.356  0.1805 -0.0649  0.8508
  263TIP3    H124984   6.670   4.630   9.439  1.8969 -1.6174  1.8161
  263TIP3    H224985   6.653   4.492   9.379 -0.6924 -0.3149 -0.6779
  264TIP3   OH224986   5.667   6.705   8.181 -0.0921  0.8362  0.0273
  264TIP3    H124987   5.747   6.676   8.223  0.8251  0.9119 -1.5847
  264TIP3    H224988   5.663   6.656   8.099  0.4049  3.5673 -1.7779
  265TIP3   OH224989   3.284   6.666   0.966 -0.3557  0.4476 -0.2474
  265TIP3    H124990   3.214   6.684   0.904 -1.3837 -0.0503  0.7447
  265TIP3    H224991   3.279   6.736   1.031 -0.2995  0.1172  0.1231
  266TIP3   OH224992   0.862   0.626   1.548 -0.0021  0.1796  0.3923
  266TIP3    H124993   0.858   0.672   1.631  0.0942 -2.5932  2.0652
  266TIP3    H224994   0.951   0.642   1.516  0.6251 -0.2600  1.8288
  267TIP3   OH224995   6.892   6.840   0.589  0.3030 -1.2038 -0.3593
  267TIP3    H124996   6.889   6.781   0.664 -1.9590  0.0290  0.6441
  267TIP3    H224997   6.811   6.822   0.541  0.5009 -0.2686 -1.0854
  268TIP3   OH224998   5.284   0.953   9.504 -0.0975  0.1459  0.4413
  268TIP3    H124999   5.311   1.039   9.472  0.1847 -0.0102  0.2598
  268TIP3    H225000   5.250   0.908   9.427  1.5945 -0.6363  0.0976
  269TIP3   OH225001   1.341   0.514   9.926 -0.2943  0.0575  0.5781
  269TIP3    H125002   1.322   0.601   9.960 -1.0774 -0.0861  0.5229
  269TIP3    H225003   1.418   0.485   9.975 -0.9731  0.1441  1.7237
  270TIP3   OH225004   5.711   5.121   8.395  0.1336  0.8023 -0.3966
  270TIP3    H125005   5.694   5.097   8.304  0.1189 -2.6603  0.4114
  270TIP3    H225006   5.626   5.112   8.439  0.1674  2.3260  0.0475
  271TIP3   OH225007   6.958   3.930   8.196 -0.1755 -0.2205 -0.2642
  271TIP3    H125008   7.023   3.865   8.224  0.2538 -0.0910 -0.9316
  271TIP3    H225009   6.973   4.005   8.254 -0.9110 -0.8292  0.7459
  272TIP3   OH225010   1.336   1.327   0.415  0.2473 -0.4709  0.1590
  272TIP3    H125011   1.348   1.250   0.470  0.9374 -0.2832  0.2737
  272TIP3    H225012   1.368   1.400   0.467  1.6163 -0.3882 -0.7643
  273TIP3   OH225013   2.006   7.252   8.110  0.5486  0.5995 -0.1229
  273TIP3    H125014   1.967   7.294   8.032  0.0814  2.9697  1.2694
  273TIP3    H225015   2.086   7.302   8.126  1.1146 -0.4541  0.4196
  274TIP3   OH225016   7.270   4.546   2.537  0.3019 -0.0115 -0.0710
  274TIP3    H125017   7.271   4.458   2.499  0.9283 -0.8021  1.6794
  274TIP3    H225018   7.255   4.604   2.462 -1.9717 -1.6870 -1.0452
  275TIP3   OH225019   1.627   4.567   7.128 -0.3834 -0.0120 -0.1335
  275TIP3    H125020   1.621   4.476   7.157 -0.0586  0.5079  1.6325
  275TIP3    H225021   1.537   4.590   7.104 -0.6019 -0.5741  0.1214
  276TIP3   OH225022   0.354   3.252   1.379  0.1052 -0.4940  0.6410
  276TIP3    H125023   0.334   3.220   1.467 -1.7462  0.3733  0.5848
  276TIP3    H225024   0.348   3.347   1.386  0.5157 -0.3875 -0.2988
  277TIP3   OH225025   0.453   7.570   2.654 -0.1558 -0.3137  0.2246
  277TIP3    H125026   0.480   7.478   2.657  1.7327  0.2052  0.7001
  277TIP3    H225027   0.533   7.619   2.674 -1.2746  1.4186  0.6632
  278TIP3   OH225028   2.816   5.618   9.472  0.3716  0.0935  0.3216
  278TIP3    H125029   2.734   5.644   9.430 -0.1710  0.4602  1.5739
  278TIP3    H225030   2.789   5.580   9.556  1.4632 -0.1733  0.5650
  279TIP3   OH225031   6.670   7.161   8.690 -0.2862 -0.1969 -0.1639
  279TIP3    H125032   6.676   7.251   8.724  1.8739  0.3823 -1.8354
  279TIP3    H225033   6.631   7.171   8.604 -1.6745 -1.1288  0.3208
  280TIP3   OH225034   1.243   7.559   8.354  0.2541 -0.3398 -0.2075
  280TIP3    H125035   1.289   7.498   8.412 -0.1960 -1.0300 -0.5567
  280TIP3    H225036   1.155   7.522   8.346  0.7098 -1.1067 -2.4965
  281TIP3   OH225037   7.312   2.224   7.728  0.2585 -0.3384 -0.2964
  281TIP3    H125038   7.230   2.230   7.777 -0.8369 -0.4034 -2.0396
  281TIP3    H225039   7.379   2.249   7.791 -1.2607  1.4358  0.7166
  282TIP3   OH225040   4.358   3.129   7.947  0.1599 -0.1656 -0.1436
  282TIP3    H125041   4.383   3.083   7.866  0.5228 -1.0182  0.4424
  282TIP3    H225042   4.268   3.156   7.931  0.2542 -0.2439 -0.8742
  283TIP3   OH225043   0.081   5.475   9.430  0.0273  0.1382  0.5767
  283TIP3    H125044  -0.006   5.454   9.398  0.1056 -1.7036  1.4659
  283TIP3    H225045   0.067   5.549   9.490 -1.0762 -0.6570  1.3417
  284TIP3   OH225046   1.523   7.557   1.846  0.0544  0.0239 -0.5894
  284TIP3    H125047   1.480   7.475   1.825 -0.9046  0.0289  1.1289
  284TIP3    H225048   1.610   7.532   1.878 -0.3839 -0.3709  0.3174
  285TIP3   OH225049   5.373   2.904   9.481  0.3140 -0.3330 -0.4298
  285TIP3    H125050   5.315   2.979   9.497  0.2336 -0.2567 -1.0738
  285TIP3    H225051   5.394   2.872   9.569 -1.2010 -0.7500 -0.1944
  286TIP3   OH225052   5.492   0.453   8.358  0.3468  0.0922 -0.1044
  286TIP3    H125053   5.403   0.454   8.391  0.3367 -1.8586  0.0008
  286TIP3    H225054   5.547   0.464   8.435  0.2537 -1.9825  0.3021
  287TIP3   OH225055   1.875   3.554   1.297  0.2274  0.2709  0.7017
  287TIP3    H125056   1.913   3.539   1.211  0.2607 -2.4580  1.0828
  287TIP3    H225057   1.782   3.565   1.281  0.2726  0.0607  0.2763
  288TIP3   OH225058   1.416   2.955   8.888  0.2851 -0.4655 -0.3657
  288TIP3    H125059   1.491   3.010   8.909  1.0134 -1.4035 -0.4660
  288TIP3    H225060   1.408   2.897   8.964 -1.4483  0.7601  0.4741
  289TIP3   OH225061   1.118   0.102   2.112 -0.2578  0.6255  0.0756
  289TIP3    H125062   1.169   0.131   2.187 -0.7311 -0.1528  0.7265
  289TIP3    H225063   1.057   0.173   2.095 -1.3483  0.1116  1.5838
  290TIP3   OH225064   2.260   3.994   1.911  0.4321 -0.6124 -0.3215
  290TIP3    H125065   2.221   4.079   1.893 -0.7295 -0.3723  2.7683
  290TIP3    H225066   2.349   4.014   1.941  0.5843 -0.6198 -0.7531
  291TIP3   OH225067   6.499   1.707   9.854  0.3694  0.0688  0.1334
  291TIP3    H125068   6.490   1.727   9.761 -0.5318 -0.8338  0.0145
  291TIP3    H225069   6.572   1.645   9.858  0.8784  0.6546  0.1192
  292TIP3   OH225070   0.416   3.973   2.564  0.1291  0.0319  0.0728
  292TIP3    H125071   0.411   4.019   2.480 -1.8853 -1.2498 -0.5983
  292TIP3    H225072   0.510   3.958   2.577  0.5121  0.3589 -1.8984
  293TIP3   OH225073   4.264   5.189   0.280  0.1692  0.0095  0.0268
  293TIP3    H125074   4.176   5.152   0.273 -0.1862 -0.3056  3.9461
  293TIP3    H225075   4.268   5.225   0.369  3.8096  0.5260 -0.1995
  294TIP3   OH225076   2.646   5.748   0.981  0.0817 -0.1192  0.2564
  294TIP3    H125077   2.679   5.712   0.899 -0.8151 -1.5708  0.4998
  294TIP3    H225078   2.638   5.842   0.964 -2.8916 -0.6563 -2.4121
  295TIP3   OH225079   3.051   1.669   9.818  0.5496 -0.3578  0.1674
  295TIP3    H125080   2.966   1.630   9.841  0.0222  0.1186 -0.8777
  295TIP3    H225081   3.103   1.595   9.786  0.1603 -0.4920 -0.1621
  296TIP3   OH225082   2.515   3.582   1.042 -0.2357 -0.7288  0.6438
  296TIP3    H125083   2.483   3.496   1.068  0.8537 -0.9263  1.3885
  296TIP3    H225084   2.600   3.565   1.003  0.2023  0.0509  1.2332
  297TIP3   OH225085   3.103   3.474   9.708 -0.1677  0.9284  0.2746
  297TIP3    H125086   3.112   3.498   9.615  0.4562  0.8996  0.3182
  297TIP3    H225087   3.103   3.379   9.709  1.2823  0.9091  0.4093
  298TIP3   OH225088   4.957   3.341   1.668 -0.2603  0.3826  0.1465
  298TIP3    H125089   5.013   3.415   1.648  0.4741 -0.0946  0.4064
  298TIP3    H225090   5.009   3.264   1.647 -0.5907 -0.0781  0.9364
  299TIP3   OH225091   3.897   0.587   9.503  0.2370 -0.0496 -0.6464
  299TIP3    H125092   3.959   0.594   9.575 -1.7884 -0.8240  1.3174
  299TIP3    H225093   3.935   0.638   9.432  1.8886  1.5936  1.3010
  300TIP3   OH225094   0.116   5.384   9.751 -0.2435 -0.2195 -0.3381
  300TIP3    H125095   0.043   5.392   9.690 -1.3285  0.0787  0.9349
  300TIP3    H225096   0.111   5.464   9.804  0.3271 -0.7193  0.4933
  301TIP3   OH225097   0.891   7.200   8.916 -0.7199  0.5829  0.3837
  301TIP3    H125098   0.916   7.195   9.008  2.4621 -0.4002 -0.4293
  301TIP3    H225099   0.835   7.124   8.902 -0.9128  0.5239  1.3833
  302TIP3   OH225100   3.217   0.610   1.838  0.0997 -0.4126 -0.1893
  302TIP3    H125101   3.168   0.657   1.771  0.6040 -0.9137 -0.9272
  302TIP3    H225102   3.264   0.678   1.886  1.7644 -0.1786 -1.9900
  303TIP3   OH225103   6.123   7.049   0.684 -0.5501  0.1852  0.2639
  303TIP3    H125104   6.182   6.982   0.719 -0.3071  0.4388  0.3411
  303TIP3    H225105   6.131   7.122   0.745 -0.9010  0.2443  0.2428
  304TIP3   OH225106   6.069   4.493   9.090 -0.8738 -0.0358 -0.4401
  304TIP3    H125107   6.073   4.570   9.033 -1.3726  0.2077 -0.1527
  304TIP3    H225108   6.035   4.423   9.034  0.0927 -0.1873 -0.8446
  305TIP3   OH225109   1.489   7.226   0.088  0.6485 -0.6303 -0.0106
  305TIP3    H125110   1.540   7.172   0.148  1.8036 -0.6303 -0.9480
  305TIP3    H225111   1.541   7.306   0.079  1.6153 -1.4450 -2.5894
  306TIP3   OH225112   3.090   2.208   7.506 -0.7031 -0.2532 -0.0850
  306TIP3    H125113   3.117   2.162   7.585 -1.3086 -1.1161 -0.3555
  306TIP3    H225114   3.000   2.179   7.491 -0.2637 -0.9317 -1.6618
  307TIP3   OH225115   4.747   5.051   8.794 -0.6588 -0.3387  0.6060
  307TIP3    H125116   4.765   5.123   8.733  0.6156 -0.5331  0.7410
  307TIP3    H225117   4.690   4.992   8.744  0.2055 -0.3926 -0.3361
  308TIP3   OH225118   0.034   1.354   9.052  0.2244  0.0753 -0.2704
  308TIP3    H125119  -0.013   1.298   9.114  1.9413  0.2569  1.2821
  308TIP3    H225120  -0.014   1.437   9.053  1.0118  0.5780  2.0039
  309TIP3   OH225121   1.231   5.972   6.890 -0.3062 -0.3016  0.3682
  309TIP3    H125122   1.261   6.061   6.872  0.6466 -0.7235 -0.1608
  309TIP3    H225123   1.297   5.935   6.947 -1.0821 -0.4418  1.2006
  310TIP3   OH225124   4.912   0.297   1.459 -0.1570  0.3083 -0.0220
  310TIP3    H125125   4.904   0.208   1.423  1.1762 -0.4367  1.4186
  310TIP3    H225126   4.837   0.306   1.517 -0.3375  0.1631 -0.2279
  311TIP3   OH225127   6.232   2.580   9.817 -0.3362  0.6998 -0.2014
  311TIP3    H125128   6.267   2.494   9.796 -0.3014  0.7433 -0.3238
  311TIP3    H225129   6.208   2.618   9.732  1.3443  1.5435 -0.3493
  312TIP3   OH225130   6.720   1.684   1.122  0.3438 -0.4123  0.0535
  312TIP3    H125131   6.735   1.674   1.216 -1.3248 -0.4589  0.3517
  312TIP3    H225132   6.653   1.619   1.102  0.3229 -0.0650 -1.0672
  313TIP3   OH225133   6.431   3.194   8.655 -0.1363  0.7925 -0.2573
  313TIP3    H125134   6.394   3.188   8.566  0.3064 -0.3880 -0.3836
  313TIP3    H225135   6.421   3.105   8.690  0.2296  1.1106  0.6616
  314TIP3   OH225136   7.048   5.575   0.905  0.0782 -0.3612  0.3737
  314TIP3    H125137   7.048   5.525   0.824 -0.7948 -0.4509  0.4159
  314TIP3    H225138   7.092   5.657   0.884  2.3387 -1.4473  0.5189
  315TIP3   OH225139   2.861   5.751   8.868  0.4062  0.4136 -0.2539
  315TIP3    H125140   2.772   5.776   8.846  0.8192  1.9174 -0.3088
  315TIP3    H225141   2.857   5.728   8.961 -0.1043  0.1117 -0.3470
  316TIP3   OH225142   5.261   5.106   8.408  0.3360  0.1924 -0.7609
  316TIP3    H125143   5.258   5.182   8.467  1.4893 -0.8226  0.6560
  316TIP3    H225144   5.262   5.145   8.320 -1.0451  1.7568 -0.1419
  317TIP3   OH225145   5.055   1.518   9.817 -0.1928 -0.1405 -0.0765
  317TIP3    H125146   5.039   1.513   9.723 -1.7176 -0.5606  0.1686
  317TIP3    H225147   4.982   1.468   9.856 -1.0263  2.0982  1.4194
  318TIP3   OH225148   3.004   4.352   8.395 -0.1664 -0.2681  0.1258
  318TIP3    H125149   2.991   4.370   8.489  0.9601  0.8660  0.1052
  318TIP3    H225150   3.057   4.426   8.365 -0.1266 -0.8633 -1.3104
  319TIP3   OH225151   7.420   5.924   7.040 -0.0419 -0.3513  0.2466
  319TIP3    H125152   7.358   5.988   7.078  0.9058  0.0694  1.1326
  319TIP3    H225153   7.503   5.971   7.035  0.0376 -0.6277 -1.7626
  320TIP3   OH225154   0.987   7.006   7.761  0.3821  0.3541 -0.8484
  320TIP3    H125155   1.049   7.010   7.834 -0.6659 -0.8663  0.1435
  320TIP3    H225156   0.950   7.094   7.757  2.1708  1.1308 -1.4980
  321TIP3   OH225157   1.516   7.330   1.489 -1.0586  0.3580  0.2694
  321TIP3    H125158   1.569   7.262   1.449 -1.3401  1.0520 -1.3775
  321TIP3    H225159   1.576   7.375   1.548  0.2368  1.0721 -1.4836
  322TIP3   OH225160   3.952   1.434   0.837 -0.5025 -0.6428  0.3898
  322TIP3    H125161   4.005   1.378   0.781  0.7891  0.5108  0.4121
  322TIP3    H225162   3.968   1.401   0.926  2.5056  1.3396  0.7561
  323TIP3   OH225163   3.811   5.830   1.181 -0.4159 -0.2074 -0.5406
  323TIP3    H125164   3.868   5.879   1.122 -0.6237  0.0194 -0.5527
  323TIP3    H225165   3.727   5.825   1.136 -1.6438  2.8975  1.1123
  324TIP3   OH225166   4.514   4.071   2.163  0.3045  0.4015 -0.2694
  324TIP3    H125167   4.481   4.153   2.198 -0.4422 -0.4661  1.1590
  324TIP3    H225168   4.471   4.003   2.215 -0.4443 -0.9836 -2.5366
  325TIP3   OH225169   1.049   6.589   0.574 -0.4804 -0.2393 -0.0137
  325TIP3    H125170   1.106   6.571   0.499 -0.0939 -1.5846  0.5698
  325TIP3    H225171   1.062   6.514   0.633 -2.8498 -0.6210  0.1486
  326TIP3   OH225172   6.316   6.724   7.435 -0.0998  0.2590  0.4014
  326TIP3    H125173   6.273   6.678   7.508 -0.2682  1.0632  0.8218
  326TIP3    H225174   6.384   6.663   7.406 -0.3641 -0.2905  0.8985
  327TIP3   OH225175   2.194   4.353   9.186  0.4685  0.3922 -0.0820
  327TIP3    H125176   2.236   4.267   9.178 -0.1308 -0.0261  1.0334
  327TIP3    H225177   2.218   4.399   9.105  2.1511 -0.2205  0.0363
  328TIP3   OH225178   3.167   1.203   7.862 -0.0675  0.2759  0.2082
  328TIP3    H125179   3.096   1.265   7.845  0.5317  1.0102  0.3547
  328TIP3    H225180   3.141   1.159   7.943 -0.3554  0.5305  0.2567
  329TIP3   OH225181   7.606   4.551   2.853 -0.3308  0.1192  0.3658
  329TIP3    H125182   7.682   4.497   2.831  0.2863  1.1036 -0.0164
  329TIP3    H225183   7.536   4.517   2.798  0.6913  1.2932 -1.7856
  330TIP3   OH225184   3.062   6.789   0.453 -0.2092  0.2907  0.3483
  330TIP3    H125185   2.983   6.836   0.426  0.6131  1.0622 -0.8324
  330TIP3    H225186   3.133   6.851   0.437  0.5661  0.0020  2.3977
  331TIP3   OH225187   4.689   0.010   0.156  0.8180 -0.4190  0.3752
  331TIP3    H125188   4.606   0.016   0.109  0.7394 -1.3952  0.3724
  331TIP3    H225189   4.671   0.048   0.242  0.4838 -0.2567  0.2341
  332TIP3   OH225190   4.652   4.731   8.848  0.1458  0.3131 -0.1241
  332TIP3    H125191   4.567   4.688   8.858  0.1471  0.2594 -0.3387
  332TIP3    H225192   4.692   4.689   8.772  0.3848  0.3068  0.0025
  333TIP3   OH225193   3.960   0.147   1.735 -0.4800 -0.2620  0.0941
  333TIP3    H125194   3.926   0.232   1.705  0.3537 -0.7363 -2.4723
  333TIP3    H225195   3.886   0.105   1.777 -0.5371  2.2900  2.9019
  334TIP3   OH225196   4.055   2.305   1.670 -0.1181  0.4306 -0.0399
  334TIP3    H125197   4.137   2.354   1.679 -0.7333  1.4284  0.2628
  334TIP3    H225198   4.070   2.248   1.594  1.2659 -0.2598  0.7231
  335TIP3   OH225199   5.941   1.922   0.687 -0.3468  0.0895 -0.7083
  335TIP3    H125200   5.914   1.838   0.650  0.3175  1.0845 -3.6849
  335TIP3    H225201   6.032   1.907   0.713  0.1882  0.1694 -2.4060
  336TIP3   OH225202   6.802   3.252   1.105 -0.0167 -0.3166 -0.2843
  336TIP3    H125203   6.727   3.228   1.051  0.4267  0.8081 -1.4550
  336TIP3    H225204   6.847   3.169   1.122 -0.1201 -0.6848 -1.7333
  337TIP3   OH225205   2.389   0.134   9.639  0.3626 -0.2588 -0.1796
  337TIP3    H125206   2.328   0.194   9.681 -0.9058 -2.3115  1.0995
  337TIP3    H225207   2.475   0.158   9.674 -0.1551  0.5956  0.5298
  338TIP3   OH225208   1.697   4.211   9.061  0.4275  0.2527 -0.3336
  338TIP3    H125209   1.783   4.234   9.098  0.6356 -0.4843 -0.3485
  338TIP3    H225210   1.694   4.116   9.064 -0.4605  0.2753 -0.1894
  339TIP3   OH225211   7.396   1.622   1.579 -0.1446 -0.3913  0.4127
  339TIP3    H125212   7.357   1.575   1.506  2.2141 -2.5682  0.4212
  339TIP3    H225213   7.456   1.684   1.538 -0.6782  0.1728  0.4745
  340TIP3   OH225214   2.915   7.203   7.806 -0.3017  0.2100  0.5581
  340TIP3    H125215   2.923   7.293   7.774  0.0468  0.9681  2.6119
  340TIP3    H225216   2.970   7.152   7.747 -0.2507  1.3824 -0.4578
  341TIP3   OH225217   3.793   6.529   8.031 -0.0187  0.3465 -0.0396
  341TIP3    H125218   3.750   6.603   8.073 -0.3926  0.3353 -0.3948
  341TIP3    H225219   3.786   6.457   8.094  0.1972  0.5642  0.2359
  342TIP3   OH225220   3.598   0.519   1.510  0.3567 -0.3925 -0.1743
  342TIP3    H125221   3.658   0.471   1.455  1.3677  1.1092 -0.4521
  342TIP3    H225222   3.653   0.581   1.558 -1.0145  1.8157 -1.2532
  343TIP3   OH225223   4.535   2.235   1.061  0.2048  0.3417  0.1291
  343TIP3    H125224   4.511   2.229   0.969  0.5436 -1.9683  0.1295
  343TIP3    H225225   4.619   2.281   1.062 -0.8739  2.4257 -0.4626
  344TIP3   OH225226   7.600   5.564   0.705 -0.4827  0.3648  0.3776
  344TIP3    H125227   7.579   5.487   0.758  0.8830  0.2735  0.8529
  344TIP3    H225228   7.656   5.617   0.763  0.6099  0.5195 -0.7698
  345TIP3   OH225229   3.726   2.662   2.425 -0.0899 -0.4122 -0.0303
  345TIP3    H125230   3.710   2.745   2.380  2.0338 -0.0096 -0.1717
  345TIP3    H225231   3.696   2.595   2.363 -1.2133  0.2176 -0.1927
  346TIP3   OH225232   7.202   4.963   0.541 -0.2453  0.3573 -0.4136
  346TIP3    H125233   7.291   4.992   0.522 -1.0539  2.0976 -1.7812
  346TIP3    H225234   7.204   4.869   0.521  1.1708  0.4424 -0.8294
  347TIP3   OH225235   2.995   6.453   9.662 -0.2746 -0.1212  0.2153
  347TIP3    H125236   2.903   6.447   9.636 -0.1842 -0.3976 -0.0588
  347TIP3    H225237   3.043   6.434   9.581  0.0311  0.9109  0.1494
  348TIP3   OH225238   3.095   0.189   2.104 -0.6288 -0.0897  0.1627
  348TIP3    H125239   3.100   0.246   2.027 -2.8162  0.3828  0.3035
  348TIP3    H225240   3.044   0.239   2.168 -0.1260 -1.0765  1.3886
  349TIP3   OH225241   3.160   4.218   1.991 -0.1052 -0.2092  0.3100
  349TIP3    H125242   3.145   4.306   2.025  0.5044 -0.9284  2.6527
  349TIP3    H225243   3.244   4.192   2.029 -0.0782 -1.6666 -0.6621
  350TIP3   OH225244   2.148   3.069   0.103  0.1380 -0.4088  0.5760
  350TIP3    H125245   2.185   3.030   0.024  0.7440  1.2744  0.0012
  350TIP3    H225246   2.061   3.028   0.111  0.4082 -1.2303 -0.4711
  351TIP3   OH225247   2.806   6.796   8.342  0.0330  0.4438 -0.1236
  351TIP3    H125248   2.777   6.737   8.273  0.8293 -3.1598  2.3544
  351TIP3    H225249   2.735   6.861   8.349 -1.8752 -1.3254 -1.7414
  352TIP3   OH225250   5.759   4.621   1.664 -0.6949 -0.0776 -0.3690
  352TIP3    H125251   5.797   4.708   1.650 -0.2123 -0.0708  0.8928
  352TIP3    H225252   5.831   4.560   1.649 -1.0568 -0.2781 -1.3431
  353TIP3   OH225253   4.746   3.670   0.687  0.2616 -0.3073  0.0861
  353TIP3    H125254   4.663   3.688   0.732  0.0456 -0.7235 -0.1382
  353TIP3    H225255   4.755   3.575   0.690  1.8221 -0.1559  2.0281
  354TIP3   OH225256   5.126   5.966   8.074  0.4639 -0.2959 -0.3835
  354TIP3    H125257   5.116   5.924   8.159 -0.8011 -0.7451 -0.7259
  354TIP3    H225258   5.181   5.906   8.023  0.0590 -0.7158 -0.3266
  355TIP3   OH225259   1.393   3.314   8.946  0.4238 -0.3132 -0.8065
  355TIP3    H125260   1.422   3.254   8.876 -0.6308 -1.4082 -0.3483
  355TIP3    H225261   1.472   3.359   8.973  1.2091 -1.3017 -1.3731
  356TIP3   OH225262   5.067   4.810   0.810  0.6735 -0.2300 -0.1115
  356TIP3    H125263   4.992   4.848   0.856 -0.1639  0.3015 -1.8032
  356TIP3    H225264   5.124   4.885   0.793  0.8562 -0.3743 -0.1288
  357TIP3   OH225265   2.597   0.396   8.978 -0.5116  0.5823 -0.4370
  357TIP3    H125266   2.684   0.357   8.983 -1.0659 -1.0228 -2.2274
  357TIP3    H225267   2.555   0.371   9.060 -0.5094 -1.8775 -1.1191
  358TIP3   OH225268   3.592   1.834   0.959  0.0347 -0.0225  0.0972
  358TIP3    H125269   3.642   1.754   0.977 -0.1199  0.0174  0.7129
  358TIP3    H225270   3.572   1.829   0.865 -0.3357 -0.9239  0.2144
  359TIP3   OH225271   3.527   4.212   1.847  0.0792  0.0901 -0.2803
  359TIP3    H125272   3.512   4.305   1.862 -0.3914  0.0819 -0.6604
  359TIP3    H225273   3.489   4.168   1.923  1.5967  0.2808  0.6178
  360TIP3   OH225274   2.578   6.298   1.625 -0.3700 -0.0148 -0.0947
  360TIP3    H125275   2.647   6.347   1.669  0.1371 -0.7155 -0.0898
  360TIP3    H225276   2.572   6.216   1.673 -2.3472  0.6672  0.9216
  361TIP3   OH225277   2.074   2.116   8.840 -0.0543  0.3409 -0.5963
  361TIP3    H125278   2.100   2.025   8.827 -0.2433  0.1947  0.0101
  361TIP3    H225279   2.157   2.164   8.842  0.0157  0.2728 -1.5364
  362TIP3   OH225280   7.221   6.351   9.892  0.2502 -0.9686  0.1074
  362TIP3    H125281   7.171   6.430   9.915  1.4411 -0.5609  1.4196
  362TIP3    H225282   7.312   6.381   9.888  0.3495 -1.2059 -4.3951
  363TIP3   OH225283   1.612   5.658   0.839 -0.3104  0.3622  0.3084
  363TIP3    H125284   1.591   5.611   0.919  0.3763  0.2576  0.4315
  363TIP3    H225285   1.702   5.689   0.852 -0.8389  1.9979  0.3773
  364TIP3   OH225286   1.369   6.807   8.567  0.2347 -0.2087  0.4679
  364TIP3    H125287   1.456   6.847   8.560 -0.0967  0.3276 -0.9991
  364TIP3    H225288   1.323   6.861   8.631  0.6000  0.2472  0.3542
  365TIP3   OH225289   4.229   1.461   8.492  0.4932 -0.3803 -0.1504
  365TIP3    H125290   4.317   1.430   8.474  0.2597 -1.5946  0.6731
  365TIP3    H225291   4.178   1.437   8.414  0.5639 -1.0749  0.0130
  366TIP3   OH225292   0.186   4.669   8.826  0.1410 -0.0513  0.2039
  366TIP3    H125293   0.138   4.605   8.878 -1.0175  0.4191 -0.2405
  366TIP3    H225294   0.209   4.623   8.745 -2.4648  0.5877 -1.0057
  367TIP3   OH225295   0.050   0.173   9.957 -0.4451 -0.2406 -0.4790
  367TIP3    H125296  -0.040   0.194   9.984 -0.6657 -2.6202  0.9490
  367TIP3    H225297   0.058   0.213   9.870 -1.9061  2.3628  0.4650
  368TIP3   OH225298   3.624   3.703   9.629  0.3523  0.7166  0.2733
  368TIP3    H125299   3.693   3.728   9.569  0.7488  0.2132  0.5182
  368TIP3    H225300   3.559   3.658   9.575  0.6746  0.3275  0.2116
  369TIP3   OH225301   1.897   1.922   9.056 -1.0756  0.5337  0.0567
  369TIP3    H125302   1.866   1.933   9.146 -2.7080 -0.0786 -0.3991
  369TIP3    H225303   1.949   1.842   9.058 -0.9578  0.6161  0.4781
  370TIP3   OH225304   6.137   5.624   9.538  0.7048 -0.0069 -0.3268
  370TIP3    H125305   6.122   5.541   9.492  2.6126 -0.0568 -0.9430
  370TIP3    H225306   6.203   5.603   9.604  0.0493  0.7066  0.5949
  371TIP3   OH225307   2.298   2.874   9.394 -0.3852  0.0403  0.2884
  371TIP3    H125308   2.260   2.961   9.405 -0.6241 -0.0026 -0.1605
  371TIP3    H225309   2.304   2.839   9.482 -4.4910 -1.2774  0.2429
  372TIP3   OH225310   5.366   1.313   2.223  0.2297  0.2656 -0.1886
  372TIP3    H125311   5.340   1.337   2.312  0.9293 -1.2646  0.4732
  372TIP3    H225312   5.290   1.268   2.187 -0.1308  1.0772 -0.4502
  373TIP3   OH225313   3.470   5.130   0.815 -0.4982  0.4095  0.1414
  373TIP3    H125314   3.441   5.068   0.747 -1.6429  0.4011  0.6137
  373TIP3    H225315   3.398   5.193   0.821 -0.0908  0.8091  0.8617
  374TIP3   OH225316   5.246   7.547   8.436  0.1260  0.0221 -0.4176
  374TIP3    H125317   5.176   7.538   8.500 -0.2996  1.3471 -0.6799
  374TIP3    H225318   5.313   7.599   8.480 -0.2744  1.1530 -1.1032
  375TIP3   OH225319   3.113   5.962   1.123 -0.0781  0.5777 -0.0573
  375TIP3    H125320   3.108   5.963   1.028 -0.2699  1.1146 -0.0478
  375TIP3    H225321   3.036   6.012   1.152  1.3574  2.7159  0.2966
  376TIP3   OH225322   1.934   1.400   0.819 -0.0092 -0.4953  0.1210
  376TIP3    H125323   1.910   1.342   0.891 -0.3914 -1.1064 -0.4958
  376TIP3    H225324   1.958   1.342   0.747 -0.4371  0.0929 -0.5150
  377TIP3   OH225325   4.885   4.791   8.403  0.2227 -0.6291  0.2140
  377TIP3    H125326   4.813   4.764   8.460  1.1314 -2.1428  0.7015
  377TIP3    H225327   4.866   4.750   8.319 -0.2393  0.1985 -0.0908
  378TIP3   OH225328   4.309   7.545   9.186  0.4141 -0.1590  0.3382
  378TIP3    H125329   4.315   7.450   9.194 -1.4559 -0.3466 -0.0051
  378TIP3    H225330   4.237   7.569   9.244 -1.8558  0.4976 -2.5185
  379TIP3   OH225331   2.485   7.366   9.468  0.6953  0.2008 -0.1353
  379TIP3    H125332   2.442   7.451   9.477 -1.4533 -0.7067 -1.1895
  379TIP3    H225333   2.561   7.372   9.526  0.6580  2.8401 -0.2166
  380TIP3   OH225334   2.548   5.990   8.539 -0.6508 -0.1344 -0.3342
  380TIP3    H125335   2.570   6.047   8.613  0.2931 -0.0376 -0.6695
  380TIP3    H225336   2.498   5.919   8.577 -1.5163  0.7087  0.1594
  381TIP3   OH225337   1.764   4.102   1.331 -0.1971  0.1181 -0.3451
  381TIP3    H125338   1.835   4.165   1.315  1.1705 -0.4538  2.6169
  381TIP3    H225339   1.789   4.025   1.281 -0.9422  1.2543 -2.5726
  382TIP3   OH225340   2.735   5.017   9.639  0.1076 -0.0187  0.0811
  382TIP3    H125341   2.735   5.105   9.601 -1.3818  0.3996  0.9751
  382TIP3    H225342   2.748   4.959   9.564 -0.3760  0.8941 -0.7341
  383TIP3   OH225343   3.160   2.333   1.135 -0.2263 -0.2539 -0.8284
  383TIP3    H125344   3.072   2.311   1.167  0.7156 -0.1659  2.0212
  383TIP3    H225345   3.151   2.422   1.102 -1.7615 -1.1606 -3.1628
  384TIP3   OH225346   5.664   5.611   9.658 -0.5704 -0.0234  0.4254
  384TIP3    H125347   5.751   5.640   9.630 -0.7412 -2.6452 -3.6329
  384TIP3    H225348   5.665   5.516   9.645 -4.2445 -0.0574 -0.6496
  385TIP3   OH225349   5.479   0.539   8.009  0.5291  0.3805 -0.0319
  385TIP3    H125350   5.567   0.576   8.004  1.5729 -2.0746 -1.3747
  385TIP3    H225351   5.458   0.539   8.102  1.8768  1.0962  0.2954
  386TIP3   OH225352   3.209   3.641   0.192  0.0276 -0.3642  0.7675
  386TIP3    H125353   3.196   3.719   0.246  0.3338  0.6683 -0.6023
  386TIP3    H225354   3.166   3.661   0.109  1.3149 -1.0631 -0.1074
  387TIP3   OH225355   4.271   5.607   2.111  0.0703 -0.0027 -0.0792
  387TIP3    H125356   4.281   5.624   2.017  1.8361  0.7497  0.1989
  387TIP3    H225357   4.300   5.516   2.121 -1.4112 -0.5345 -0.4244
  388TIP3   OH225358   3.013   0.419   9.044 -0.1833  0.2464 -0.2932
  388TIP3    H125359   2.943   0.439   8.981 -0.5480  0.7222  0.2499
  388TIP3    H225360   3.039   0.505   9.079  0.8002  0.0932 -0.6180
  389TIP3   OH225361   4.588   4.501   0.114  0.2907 -0.0002 -0.2891
  389TIP3    H125362   4.527   4.456   0.172  1.4639 -2.5659 -0.9378
  389TIP3    H225363   4.535   4.570   0.074 -1.4664 -0.4506  1.1209
  390TIP3   OH225364   0.270   6.398   1.636  0.2932  0.5733  0.3590
  390TIP3    H125365   0.239   6.459   1.569 -2.3160 -0.7345  0.2483
  390TIP3    H225366   0.293   6.319   1.588  0.4448  0.3332  0.8153
  391TIP3   OH225367   0.022   1.931   7.517 -0.6038 -0.7281 -0.2381
  391TIP3    H125368   0.099   1.988   7.520 -1.0060 -0.0739 -1.3918
  391TIP3    H225369  -0.051   1.989   7.538 -0.7154 -1.5901  2.0260
  392TIP3   OH225370   3.263   3.374   0.266  0.7484  0.1458  0.3634
  392TIP3    H125371   3.348   3.346   0.298  0.3251  0.5746  1.9095
  392TIP3    H225372   3.270   3.469   0.256  0.5607  0.1382  0.1257
  393TIP3   OH225373   3.913   5.869   0.918 -0.0122 -0.4836  0.2083
  393TIP3    H125374   3.879   5.949   0.879  2.1554 -0.3450 -1.5936
  393TIP3    H225375   3.885   5.799   0.859 -0.5388 -0.8746  0.9023
  394TIP3   OH225376   2.680   2.666   0.136 -0.5363 -0.3754  0.5767
  394TIP3    H125377   2.591   2.671   0.171 -1.1704 -0.1419 -0.9781
  394TIP3    H225378   2.669   2.631   0.048  0.7894  0.8229 -0.1093
  395TIP3   OH225379   3.224   6.312   8.099 -0.1929 -0.0810  0.1528
  395TIP3    H125380   3.174   6.233   8.115  1.4624 -1.0704  0.7261
  395TIP3    H225381   3.158   6.379   8.079 -1.7027 -1.3011  0.8391
  396TIP3   OH225382   4.967   0.757   1.488 -0.5440 -0.5083  0.5509
  396TIP3    H125383   4.925   0.691   1.544 -2.1555  0.0577  0.0631
  396TIP3    H225384   4.908   0.832   1.491  1.3774  1.0501  1.2809
  397TIP3   OH225385   4.962   0.990   9.539 -0.5458  0.3193  0.4551
  397TIP3    H125386   4.957   0.900   9.573  0.0425  0.1959  0.2275
  397TIP3    H225387   5.024   0.985   9.466 -0.1339  0.9945  0.7442
  398TIP3   OH225388   1.946   5.439   2.828 -0.4112 -0.1841 -0.1559
  398TIP3    H125389   2.000   5.497   2.880 -0.3418  0.7953 -1.2688
  398TIP3    H225390   2.008   5.380   2.784 -0.5436 -2.0347  1.9519
  399TIP3   OH225391   1.661   1.932   8.245  0.1997  0.1666 -0.3279
  399TIP3    H125392   1.704   1.847   8.231 -0.8006 -0.5952  0.9055
  399TIP3    H225393   1.691   1.987   8.173  1.3590 -1.0492 -0.8166
  400TIP3   OH225394   0.332   7.429   0.022  0.6747  0.0625 -0.4576
  400TIP3    H125395   0.240   7.455   0.032  0.1436 -1.4815 -1.0649
  400TIP3    H225396   0.363   7.419   0.112 -0.0859 -0.5099 -0.2527
  401TIP3   OH225397   1.836   3.276   6.703  0.0236  0.2232  0.3906
  401TIP3    H125398   1.798   3.189   6.693 -0.0356  0.0759  1.7514
  401TIP3    H225399   1.786   3.330   6.641 -0.4594 -0.5429  0.0921
  402TIP3   OH225400   2.254   7.087   1.593 -0.3490  0.2852  0.3132
  402TIP3    H125401   2.274   7.009   1.644 -0.4423 -0.6610 -1.0426
  402TIP3    H225402   2.326   7.147   1.612 -0.9641  0.4378  2.4102
  403TIP3   OH225403   2.356   2.164   9.973 -0.0160 -0.5791  0.3080
  403TIP3    H125404   2.429   2.210  10.014 -0.4913  0.3167  0.1825
  403TIP3    H225405   2.335   2.216   9.895 -2.2211  0.4743  1.5254
  404TIP3   OH225406   5.599   5.174   1.979  0.1969  0.4128  0.1197
  404TIP3    H125407   5.518   5.132   2.010  0.4671 -0.1445  0.0700
  404TIP3    H225408   5.609   5.250   2.037 -0.7224  0.8807 -0.3032
  405TIP3   OH225409   3.338   4.509   8.882 -0.3256  0.2234 -0.4809
  405TIP3    H125410   3.303   4.511   8.971  0.1953 -0.9423 -0.2381
  405TIP3    H225411   3.349   4.416   8.862  0.9457  0.5030 -1.2146
  406TIP3   OH225412   1.196   5.040   8.880 -0.3476  0.2042 -0.6311
  406TIP3    H125413   1.184   4.989   8.960 -0.7194 -1.0063 -1.4301
  406TIP3    H225414   1.136   5.114   8.889 -1.5341 -0.7484 -0.4514
  407TIP3   OH225415   3.201   2.725   7.392 -0.1805  0.3337  0.6476
  407TIP3    H125416   3.139   2.785   7.434  0.6416  1.7095 -0.0290
  407TIP3    H225417   3.165   2.710   7.305 -0.6215 -0.5427  0.9749
  408TIP3   OH225418   0.540   7.397   2.032 -0.4011  0.1388 -0.0757
  408TIP3    H125419   0.547   7.403   2.128  0.0339  0.8354 -0.1478
  408TIP3    H225420   0.446   7.394   2.015 -0.4930 -1.8110  0.4691
  409TIP3   OH225421   4.724   6.115   7.298  0.4838 -0.1250  0.2176
  409TIP3    H125422   4.689   6.035   7.337 -0.4283 -0.0478 -0.4159
  409TIP3    H225423   4.655   6.181   7.310  0.5599  0.1375 -0.6928
  410TIP3   OH225424   2.444   3.903   9.928  0.1316 -0.7319  0.3966
  410TIP3    H125425   2.394   3.833   9.969  0.0132 -2.2731 -2.1921
  410TIP3    H225426   2.498   3.859   9.863  1.4505  1.4089 -0.0583
  411TIP3   OH225427   6.788   5.215   2.119 -0.2397  0.5445 -0.2713
  411TIP3    H125428   6.819   5.187   2.032  1.6988  0.8415  0.2688
  411TIP3    H225429   6.852   5.178   2.180 -0.7779  1.5100  0.9208
  412TIP3   OH225430   1.142   5.645   7.086 -0.1662 -0.2331  0.1227
  412TIP3    H125431   1.187   5.652   7.002 -0.2477 -1.5123 -0.0530
  412TIP3    H225432   1.132   5.551   7.100 -2.0476 -0.0093  0.5571
  413TIP3   OH225433   7.054   2.718   1.007  0.3525 -0.6343  0.1429
  413TIP3    H125434   7.017   2.644   1.054 -0.2342  0.4471  1.4721
  413TIP3    H225435   7.073   2.782   1.076 -0.4416  0.9789 -1.0768
  414TIP3   OH225436   2.816   7.602   0.721 -0.2115  0.3475  0.7842
  414TIP3    H125437   2.876   7.675   0.709 -0.0083 -0.1969 -2.4398
  414TIP3    H225438   2.870   7.524   0.711 -1.0083 -0.2004  0.6341
  415TIP3   OH225439   0.908   3.491   8.792 -0.3983 -0.1244 -0.2406
  415TIP3    H125440   0.979   3.524   8.736  0.5297 -0.6150  0.6109
  415TIP3    H225441   0.832   3.545   8.769  0.1877  0.2707 -1.3294
  416TIP3   OH225442   2.868   1.079   9.970 -0.2315  0.0642 -0.4261
  416TIP3    H125443   2.920   1.157   9.991 -0.8781  0.1630  0.9402
  416TIP3    H225444   2.818   1.103   9.892  1.1663  0.2373 -1.3052
  417TIP3   OH225445   1.260   5.538   7.648 -0.0551  0.3029 -0.7479
  417TIP3    H125446   1.274   5.450   7.684  1.3991  0.9681  0.4330
  417TIP3    H225447   1.252   5.524   7.554 -2.4939 -1.3454 -0.4030
  418TIP3   OH225448   4.128   0.745   8.587 -0.6236 -0.0669  0.1987
  418TIP3    H125449   4.219   0.717   8.597 -0.0772  1.6122  0.3057
  418TIP3    H225450   4.081   0.700   8.657 -0.2256 -2.2447 -0.8593
  419TIP3   OH225451   2.517   3.783   1.973  0.1595 -0.1667 -0.0245
  419TIP3    H125452   2.505   3.760   2.065  2.9394  1.6685  0.9213
  419TIP3    H225453   2.528   3.699   1.929  1.2253 -1.0186  1.7563
  420TIP3   OH225454   0.006   2.444   9.251  0.1061  0.2236 -0.2503
  420TIP3    H125455   0.075   2.405   9.305 -0.0605 -0.2089 -0.3389
  420TIP3    H225456   0.050   2.471   9.171  0.4641  1.3933  0.3255
  421TIP3   OH225457   1.160   1.619   2.058  0.1218 -0.7286 -0.3502
  421TIP3    H125458   1.154   1.626   1.963  1.2989 -1.0199 -0.4639
  421TIP3    H225459   1.254   1.619   2.076 -0.0775 -1.1284  0.7754
  422TIP3   OH225460   4.016   6.754   0.632  0.2203 -0.0714  0.2168
  422TIP3    H125461   4.047   6.772   0.721 -2.7288  3.7153  0.7388
  422TIP3    H225462   4.071   6.809   0.576  1.6313 -1.9403 -0.3014
  423TIP3   OH225463   0.659   1.229   8.058 -0.0540  0.1319  0.0431
  423TIP3    H125464   0.748   1.196   8.060  0.2711  0.8427 -1.2342
  423TIP3    H225465   0.657   1.299   8.123  0.1729 -0.2132  0.4224
  424TIP3   OH225466   4.796   6.924   7.692 -0.1591  0.1339  0.2790
  424TIP3    H125467   4.701   6.915   7.684 -0.0531  0.0654 -1.0204
  424TIP3    H225468   4.808   6.987   7.763 -1.2081  0.9651 -0.2583
  425TIP3   OH225469   0.529   1.459   7.550  0.1259  0.3562  0.5211
  425TIP3    H125470   0.624   1.459   7.557  0.3889  0.8182 -2.1883
  425TIP3    H225471   0.511   1.487   7.461 -2.5649  0.0562  0.8825
  426TIP3   OH225472   4.136   2.926   7.625 -0.5273 -0.7738  0.3935
  426TIP3    H125473   4.209   2.986   7.604 -2.0031  0.3715 -1.8937
  426TIP3    H225474   4.058   2.981   7.619 -1.7297 -2.3376  1.1636
  427TIP3   OH225475   6.738   3.361   0.075 -0.1245  0.1727  0.1366
  427TIP3    H125476   6.647   3.391   0.072 -0.8177 -1.8177  0.0882
  427TIP3    H225477   6.745   3.312   0.157  1.0133  0.5724  0.3039
  428TIP3   OH225478   0.531   0.446   1.810  0.4404 -0.7085 -0.1068
  428TIP3    H125479   0.464   0.447   1.879  0.8917 -1.0364  0.3438
  428TIP3    H225480   0.482   0.457   1.729  0.0857  2.1506  0.3971
  429TIP3   OH225481   6.126   2.786   0.889  0.6900  0.1267  0.4351
  429TIP3    H125482   6.069   2.856   0.922  0.5147 -0.1882  0.8083
  429TIP3    H225483   6.067   2.714   0.871  0.6244  0.6581 -1.6849
  430TIP3   OH225484   2.305   1.937   0.799  0.5535  0.2173 -0.0800
  430TIP3    H125485   2.358   1.948   0.720  0.7798 -0.3916 -0.0168
  430TIP3    H225486   2.216   1.930   0.766  0.7560 -1.2335 -0.3962
  431TIP3   OH225487   1.697   2.380   9.520  0.1681 -0.4393 -0.1810
  431TIP3    H125488   1.786   2.377   9.556  0.9049  1.2896 -1.7035
  431TIP3    H225489   1.704   2.437   9.444 -2.6387  1.4491  0.8168
  432TIP3   OH225490   7.496   2.582   0.121 -0.3453  0.3511 -0.1558
  432TIP3    H125491   7.579   2.578   0.074 -1.1754 -0.9548 -1.6219
  432TIP3    H225492   7.454   2.662   0.089 -0.3786  0.1030 -0.7569
  433TIP3   OH225493   2.373   4.448   7.183  0.1277 -0.4246  0.1474
  433TIP3    H125494   2.437   4.421   7.117  0.0685 -0.4079  0.0829
  433TIP3    H225495   2.289   4.419   7.147  0.2639 -1.9543  1.0066
  434TIP3   OH225496   5.861   1.115   9.392 -0.1740  0.2273  0.1319
  434TIP3    H125497   5.853   1.062   9.472 -2.2373  0.7713  0.3452
  434TIP3    H225498   5.799   1.186   9.405  1.6298  2.0493 -0.7053
  435TIP3   OH225499   6.901   0.817   9.265  0.0387  0.0023 -0.0092
  435TIP3    H125500   6.825   0.857   9.221 -0.5655 -1.0617  0.0372
  435TIP3    H225501   6.952   0.778   9.194  0.0181 -0.1387  0.0529
  436TIP3   OH225502   7.227   6.255   8.715  0.0083  0.1391  0.4517
  436TIP3    H125503   7.294   6.297   8.770  0.2150 -1.3610  1.3815
  436TIP3    H225504   7.273   6.186   8.669 -0.5119  0.3508 -0.4040
  437TIP3   OH225505   1.062   2.722   2.870  0.0380  0.5112  0.2046
  437TIP3    H125506   1.034   2.655   2.808 -2.2950  0.5589  1.1328
  437TIP3    H225507   1.107   2.673   2.939  0.2387  0.1586 -0.1726
  438TIP3   OH225508   1.856   6.952   9.635  0.0392 -0.0328  0.1888
  438TIP3    H125509   1.828   6.886   9.571  0.1418 -2.3695  2.4252
  438TIP3    H225510   1.946   6.973   9.609 -0.6674  0.8860 -1.7705
  439TIP3   OH225511   3.483   5.392   8.593  0.2000 -0.5019 -0.3975
  439TIP3    H125512   3.469   5.325   8.527  0.9070 -0.3101 -0.7536
  439TIP3    H225513   3.505   5.471   8.543  1.7442 -0.5972  0.0749
  440TIP3   OH225514   2.386   1.835   7.913 -0.3177 -0.0885  0.4179
  440TIP3    H125515   2.330   1.818   7.989 -1.6872  0.3371 -0.4497
  440TIP3    H225516   2.325   1.834   7.839  0.9912 -0.5305 -0.6787
  441TIP3   OH225517   3.132   3.161   9.739 -0.4115  0.1221 -0.1981
  441TIP3    H125518   3.200   3.168   9.672  0.1030 -0.6063  0.2384
  441TIP3    H225519   3.080   3.086   9.712 -2.1587  1.6823 -1.4919
  442TIP3   OH225520   1.601   0.629   8.285 -0.3276 -0.0458 -0.4521
  442TIP3    H125521   1.644   0.663   8.206 -0.2594  1.6492  0.2762
  442TIP3    H225522   1.509   0.623   8.260 -0.1544 -0.5716 -0.9964
  443TIP3   OH225523   0.397   7.009   0.257 -0.6489  0.2269  0.4037
  443TIP3    H125524   0.444   6.967   0.329 -0.1621 -3.3783 -1.7352
  443TIP3    H225525   0.464   7.021   0.189 -1.9389 -1.4655 -1.2931
  444TIP3   OH225526   3.394   6.838   0.656 -0.2100  0.4953 -0.1383
  444TIP3    H125527   3.355   6.925   0.666 -0.7289  0.3454 -0.7357
  444TIP3    H225528   3.488   6.853   0.657 -0.2355  1.4553 -2.8979
  445TIP3   OH225529   2.448   5.033   9.697  0.0063  0.3265 -0.1453
  445TIP3    H125530   2.531   5.057   9.739 -0.4453  2.8966 -0.5486
  445TIP3    H225531   2.471   5.020   9.605 -0.2112  2.8044 -0.6272
  446TIP3   OH225532   4.042   0.054   0.479 -0.1451 -0.2912 -0.0571
  446TIP3    H125533   4.115   0.017   0.528 -0.6079 -0.4536  0.5167
  446TIP3    H225534   3.966   0.045   0.537 -0.5370  0.2833 -0.4609
  447TIP3   OH225535   5.137   0.988   8.776 -0.5852 -0.1807  0.6743
  447TIP3    H125536   5.232   0.979   8.761 -0.6338  1.1821 -0.7625
  447TIP3    H225537   5.109   0.902   8.806  0.7752 -1.2384 -0.9331
  448TIP3   OH225538   3.939   4.698   7.414 -0.0769 -0.0711 -0.5610
  448TIP3    H125539   3.888   4.618   7.401 -0.2202 -0.0727 -0.0225
  448TIP3    H225540   3.992   4.706   7.335 -0.5979 -0.3003 -0.9336
  449TIP3   OH225541   5.746   7.261   1.111  0.4206  0.3163  1.1726
  449TIP3    H125542   5.657   7.260   1.076  0.1400  0.9311  1.8557
  449TIP3    H225543   5.781   7.174   1.089  0.4520  0.8402 -1.0885
  450TIP3   OH225544   6.152   3.524   9.092  0.2784  0.4814 -0.3598
  450TIP3    H125545   6.134   3.616   9.110 -1.3162  0.0207  0.6656
  450TIP3    H225546   6.086   3.500   9.026 -1.1678 -0.5500  1.3567
  451TIP3   OH225547   1.180   2.154   0.877  0.2563 -0.2046  0.2995
  451TIP3    H125548   1.207   2.063   0.869  1.3436  0.1587 -0.3186
  451TIP3    H225549   1.084   2.151   0.878  0.2645 -1.2798 -0.7382
  452TIP3   OH225550   0.370   4.659   3.004 -0.1874  0.1801 -0.0435
  452TIP3    H125551   0.337   4.577   2.969 -0.6806 -0.0917  1.0202
  452TIP3    H225552   0.447   4.634   3.055 -0.4043  0.3623  0.3743
  453TIP3   OH225553   1.385   1.985   0.406  0.2259  0.3381  0.1343
  453TIP3    H125554   1.306   1.985   0.352 -1.9659 -1.1633  3.0156
  453TIP3    H225555   1.440   1.916   0.368 -0.4794  0.4317 -1.0961
  454TIP3   OH225556   6.373   1.882   0.004  0.6626 -0.3742  0.5517
  454TIP3    H125557   6.423   1.819  -0.047 -0.2872 -1.2249  0.6501
  454TIP3    H225558   6.285   1.844   0.010  0.4108  0.3492  1.6945
  455TIP3   OH225559   1.905   5.324   0.098  0.6317  0.0635 -0.2772
  455TIP3    H125560   1.861   5.242   0.078  1.2697  0.1285 -2.2201
  455TIP3    H225561   1.841   5.375   0.147 -0.8041 -0.5255 -1.4870
  456TIP3   OH225562   3.449   3.378   1.728  0.3934 -0.6372  0.6633
  456TIP3    H125563   3.497   3.343   1.803 -1.5100 -2.2546  1.2547
  456TIP3    H225564   3.365   3.407   1.765  0.1752  0.3620 -0.5584
  457TIP3   OH225565   0.736   2.800   1.562  0.3301  0.8309 -0.6730
  457TIP3    H125566   0.669   2.859   1.597 -0.3847  0.8495 -2.0079
  457TIP3    H225567   0.819   2.839   1.589 -0.1504  0.0917  2.1714
  458TIP3   OH225568   3.323   5.280   9.607 -0.1479  0.2295 -0.0992
  458TIP3    H125569   3.339   5.223   9.682 -0.3606  0.6609  0.2801
  458TIP3    H225570   3.338   5.225   9.531 -0.4006 -0.3456  0.2628
  459TIP3   OH225571   5.280   4.923   0.316  0.3992  0.1061 -0.2533
  459TIP3    H125572   5.357   4.867   0.327  1.7246  1.3463 -2.3095
  459TIP3    H225573   5.207   4.863   0.303  1.5141 -1.1614 -0.9312
  460TIP3   OH225574   6.376   4.891   8.118 -0.4953  0.2721 -0.2599
  460TIP3    H125575   6.392   4.934   8.034  0.8298  0.9774  0.3120
  460TIP3    H225576   6.421   4.946   8.182 -1.3229 -0.3507  0.8903
  461TIP3   OH225577   2.666   1.119   9.317  0.3879 -0.1650 -0.3169
  461TIP3    H125578   2.758   1.101   9.339  0.3787 -0.0433 -0.1789
  461TIP3    H225579   2.656   1.084   9.229  0.0167 -2.0450  0.4241
  462TIP3   OH225580   4.508   5.238   2.036 -0.1713 -0.0470 -0.2584
  462TIP3    H125581   4.439   5.186   1.997 -0.7136  0.8082 -0.4726
  462TIP3    H225582   4.555   5.276   1.962  0.1010 -0.0830 -0.1067
  463TIP3   OH225583   2.819   3.624   1.426  0.3026 -0.4842  0.6653
  463TIP3    H125584   2.764   3.691   1.385 -0.9255 -1.2855  0.9381
  463TIP3    H225585   2.869   3.671   1.492 -0.0872  0.2755  0.4302
  464TIP3   OH225586   1.255   5.488   2.449  0.0850  0.2798 -0.3773
  464TIP3    H125587   1.230   5.404   2.411  1.8994 -1.1233  1.3157
  464TIP3    H225588   1.185   5.508   2.511 -0.1683 -0.1518 -0.5213
  465TIP3   OH225589   5.386   2.076   8.807  0.2996  0.0357  0.2018
  465TIP3    H125590   5.303   2.114   8.837  0.7958  1.2356  0.0842
  465TIP3    H225591   5.453   2.124   8.855  0.9547 -0.7675  0.1166
  466TIP3   OH225592   0.574   3.865   7.664  0.3135 -0.2115  0.1697
  466TIP3    H125593   0.622   3.933   7.711  0.8317  0.2485 -0.9947
  466TIP3    H225594   0.498   3.911   7.627 -0.3564 -0.6718  0.9297
  467TIP3   OH225595   4.506   3.021   8.752  0.2285  0.1770  0.1499
  467TIP3    H125596   4.588   3.067   8.735  0.0189 -0.3282 -2.5177
  467TIP3    H225597   4.442   3.091   8.768 -0.0746  0.9970 -3.8068
  468TIP3   OH225598   5.577   6.598   8.510  0.2529 -0.3051 -0.0435
  468TIP3    H125599   5.488   6.594   8.545 -0.0018  0.8065 -0.5030
  468TIP3    H225600   5.569   6.651   8.430  0.8819 -2.4008 -1.6020
  469TIP3   OH225601   2.879   7.340   0.340 -0.8298 -0.1218 -0.1544
  469TIP3    H125602   2.921   7.389   0.411 -0.6576  0.7254 -0.8300
  469TIP3    H225603   2.864   7.253   0.377 -0.0376  0.0771  0.6694
  470TIP3   OH225604   3.245   3.160   1.254  0.5771 -0.5086  0.8563
  470TIP3    H125605   3.288   3.210   1.184 -1.2927 -0.7906 -0.5617
  470TIP3    H225606   3.254   3.216   1.332  1.3630  0.5294  0.0564
  471TIP3   OH225607   1.975   7.199   0.265  0.8565 -0.7561  0.1243
  471TIP3    H125608   2.028   7.277   0.250 -0.7755  0.6312  1.2147
  471TIP3    H225609   1.955   7.167   0.177 -0.1726  1.3084 -0.4677
  472TIP3   OH225610   5.892   2.712   9.875  0.3983  0.2328 -0.1035
  472TIP3    H125611   5.821   2.745   9.930 -0.1318  2.8002 -2.1107
  472TIP3    H225612   5.963   2.692   9.936 -1.0347  0.3545  1.6979
  473TIP3   OH225613   1.484   6.283   8.011  0.2121  0.1541 -0.0232
  473TIP3    H125614   1.476   6.330   7.928  0.0878 -0.2828 -0.2630
  473TIP3    H225615   1.538   6.340   8.066 -0.1243  0.6776 -0.2295
  474TIP3   OH225616   1.287   4.314   0.744  1.2991  0.8456 -0.3120
  474TIP3    H125617   1.256   4.399   0.713  0.3735  0.4219 -0.5680
  474TIP3    H225618   1.352   4.287   0.679  1.6911  1.4032 -0.1652
  475TIP3   OH225619   6.662   5.349   2.328  0.8855 -0.2353  0.0227
  475TIP3    H125620   6.724   5.306   2.269  3.0027  0.7012  1.4724
  475TIP3    H225621   6.709   5.425   2.362 -1.3635  1.0117  0.5715
  476TIP3   OH225622   3.640   1.325   8.674 -0.2118  0.2835 -0.7619
  476TIP3    H125623   3.698   1.276   8.732  1.3484  2.5623 -0.2492
  476TIP3    H225624   3.664   1.296   8.586  1.1568  0.5734 -0.5080
  477TIP3   OH225625   0.672   0.704   2.107  1.1248  0.0371 -0.2574
  477TIP3    H125626   0.644   0.777   2.052  1.1192  0.1809 -0.0650
  477TIP3    H225627   0.689   0.744   2.193 -0.4747 -0.4286  0.3237
  478TIP3   OH225628   1.295   5.792   9.115  0.1690 -0.0093  0.1435
  478TIP3    H125629   1.349   5.738   9.056  0.2305 -1.6392  1.6104
  478TIP3    H225630   1.347   5.870   9.130  1.0479 -0.4709 -0.3739
  479TIP3   OH225631   0.025   1.833   7.214 -0.0572 -0.9449 -0.1392
  479TIP3    H125632   0.115   1.813   7.187 -0.1081 -1.1386 -0.1662
  479TIP3    H225633   0.031   1.847   7.308  0.2512  0.4483 -0.3335
  480TIP3   OH225634   6.767   4.227   0.843  0.3938 -0.2782  0.6312
  480TIP3    H125635   6.683   4.271   0.850  0.9231  0.6875  1.1873
  480TIP3    H225636   6.786   4.224   0.749 -0.0037  0.0029  0.5431
  481TIP3   OH225637   2.843   3.510   9.833  0.2094 -0.3263 -0.4288
  481TIP3    H125638   2.924   3.478   9.794 -0.5154 -0.7232 -1.6900
  481TIP3    H225639   2.795   3.431   9.857 -0.0451 -0.1092 -0.2259
  482TIP3   OH225640   3.073   1.847   0.535  0.5177 -0.2228 -0.5198
  482TIP3    H125641   3.123   1.794   0.598 -0.9748  0.5556  1.4491
  482TIP3    H225642   3.004   1.788   0.503  0.7774 -0.3796 -0.7940
  483TIP3   OH225643   3.662   1.136   9.673  0.0423 -0.0354  0.3081
  483TIP3    H125644   3.705   1.089   9.602 -0.7598 -0.0537 -0.1654
  483TIP3    H225645   3.609   1.070   9.717  1.2013 -0.2294  1.4882
  484TIP3   OH225646   7.393   5.836   9.093  0.0242 -0.4181  0.0459
  484TIP3    H125647   7.376   5.743   9.086  0.5033 -0.4046 -1.5704
  484TIP3    H225648   7.482   5.847   9.060  0.8781  0.3357  2.3773
  485TIP3   OH225649   7.657   5.635   8.180  0.4267 -0.2063 -0.1744
  485TIP3    H125650   7.707   5.577   8.123  1.6875  1.1135 -0.4690
  485TIP3    H225651   7.574   5.648   8.135  0.8655 -0.2932 -1.0312
  486TIP3   OH225652   1.688   2.768   0.160  0.0740  0.0830 -0.0228
  486TIP3    H125653   1.773   2.779   0.203  0.3613 -2.6171  0.2244
  486TIP3    H225654   1.709   2.759   0.067 -0.0783  0.5395 -0.1072
  487TIP3   OH225655   2.627   2.096   7.707  0.1674  0.4601  0.1691
  487TIP3    H125656   2.539   2.094   7.670 -0.2727 -0.9490  1.2179
  487TIP3    H225657   2.626   2.171   7.766 -0.2102  0.6580 -0.0839
  488TIP3   OH225658   5.375   6.723   7.752 -1.3255  0.1615 -0.1956
  488TIP3    H125659   5.422   6.784   7.694 -2.5435  1.0643 -0.2777
  488TIP3    H225660   5.282   6.736   7.730 -1.6812 -0.9386  0.5730
  489TIP3   OH225661   2.254   0.956   1.483  0.0111 -0.4234  0.2395
  489TIP3    H125662   2.212   0.871   1.472  0.6224 -0.9659  1.7710
  489TIP3    H225663   2.201   1.001   1.549 -0.0443  0.2023 -0.2236
  490TIP3   OH225664   1.248   5.039   0.072 -0.3554  0.1093 -0.0421
  490TIP3    H125665   1.282   4.984   0.001 -0.9981 -1.7266  1.0273
  490TIP3    H225666   1.201   4.979   0.129 -1.8536  1.9175  0.7334
  491TIP3   OH225667   3.342   2.717   9.611 -0.8023  0.2971  0.1852
  491TIP3    H125668   3.327   2.787   9.674 -1.2456 -0.2865  0.7455
  491TIP3    H225669   3.259   2.669   9.607 -0.3880 -0.4446  0.1430
  492TIP3   OH225670   3.387   3.442   9.764 -0.6893  0.2593 -0.6530
  492TIP3    H125671   3.292   3.435   9.752 -1.0792 -1.9480  2.4261
  492TIP3    H225672   3.423   3.364   9.722 -0.6970 -0.7027  1.0241
  493TIP3   OH225673   0.928   7.470   9.872 -0.4541  0.5605  0.0472
  493TIP3    H125674   0.858   7.408   9.894  0.4616 -0.4090  0.2966
  493TIP3    H225675   0.984   7.472   9.950  0.3883  0.4882 -0.5432
  494TIP3   OH225676   4.288   7.095   9.150 -0.3016  0.5300  0.0534
  494TIP3    H125677   4.311   7.069   9.061 -0.0220  0.6794  0.0840
  494TIP3    H225678   4.227   7.168   9.139 -2.1484 -0.9518 -0.0707
  495TIP3   OH225679   0.725   3.095   9.652 -0.4726 -0.1659 -0.3046
  495TIP3    H125680   0.785   3.032   9.611 -1.4114 -1.3054  0.0271
  495TIP3    H225681   0.681   3.045   9.721  0.3812  1.4607  1.5119
  496TIP3   OH225682   4.666   1.663   8.490  0.0288 -0.0678  0.1841
  496TIP3    H125683   4.700   1.721   8.559  1.2433 -0.4760 -0.0370
  496TIP3    H225684   4.580   1.699   8.469 -0.0298  0.5477  1.3468
  497TIP3   OH225685   2.852   5.449   2.979 -0.3251 -0.3436  0.4917
  497TIP3    H125686   2.898   5.392   2.918  0.0756 -1.5774  1.8963
  497TIP3    H225687   2.875   5.416   3.065  1.9172  3.4139  1.5535
  498TIP3   OH225688   5.687   3.707   9.138 -0.1511 -0.2316 -0.3604
  498TIP3    H125689   5.681   3.641   9.069 -0.2917 -1.0565  0.4141
  498TIP3    H225690   5.597   3.730   9.157 -0.1774 -0.7929  0.2581
  499TIP3   OH225691   0.015   5.295   7.890 -0.2261  0.0888 -0.0802
  499TIP3    H125692   0.016   5.206   7.924 -0.2153  0.8858  2.2116
  499TIP3    H225693   0.101   5.331   7.914 -1.0346  1.3633  1.1133
  500TIP3   OH225694   1.882   4.384   6.108 -0.8594 -0.0554 -0.2812
  500TIP3    H125695   1.887   4.429   6.023  0.3238 -2.0457 -1.3474
  500TIP3    H225696   1.866   4.454   6.171 -1.5495  1.5328 -2.1017
  501TIP3   OH225697   1.754   7.551   2.131 -0.2770  0.1958 -0.0813
  501TIP3    H125698   1.813   7.491   2.087  0.9888  0.5644  1.0178
  501TIP3    H225699   1.781   7.638   2.101 -2.9818  0.2486 -2.7191
  502TIP3   OH225700   3.482   1.268   0.987 -0.4065  0.1714  0.4227
  502TIP3    H125701   3.492   1.349   1.036  1.0471  0.9116 -1.0089
  502TIP3    H225702   3.555   1.267   0.925 -0.6659 -1.9905  0.0412
  503TIP3   OH225703   1.902   5.652   0.842 -0.1511  0.2745  0.0464
  503TIP3    H125704   1.938   5.740   0.839 -1.4500  0.8169 -0.1680
  503TIP3    H225705   1.961   5.603   0.899 -0.2946  1.6905  1.4590
  504TIP3   OH225706   2.450   4.659   7.763 -0.4002  0.0881  0.2332
  504TIP3    H125707   2.405   4.722   7.818  2.1278  0.5600  1.9387
  504TIP3    H225708   2.443   4.576   7.811 -0.1090  0.0104  0.1454
  505TIP3   OH225709   0.606   3.128   9.029  0.9112  0.3523  0.0205
  505TIP3    H125710   0.601   3.194   9.098  0.0919 -0.6162  0.9269
  505TIP3    H225711   0.692   3.141   8.989  0.3714  2.6335 -0.5383
  506TIP3   OH225712   3.542   6.720   2.505 -0.5321  0.4547 -0.1738
  506TIP3    H125713   3.607   6.788   2.488 -0.5243  0.4865 -0.0178
  506TIP3    H225714   3.528   6.723   2.599 -0.7954  0.4776 -0.2141
  507TIP3   OH225715   0.573   1.229   8.462  0.0864 -0.0425  0.5608
  507TIP3    H125716   0.598   1.262   8.549  1.2881  4.0129 -1.0814
  507TIP3    H225717   0.616   1.288   8.401 -0.5431 -2.8423 -2.8982
  508TIP3   OH225718   3.093   1.095   9.667  0.2457  0.0576 -0.0198
  508TIP3    H125719   3.149   1.129   9.597  1.0332  0.5756  0.8381
  508TIP3    H225720   3.092   1.000   9.653  1.3436  0.0398 -0.0622
  509TIP3   OH225721   2.050   5.669   2.397  0.7270 -0.1267 -0.4687
  509TIP3    H125722   1.955   5.663   2.394  0.4339  2.5830  0.7721
  509TIP3    H225723   2.077   5.596   2.453 -0.8067  0.1877  0.7553
  510TIP3   OH225724   5.652   6.794   9.611  0.1756 -0.2310 -0.2294
  510TIP3    H125725   5.625   6.776   9.701  2.0466  0.7964  0.5909
  510TIP3    H225726   5.655   6.708   9.569  0.1029 -0.8214  0.9372
  511TIP3   OH225727   3.222   7.615   0.924 -0.3567 -0.6633  0.6359
  511TIP3    H125728   3.224   7.703   0.886  0.1274  0.4834  3.1004
  511TIP3    H225729   3.304   7.574   0.895 -0.6891 -0.4158 -0.7162
  512TIP3   OH225730   0.684   1.053   7.326 -0.4949  0.0866 -0.0316
  512TIP3    H125731   0.659   0.962   7.307  0.8210  0.0216 -1.6770
  512TIP3    H225732   0.657   1.066   7.417 -0.8386 -1.9086  0.2128
  513TIP3   OH225733   2.957   7.608   1.650 -0.7382 -0.7802  0.0793
  513TIP3    H125734   2.994   7.689   1.684 -1.6173 -0.7167  0.9078
  513TIP3    H225735   2.965   7.616   1.555 -0.3119  0.0269  0.1793
  514TIP3   OH225736   2.465   1.349   2.318 -0.5591 -0.1432 -0.0736
  514TIP3    H125737   2.392   1.292   2.341 -0.9175  0.2654 -0.1782
  514TIP3    H225738   2.520   1.350   2.397 -1.0895  0.1817  0.3063
  515TIP3   OH225739   1.239   5.916   2.210 -0.3474  0.2675 -0.1590
  515TIP3    H125740   1.245   5.829   2.172 -0.2468  1.0574 -2.0911
  515TIP3    H225741   1.317   5.924   2.265 -1.1073 -1.3529  1.2396
  516TIP3   OH225742   0.698   5.516   0.290  0.8190 -0.8381 -0.0404
  516TIP3    H125743   0.618   5.528   0.341  0.8208  0.3004 -0.2608
  516TIP3    H225744   0.702   5.594   0.235  3.0079  0.0487  1.2422
  517TIP3   OH225745   0.058   5.775   0.858  0.1061  0.4036  0.0558
  517TIP3    H125746   0.096   5.853   0.897 -1.2855 -0.1542  2.7482
  517TIP3    H225747  -0.034   5.797   0.845  0.3598  0.3124 -2.4274
  518TIP3   OH225748   0.542   0.613   7.878 -0.3126 -0.2308  0.2408
  518TIP3    H125749   0.532   0.571   7.964 -4.6958  1.9696  1.1038
  518TIP3    H225750   0.557   0.705   7.898 -2.9730  0.6250 -1.1167
  519TIP3   OH225751   3.999   4.830   0.842 -0.3066 -0.1478  0.1017
  519TIP3    H125752   4.066   4.879   0.794 -0.5054  0.2425  0.2120
  519TIP3    H225753   3.921   4.886   0.836 -0.3557 -0.1346  0.8108
  520TIP3   OH225754   0.150   4.461   0.979  0.4057  0.4214  0.1968
  520TIP3    H125755   0.191   4.381   0.948  1.8581  0.8291  0.9692
  520TIP3    H225756   0.091   4.433   1.049 -0.6802 -0.1702 -0.9177
  521TIP3   OH225757   3.949   1.261   2.135  0.3943  0.1660 -0.2713
  521TIP3    H125758   3.948   1.176   2.091 -0.7788 -0.0033  0.0285
  521TIP3    H225759   4.039   1.291   2.130  0.8726 -1.2069 -0.1783
  522TIP3   OH225760   7.442   1.173   0.578 -0.2323 -0.7468 -0.2459
  522TIP3    H125761   7.469   1.092   0.534  0.5066 -0.7478  0.1886
  522TIP3    H225762   7.508   1.237   0.555  0.1857 -0.7523  0.8530
  523TIP3   OH225763   4.510   5.857   7.981  0.3613 -0.1525 -0.0785
  523TIP3    H125764   4.460   5.790   7.935 -0.7544  0.4682  0.1864
  523TIP3    H225765   4.445   5.923   8.005  1.4203  1.0061 -0.2914
  524TIP3   OH225766   1.625   6.123   8.904  0.2328 -0.1976  0.1867
  524TIP3    H125767   1.564   6.183   8.861  0.9037  1.0722  0.9463
  524TIP3    H225768   1.710   6.144   8.866  0.9920  1.5328  2.5861
  525TIP3   OH225769   5.085   3.086   1.545  0.1052  0.2697 -0.1337
  525TIP3    H125770   5.108   3.093   1.453 -1.9257 -1.7874 -0.8937
  525TIP3    H225771   5.100   2.994   1.567  0.5674  0.7142  1.6315
  526TIP3   OH225772   6.506   5.533   1.064 -0.2398 -0.2434 -0.0877
  526TIP3    H125773   6.459   5.519   1.146  1.0068 -0.2829  0.6490
  526TIP3    H225774   6.437   5.547   0.998 -1.4725 -3.8984  0.1875
  527TIP3   OH225775   1.696   6.466   2.958 -0.3183  0.5652 -0.4819
  527TIP3    H125776   1.746   6.454   3.038 -2.1412  0.6328  0.7306
  527TIP3    H225777   1.644   6.545   2.974  0.9147  1.9428 -2.6585
  528TIP3   OH225778   0.660   5.722   1.268 -0.4460 -0.5541 -0.1211
  528TIP3    H125779   0.615   5.735   1.184 -0.6654 -1.2944 -0.1188
  528TIP3    H225780   0.684   5.630   1.268 -1.8348 -0.9469  1.3164
  529TIP3   OH225781   3.374   5.847   9.955  0.3059 -0.1691 -0.0944
  529TIP3    H125782   3.401   5.761   9.985  0.3881 -0.0795  0.0917
  529TIP3    H225783   3.279   5.843   9.950  0.2353  0.0528  0.9159
  530TIP3   OH225784   6.468   3.181   0.291 -0.6040 -0.3094  0.3815
  530TIP3    H125785   6.446   3.121   0.220 -0.1549  1.0380 -0.9448
  530TIP3    H225786   6.560   3.162   0.310 -0.6528 -0.5004  0.4306
  531TIP3   OH225787   3.218   0.674   7.961  0.3678  0.4329  0.1064
  531TIP3    H125788   3.282   0.636   8.022 -0.5328  0.9581  1.4195
  531TIP3    H225789   3.174   0.742   8.012 -2.1281 -0.7435 -0.3164
  532TIP3   OH225790   0.775   5.106   8.382 -0.4025  0.3972  0.4775
  532TIP3    H125791   0.720   5.095   8.460 -1.8281 -0.1010 -0.5515
  532TIP3    H225792   0.730   5.171   8.329  0.5216  0.6961  0.0290
  533TIP3   OH225793   3.212   5.197   9.136 -0.7563 -0.0890 -0.3248
  533TIP3    H125794   3.199   5.194   9.041  0.1355  0.5699 -0.4776
  533TIP3    H225795   3.226   5.290   9.155 -1.2845 -0.1712  0.5063
  534TIP3   OH225796   2.225   6.249   1.088  0.2520  0.2987  0.4877
  534TIP3    H125797   2.307   6.227   1.043  0.1113  1.2981 -0.2881
  534TIP3    H225798   2.168   6.284   1.019 -0.8246 -0.3407  1.0263
  535TIP3   OH225799   4.184   5.977   0.130  0.0416  0.2816 -0.6127
  535TIP3    H125800   4.256   6.016   0.180 -0.1213  0.1020 -0.2362
  535TIP3    H225801   4.107   5.994   0.184 -0.3639  1.4372 -1.5291
  536TIP3   OH225802   4.697   3.569   9.544  0.5104  0.3293  0.1485
  536TIP3    H125803   4.663   3.485   9.513  1.3975  0.2588 -0.6748
  536TIP3    H225804   4.726   3.614   9.465 -0.5594  1.7052  0.5089
  537TIP3   OH225805   5.352   0.626   0.430  0.1104 -0.2624 -0.2986
  537TIP3    H125806   5.362   0.540   0.469  0.2646 -0.8676 -1.6260
  537TIP3    H225807   5.401   0.622   0.348 -2.5686 -0.0377 -2.0390
  538TIP3   OH225808   7.252   6.603   7.815  0.0198 -0.8358 -0.2420
  538TIP3    H125809   7.345   6.591   7.835 -0.1664 -0.3005  1.0566
  538TIP3    H225810   7.215   6.515   7.820  0.4561 -1.0646 -0.8437
  539TIP3   OH225811   2.517   6.154   8.780 -0.0909 -0.1246  0.2072
  539TIP3    H125812   2.451   6.209   8.822 -0.4366 -1.4335  1.4851
  539TIP3    H225813   2.600   6.187   8.813  0.1244  2.3856 -2.4085
  540TIP3   OH225814   3.528   2.570   2.046  0.0964 -0.0032  0.1655
  540TIP3    H125815   3.612   2.596   2.008 -1.4562  0.8903 -2.9867
  540TIP3    H225816   3.483   2.524   1.976 -2.5612  0.6372  1.3237
  541TIP3   OH225817   7.034   5.636   8.263  0.3822  0.0739 -0.1322
  541TIP3    H125818   7.055   5.701   8.330  0.3818  0.2533 -0.3047
  541TIP3    H225819   6.998   5.561   8.312  1.5255 -0.2882  0.1786
  542TIP3   OH225820   1.702   5.514   2.964 -0.3293  0.9890  0.0046
  542TIP3    H125821   1.705   5.602   2.927 -0.5051 -0.0470 -2.7019
  542TIP3    H225822   1.779   5.470   2.929 -0.3139 -0.0146  1.2058
  543TIP3   OH225823   2.436   0.286   8.483 -0.4725  0.2794  0.2529
  543TIP3    H125824   2.416   0.379   8.483 -1.1543  0.1922  2.2046
  543TIP3    H225825   2.425   0.259   8.574 -0.9213 -1.8427 -0.3623
  544TIP3   OH225826   6.026   0.797   9.292  0.5385  0.3554 -0.1174
  544TIP3    H125827   6.110   0.752   9.283  0.1721 -0.2967 -0.3754
  544TIP3    H225828   5.973   0.738   9.346  0.9526  1.7809  1.9279
  545TIP3   OH225829   5.442   7.444   1.702 -0.0636 -0.6058  0.6155
  545TIP3    H125830   5.533   7.417   1.693  0.5360  1.4555  0.1195
  545TIP3    H225831   5.435   7.477   1.792 -0.1690 -0.2160  0.4656
  546TIP3   OH225832   5.168   0.047   1.188  0.4676  0.4853 -0.5560
  546TIP3    H125833   5.097   0.052   1.252 -1.6077 -0.3227 -2.6324
  546TIP3    H225834   5.219  -0.029   1.216  0.6280  1.1330  1.0328
  547TIP3   OH225835   4.311   1.072   1.793  0.5828  0.3815 -0.0523
  547TIP3    H125836   4.246   1.141   1.780  2.1899  1.7169 -1.5738
  547TIP3    H225837   4.273   0.995   1.750 -1.3056  0.1903  1.8050
  548TIP3   OH225838   4.847   6.305   0.516  0.1682  0.2428  0.4359
  548TIP3    H125839   4.919   6.327   0.575  0.6395 -0.8702  0.3022
  548TIP3    H225840   4.888   6.297   0.430 -0.4369  1.3921  0.0137
  549TIP3   OH225841   6.097   3.356   0.636  0.3654 -0.4865 -0.3513
  549TIP3    H125842   6.048   3.411   0.574  0.1805  0.8573  0.9168
  549TIP3    H225843   6.089   3.268   0.601  0.3128  0.2128 -2.2672
  550TIP3   OH225844   2.247   0.563   9.531 -0.1789  0.1196 -0.7211
  550TIP3    H125845   2.320   0.621   9.512  2.3766 -2.8976 -0.8767
  550TIP3    H225846   2.260   0.488   9.474 -3.2586 -0.7599 -0.4795
  551TIP3   OH225847   4.660   3.877   2.267 -0.3197 -0.0105  0.5727
  551TIP3    H125848   4.634   3.963   2.235  1.5974 -0.0463 -1.3012
  551TIP3    H225849   4.671   3.889   2.362 -1.2894  1.4466  0.5351
  552TIP3   OH225850   6.756   2.334   1.483 -0.6238 -0.5279 -0.5101
  552TIP3    H125851   6.753   2.326   1.579  0.2395 -0.8160 -0.4986
  552TIP3    H225852   6.804   2.415   1.467  1.4783 -1.7353 -0.6874
  553TIP3   OH225853   3.334   2.218   1.978  0.0336 -0.1801  0.4289
  553TIP3    H125854   3.393   2.283   1.941 -0.2300 -0.4007 -0.4142
  553TIP3    H225855   3.357   2.213   2.070  1.0105  0.0732  0.2032
  554TIP3   OH225856   3.197   1.586   6.645 -0.0867 -0.3226  0.4142
  554TIP3    H125857   3.263   1.623   6.586  0.5160 -1.4248  0.3693
  554TIP3    H225858   3.238   1.592   6.732  0.5603 -2.0118  0.2536
  555TIP3   OH225859   0.123   5.691   0.220  0.1739 -0.0490  0.8118
  555TIP3    H125860   0.190   5.759   0.217 -0.5761  0.7540  1.7706
  555TIP3    H225861   0.042   5.736   0.196  0.0105 -1.0969 -0.7461
  556TIP3   OH225862   5.425   5.717   0.615 -0.3723  0.1232 -0.7256
  556TIP3    H125863   5.364   5.706   0.542 -0.7276  0.4996 -0.4950
  556TIP3    H225864   5.381   5.779   0.673 -0.5804 -0.9755  0.3307
  557TIP3   OH225865   4.587   7.340   0.466  0.5339  0.0146  0.5762
  557TIP3    H125866   4.606   7.291   0.545  1.4896  1.0355  1.0113
  557TIP3    H225867   4.593   7.432   0.492  0.9168  0.3782 -0.6812
  558TIP3   OH225868   2.181   3.329   9.920  0.0358  0.1972 -0.1555
  558TIP3    H125869   2.102   3.279   9.940  1.7433 -1.7960  2.2446
  558TIP3    H225870   2.197   3.381   9.999  0.7179  1.1985 -0.9234
  559TIP3   OH225871   1.159   1.074   8.173  0.0267 -0.4447 -0.5547
  559TIP3    H125872   1.213   1.005   8.211 -0.8961 -0.6583  0.4107
  559TIP3    H225873   1.177   1.069   8.079  0.8500 -1.2238 -0.3738
  560TIP3   OH225874   7.392   6.470   9.153 -0.4289  0.0354 -0.2334
  560TIP3    H125875   7.314   6.416   9.144 -1.0519  0.8453  0.1285
  560TIP3    H225876   7.381   6.514   9.237  1.3373 -1.2543  0.7437
  561TIP3   OH225877   4.865   2.488   0.212  0.2958  0.0634  0.4949
  561TIP3    H125878   4.856   2.405   0.257 -0.8615  0.5008  1.0912
  561TIP3    H225879   4.849   2.467   0.120  0.5672 -0.4636  0.5649
  562TIP3   OH225880   4.225   7.329   8.558 -0.1554  0.2209 -0.4988
  562TIP3    H125881   4.231   7.245   8.511 -0.0064 -0.9237  1.4582
  562TIP3    H225882   4.146   7.370   8.523  0.0974 -0.4427 -1.9329
  563TIP3   OH225883   1.719   5.387   1.065 -0.1147 -0.0144 -0.5704
  563TIP3    H125884   1.803   5.344   1.083 -0.8047 -0.9830  0.5011
  563TIP3    H225885   1.735   5.479   1.085  0.2442 -0.4600  1.3971
  564TIP3   OH225886   3.521   5.578   8.109  0.0654 -0.0095 -0.3488
  564TIP3    H125887   3.583   5.517   8.070 -0.9658 -0.5769 -1.1394
  564TIP3    H225888   3.576   5.647   8.147  1.3337 -1.8161  1.3481
  565TIP3   OH225889   5.983   2.756   9.310  0.4005  0.0848  0.2406
  565TIP3    H125890   5.899   2.781   9.349  0.5935  3.1987 -0.9915
  565TIP3    H225891   5.969   2.667   9.277 -2.6023  0.6474 -0.3321
  566TIP3   OH225892   4.014   3.335   8.496  0.1121 -0.0586 -0.3340
  566TIP3    H125893   4.108   3.331   8.512  0.0235 -0.0128  0.2071
  566TIP3    H225894   3.989   3.245   8.475 -0.1389 -0.5559  1.9205
  567TIP3   OH225895   4.525   2.762   0.902 -0.2216  0.2841  0.3126
  567TIP3    H125896   4.500   2.854   0.909 -0.2586  0.2541  0.5904
  567TIP3    H225897   4.442   2.715   0.896 -0.2444  0.1733  1.3734
  568TIP3   OH225898   6.602   1.551   1.947  0.1544  0.8583  0.0438
  568TIP3    H125899   6.665   1.517   2.010 -0.4479 -2.2794 -0.8443
  568TIP3    H225900   6.560   1.624   1.991  1.4719  0.3565  2.2772
  569TIP3   OH225901   5.635   1.701   2.321 -0.5417  0.0488 -0.0974
  569TIP3    H125902   5.626   1.736   2.232 -1.4358  0.0428 -0.0121
  569TIP3    H225903   5.719   1.736   2.352  0.0460 -0.3898 -1.1367
  570TIP3   OH225904   3.796   4.480   8.611 -0.3840 -0.3914  0.0207
  570TIP3    H125905   3.864   4.461   8.676  1.9291 -0.0666 -2.1636
  570TIP3    H225906   3.767   4.569   8.632  0.5407 -0.1794  0.4635
  571TIP3   OH225907   1.870   2.945   1.616 -0.6306 -0.4800 -0.2118
  571TIP3    H125908   1.877   2.858   1.578 -1.8060 -0.8833  0.4640
  571TIP3    H225909   1.948   2.954   1.670 -0.3748 -1.0028 -0.4836
  572TIP3   OH225910   3.189   5.893   7.745  0.3259  0.4095 -0.0266
  572TIP3    H125911   3.233   5.962   7.795  1.5798  0.1613 -0.7170
  572TIP3    H225912   3.183   5.930   7.656  0.1550 -0.0000 -0.1839
  573TIP3   OH225913   1.884   2.439   7.587  0.2903 -0.2305  0.1251
  573TIP3    H125914   1.800   2.452   7.630 -0.4249  0.9156 -1.5344
  573TIP3    H225915   1.905   2.524   7.548  1.4179 -0.9344 -0.8845
  574TIP3   OH225916   3.842   5.050   7.088  0.0734  0.4674  0.4650
  574TIP3    H125917   3.846   5.130   7.036  0.6626  1.4234  1.9275
  574TIP3    H225918   3.909   5.062   7.155  0.0198 -1.1662  0.8532
  575TIP3   OH225919   4.275   4.323   9.218 -0.6271  0.1956 -0.1980
  575TIP3    H125920   4.207   4.330   9.284 -0.1515  0.7878  0.2363
  575TIP3    H225921   4.303   4.413   9.201 -0.1451 -0.0152 -0.5700
  576TIP3   OH225922   6.702   0.657   0.609  0.9373  0.0019  0.6695
  576TIP3    H125923   6.672   0.724   0.547  1.0303 -0.6261 -0.0657
  576TIP3    H225924   6.692   0.574   0.561  1.6878 -0.4214  1.2373
  577TIP3   OH225925   6.726   5.313   8.260 -0.4331  0.1649 -0.4578
  577TIP3    H125926   6.702   5.230   8.219 -2.8217  1.3402 -1.6582
  577TIP3    H225927   6.724   5.377   8.189 -2.1591  1.8372  0.9691
  578TIP3   OH225928   4.013   7.118   2.051 -0.6328  0.1249  0.0261
  578TIP3    H125929   4.088   7.078   2.097 -0.9516 -1.2654 -0.5899
  578TIP3    H225930   3.973   7.176   2.116  1.9214  2.2273 -0.1309
  579TIP3   OH225931   0.883   0.669   7.864  0.0560  0.6056  0.3940
  579TIP3    H125932   0.894   0.584   7.821  0.8421  1.4818 -1.2112
  579TIP3    H225933   0.961   0.678   7.919  1.5437  1.5350 -1.7349
  580TIP3   OH225934   0.977   1.587   9.696  0.3036  0.3510  0.2041
  580TIP3    H125935   0.924   1.665   9.708 -1.2286 -0.7307  0.7727
  580TIP3    H225936   0.947   1.550   9.613 -0.0041 -0.3780  0.6298
  581TIP3   OH225937   6.738   5.901   9.349 -0.2138  0.3284  0.0175
  581TIP3    H125938   6.767   5.888   9.259  0.7255  0.9858  0.1962
  581TIP3    H225939   6.755   5.994   9.366  1.4569 -0.1762  1.4580
  582TIP3   OH225940   4.280   1.228   7.856 -0.0221  0.0925  0.0509
  582TIP3    H125941   4.367   1.189   7.865  0.4992  1.5865  2.0203
  582TIP3    H225942   4.297   1.322   7.851 -1.5266  0.4038  0.5550
  583TIP3   OH225943   4.798   3.292   2.532 -0.7696 -0.2003 -0.7897
  583TIP3    H125944   4.720   3.240   2.552 -0.4636 -0.2963  0.2246
  583TIP3    H225945   4.779   3.332   2.447 -2.1731  0.2340 -0.3147
  584TIP3   OH225946   2.885   7.308   2.098  0.0044  0.6671  0.2064
  584TIP3    H125947   2.877   7.321   2.003 -0.4792  0.3846  0.2036
  584TIP3    H225948   2.866   7.393   2.136  1.4774  1.1080  0.0002
  585TIP3   OH225949   5.740   4.694   0.982  0.1048  0.1899 -0.3899
  585TIP3    H125950   5.801   4.636   1.027 -1.0521 -0.7044  0.1021
  585TIP3    H225951   5.787   4.777   0.973  1.6669 -0.7012 -0.7610
  586TIP3   OH225952   2.506   2.625   8.997  0.1628  0.0763 -0.3533
  586TIP3    H125953   2.449   2.604   9.070 -1.5319 -0.9593 -1.8764
  586TIP3    H225954   2.592   2.592   9.023 -0.8419 -2.1447  0.3887
  587TIP3   OH225955   3.927   2.141   8.264 -0.0137  0.4036  0.8405
  587TIP3    H125956   4.006   2.139   8.209 -0.8174  0.1098 -0.3407
  587TIP3    H225957   3.870   2.075   8.225 -0.7985  0.5307  1.7558
  588TIP3   OH225958   0.117   1.449   8.230 -0.3172  0.6702  0.3027
  588TIP3    H125959   0.189   1.407   8.277  0.4531  1.3886 -0.1984
  588TIP3    H225960   0.160   1.497   8.159 -0.9832  3.3908  1.6038
  589TIP3   OH225961   0.647   1.230   1.815 -0.3036 -0.0165 -0.1888
  589TIP3    H125962   0.633   1.325   1.810 -0.0101 -0.0210 -1.6649
  589TIP3    H225963   0.663   1.212   1.907  0.6937  1.5260 -0.0391
  590TIP3   OH225964   2.486   3.547   0.029 -0.0443 -0.1791  0.1483
  590TIP3    H125965   2.511   3.500   0.108  1.1536 -0.3167 -0.2841
  590TIP3    H225966   2.398   3.579   0.046 -0.1931 -1.0679  1.1365
  591TIP3   OH225967   5.198   3.594   1.342  0.8802  0.5996  0.8032
  591TIP3    H125968   5.173   3.682   1.371  2.3488  1.3019  0.0307
  591TIP3    H225969   5.132   3.572   1.276  0.8062  1.3498  0.6106
  592TIP3   OH225970   6.941   3.533   0.441 -0.1682 -0.1607 -0.0092
  592TIP3    H125971   6.849   3.512   0.456  0.1992 -2.0974 -0.1585
  592TIP3    H225972   6.986   3.449   0.447  1.8235  0.9247  1.5654
  593TIP3   OH225973   3.364   7.539   2.717 -0.2361 -0.1803  0.0632
  593TIP3    H125974   3.355   7.444   2.718  0.9921 -0.3030  0.5988
  593TIP3    H225975   3.457   7.555   2.700 -0.3511  0.9148  0.3718
  594TIP3   OH225976   5.474   4.642   1.064 -1.3586  0.1857  0.0589
  594TIP3    H125977   5.489   4.576   1.132 -1.0855 -1.4663 -1.5287
  594TIP3    H225978   5.560   4.681   1.051 -1.4790  0.7460  0.8698
  595TIP3   OH225979   5.481   3.906   1.578 -0.0072 -0.0927  0.7452
  595TIP3    H125980   5.557   3.854   1.552  0.7447  0.8335  1.0129
  595TIP3    H225981   5.519   3.989   1.610 -1.1680  0.7226  0.0710
  596TIP3   OH225982   3.915   0.190   8.570  0.1121 -0.5984 -0.2789
  596TIP3    H125983   3.955   0.228   8.492  0.9216 -0.0576  0.3823
  596TIP3    H225984   3.852   0.256   8.599  1.7379  0.4297  1.0461
  597TIP3   OH225985   3.396   2.289   9.312 -0.5043  0.3597  0.2437
  597TIP3    H125986   3.424   2.281   9.403  0.2244 -0.4824 -0.0369
  597TIP3    H225987   3.396   2.383   9.294 -1.0283  0.5562  1.2141
  598TIP3   OH225988   0.315   5.614   3.068  0.5026 -0.3764 -0.2338
  598TIP3    H125989   0.290   5.569   2.987 -0.2874 -2.2569  0.9833
  598TIP3    H225990   0.272   5.564   3.137  1.8436  0.6538  1.4236
  599TIP3   OH225991   5.462   7.475   0.598 -0.0195 -0.4944 -0.1227
  599TIP3    H125992   5.499   7.529   0.668 -2.5291  2.1970 -0.7305
  599TIP3    H225993   5.538   7.450   0.544  1.3887  1.3099  0.9301
  600TIP3   OH225994   0.821   5.253   9.823  0.0422  1.0083  0.7920
  600TIP3    H125995   0.897   5.201   9.798 -1.0682  0.0936 -0.8096
  600TIP3    H225996   0.803   5.227   9.914 -0.0905 -0.9177  0.2455
  601TIP3   OH225997   2.054   6.423   9.287  0.0627 -0.6589  0.1551
  601TIP3    H125998   2.016   6.500   9.246 -2.1231 -2.1179 -0.7757
  601TIP3    H225999   2.117   6.390   9.223  0.7330  0.1193  0.4010
  602TIP3   OH226000   3.685   4.784   9.955  0.2925  0.5600  0.0738
  602TIP3    H126001   3.657   4.761   9.867  0.8944  0.5914 -0.1279
  602TIP3    H226002   3.610   4.831   9.992 -0.1380  0.1352 -0.2516
  603TIP3   OH226003   3.424   0.844   0.728  0.4069  0.4132  0.0293
  603TIP3    H126004   3.414   0.820   0.820  1.3133  0.1802  0.0778
  603TIP3    H226005   3.423   0.760   0.682 -0.3496  0.5466 -0.2192
  604TIP3   OH226006   1.098   2.857   8.675  0.1782 -0.2322  0.1549
  604TIP3    H126007   1.169   2.794   8.687 -0.0693 -0.3402  1.0591
  604TIP3    H226008   1.118   2.927   8.737 -0.4608 -0.2272  0.3568
  605TIP3   OH226009   6.764   0.550   1.191 -0.6376  0.6720  0.2344
  605TIP3    H126010   6.744   0.598   1.111 -0.0696  2.5532  1.1443
  605TIP3    H226011   6.706   0.589   1.257 -0.4664 -0.2180  0.9343
  606TIP3   OH226012   7.115   2.228   0.823  0.0909 -0.0659  0.1156
  606TIP3    H126013   7.180   2.169   0.785 -0.5309  0.8784 -2.6036
  606TIP3    H226014   7.042   2.172   0.847  0.4036 -0.6630 -0.3145
  607TIP3   OH226015   6.801   0.202   9.296 -0.5491  0.3076  0.0998
  607TIP3    H126016   6.812   0.293   9.325 -2.1801  0.9480 -1.1271
  607TIP3    H226017   6.884   0.159   9.318  0.9550  2.5231 -0.9092
  608TIP3   OH226018   2.573   6.416   7.045  0.0654  0.0381  0.1924
  608TIP3    H126019   2.543   6.353   6.979  0.2752 -0.8001  0.8882
  608TIP3    H226020   2.639   6.369   7.095  2.9009  1.8960 -1.4931
  609TIP3   OH226021   3.219   3.786   9.022 -0.1102 -0.0711 -0.3503
  609TIP3    H126022   3.221   3.866   9.074 -1.0223 -0.6015  0.5257
  609TIP3    H226023   3.287   3.800   8.955  0.5945  0.9043  0.5342
  610TIP3   OH226024   2.961   6.689   8.845  0.0101 -0.0926  0.4300
  610TIP3    H126025   2.933   6.773   8.882  1.4461  1.3040 -1.4325
  610TIP3    H226026   2.907   6.679   8.767  1.4511  0.3434 -0.6645
  611TIP3   OH226027   6.645   1.360   8.692 -0.3521  0.2218  0.1182
  611TIP3    H126028   6.624   1.285   8.747 -0.7133 -0.5780 -1.0692
  611TIP3    H226029   6.726   1.335   8.647  0.8435  1.5305  1.4638
  612TIP3   OH226030   1.388   4.045   9.012 -0.1770  0.5534 -0.5120
  612TIP3    H126031   1.456   4.098   8.971 -1.3401  1.9256 -0.7739
  612TIP3    H226032   1.317   4.043   8.948 -0.7753  0.0299  0.1546
  613TIP3   OH226033   4.471   1.788   7.326  0.0399  0.2121 -0.2981
  613TIP3    H126034   4.390   1.761   7.370  0.3725 -2.3333 -1.1094
  613TIP3    H226035   4.450   1.875   7.290 -0.9559  1.4469  2.8469
  614TIP3   OH226036   6.185   1.237   9.238  0.3128  0.2179  0.9539
  614TIP3    H126037   6.211   1.283   9.159  1.7177 -1.5935  0.2841
  614TIP3    H226038   6.171   1.147   9.210  0.9216 -0.4870  2.7605
  615TIP3   OH226039   2.788   3.567   9.369  0.9302 -0.3800 -0.4018
  615TIP3    H126040   2.698   3.597   9.383  0.3202 -1.3574 -1.9386
  615TIP3    H226041   2.836   3.598   9.446 -0.1809  2.2134 -0.6444
  616TIP3   OH226042   5.759   1.102   1.646 -0.0027 -0.6317  0.8245
  616TIP3    H126043   5.831   1.060   1.694 -0.6132  0.6418  3.0325
  616TIP3    H226044   5.714   1.030   1.603  3.0141 -1.3788 -1.3582
  617TIP3   OH226045   7.154   3.698   8.667  0.0883 -0.1504 -0.0672
  617TIP3    H126046   7.113   3.612   8.655 -0.3929  0.3287 -2.4651
  617TIP3    H226047   7.248   3.681   8.666 -0.0002 -0.6203 -0.9514
  618TIP3   OH226048   5.889   5.756   9.574 -0.2849  0.0154 -0.6311
  618TIP3    H126049   5.972   5.710   9.562 -1.2776 -1.5855 -1.8484
  618TIP3    H226050   5.860   5.777   9.485 -0.1419  2.6009 -0.1359
  619TIP3   OH226051   1.318   0.595   2.789 -0.1893 -0.2206 -0.3620
  619TIP3    H126052   1.258   0.660   2.826  0.1565  0.4676 -0.9640
  619TIP3    H226053   1.390   0.590   2.852  2.2248  3.6362 -2.4044
  620TIP3   OH226054   1.840   5.345   8.702  0.3841 -0.0973 -0.9162
  620TIP3    H126055   1.855   5.400   8.779 -2.9387  0.6865 -0.6770
  620TIP3    H226056   1.855   5.256   8.733 -0.8561  0.2060  0.6991
  621TIP3   OH226057   7.186   1.639   0.159 -0.2715 -0.4720  0.2274
  621TIP3    H126058   7.206   1.668   0.070 -2.2480 -1.9269 -0.7704
  621TIP3    H226059   7.151   1.717   0.202  2.4609  0.7611  0.4321
  622TIP3   OH226060   5.460   0.596   8.778  0.5945 -0.0453  0.6079
  622TIP3    H126061   5.422   0.508   8.770 -0.7876  0.4517  1.3020
  622TIP3    H226062   5.507   0.594   8.861  0.3595 -0.0584  0.7412
  623TIP3   OH226063   6.554   7.077   7.627  0.2743  0.2929 -0.5197
  623TIP3    H126064   6.629   7.020   7.641 -0.2854 -0.6396 -1.1714
  623TIP3    H226065   6.581   7.137   7.557  1.3492  1.7788  1.0806
  624TIP3   OH226066   4.895   0.555   0.182  0.4060 -0.5477  1.0127
  624TIP3    H126067   4.833   0.523   0.247 -1.9246 -1.0681 -1.2724
  624TIP3    H226068   4.948   0.479   0.159 -1.5639 -1.5522 -0.5629
  625TIP3   OH226069   6.341   7.310   1.913  0.2695 -0.5182 -0.1582
  625TIP3    H126070   6.291   7.370   1.969  0.0366 -1.8927  1.1536
  625TIP3    H226071   6.400   7.265   1.973 -0.6922 -2.7808 -0.8265
  626TIP3   OH226072   1.905   3.261   9.927 -0.3886  0.3825  0.0139
  626TIP3    H126073   1.927   3.187   9.984 -1.9280  1.4926  2.1961
  626TIP3    H226074   1.812   3.249   9.907 -0.2296  0.8228 -1.0415
  627TIP3   OH226075   6.516   7.443   8.241 -0.4829 -0.5541 -0.2241
  627TIP3    H126076   6.571   7.497   8.297 -1.2211 -0.4352  0.4142
  627TIP3    H226077   6.486   7.503   8.173 -0.1963 -0.5009 -0.3017
  628TIP3   OH226078   4.736   1.046   8.994  0.2115 -0.0728  0.8805
  628TIP3    H126079   4.696   1.130   8.969  2.2502  0.9128  0.7190
  628TIP3    H226080   4.751   1.054   9.088 -0.6221 -0.7554  1.0865
  629TIP3   OH226081   7.126   2.476   1.868  0.8597 -0.6251  0.1528
  629TIP3    H126082   7.166   2.534   1.932  0.2394  1.4840 -1.2794
  629TIP3    H226083   7.176   2.491   1.787 -2.0496  1.4363 -1.4547
  630TIP3   OH226084   2.385   0.943   0.994  1.0528  0.1058  0.5218
  630TIP3    H126085   2.298   0.910   1.016  1.5222 -0.9866  0.7766
  630TIP3    H226086   2.369   1.013   0.931  0.0732 -1.0209 -0.5095
  631TIP3   OH226087   4.934   4.163   9.028 -0.5351 -0.8685  0.1652
  631TIP3    H126088   4.874   4.227   9.068  0.8543  1.2748 -0.9900
  631TIP3    H226089   4.911   4.164   8.935  0.2162 -1.2258 -0.0296
  632TIP3   OH226090   4.600   6.732   0.264 -0.7400 -0.0170 -0.3748
  632TIP3    H126091   4.593   6.675   0.341 -0.2268 -0.8064 -0.8920
  632TIP3    H226092   4.689   6.768   0.268 -1.9766  3.2557  1.6082
  633TIP3   OH226093   3.478   6.082   1.388 -0.2079 -0.4873 -0.0989
  633TIP3    H126094   3.515   5.993   1.389  0.6903 -0.1676 -2.0766
  633TIP3    H226095   3.551   6.138   1.414 -0.7264 -0.2828  0.9602
  634TIP3   OH226096   3.197   7.409   1.483  0.5934 -0.7539 -0.1058
  634TIP3    H126097   3.134   7.480   1.474  0.2469 -1.2086 -1.6598
  634TIP3    H226098   3.227   7.415   1.573  1.2478  1.9359 -0.3878
  635TIP3   OH226099   1.580   6.279   1.152 -0.4425  0.2062  0.3447
  635TIP3    H126100   1.635   6.217   1.201  0.1232  0.7300  0.3777
  635TIP3    H226101   1.641   6.346   1.121 -0.7203 -0.2874 -1.3894
  636TIP3   OH226102   5.409   5.289   1.792  0.1424 -0.5227 -0.2899
  636TIP3    H126103   5.342   5.353   1.815  0.8790 -0.3137  1.5040
  636TIP3    H226104   5.428   5.244   1.875  0.9818 -1.7720 -1.1178
  637TIP3   OH226105   6.755   0.344   0.767  0.4408 -0.0579 -0.1207
  637TIP3    H126106   6.829   0.398   0.797 -1.0772  2.2106 -0.1727
  637TIP3    H226107   6.779   0.318   0.678  0.4501  2.2408 -0.8686
  638TIP3   OH226108   0.859   5.480   7.140  0.3176  0.0671  0.1908
  638TIP3    H126109   0.830   5.455   7.053 -0.3776  1.0198  0.1321
  638TIP3    H226110   0.853   5.575   7.141 -0.1231  0.0465  1.4225
  639TIP3   OH226111   2.954   2.306   9.901 -0.0477  0.1051  0.1897
  639TIP3    H126112   3.047   2.284   9.909 -0.0444  0.0302 -0.0337
  639TIP3    H226113   2.929   2.339   9.987  0.5228  1.4237 -0.1295
  640TIP3   OH226114   2.510   4.272   9.252 -0.3569 -0.2122  0.1671
  640TIP3    H126115   2.444   4.229   9.199 -0.0932  0.1935 -0.5101
  640TIP3    H226116   2.466   4.349   9.288  0.0169  0.6429 -1.1414
  641TIP3   OH226117   7.606   1.160   9.205 -0.4034 -0.1815  0.1208
  641TIP3    H126118   7.519   1.133   9.175 -1.1871  1.3356  0.9260
  641TIP3    H226119   7.615   1.122   9.292 -0.4506  0.0210  0.2152
  642TIP3   OH226120   3.696   5.668   1.606 -0.1855 -0.4541  0.8687
  642TIP3    H126121   3.789   5.662   1.630  0.1098 -1.7768 -0.4406
  642TIP3    H226122   3.667   5.577   1.599 -0.6435 -0.1848 -1.9667
  643TIP3   OH226123   1.531   6.196   6.712 -0.1313 -0.2084 -0.1234
  643TIP3    H126124   1.554   6.125   6.773 -1.4637  0.5385  1.3381
  643TIP3    H226125   1.499   6.152   6.634  1.4719 -1.2056 -0.2567
  644TIP3   OH226126   4.057   2.042   1.444  0.4357  0.3725 -0.4794
  644TIP3    H126127   4.009   2.124   1.441 -0.8797 -0.3458 -0.0283
  644TIP3    H226128   4.028   1.994   1.367 -2.1296 -1.3757  1.4166
  645TIP3   OH226129   7.235   0.565   0.843  0.7119 -0.5411 -0.0448
  645TIP3    H126130   7.290   0.524   0.909  2.1347  1.4031  0.0887
  645TIP3    H226131   7.296   0.598   0.778 -0.3837  0.6521 -0.5205
  646TIP3   OH226132   6.814   0.652   8.830  0.1928 -0.7961  0.5365
  646TIP3    H126133   6.767   0.630   8.750 -0.3185 -2.8880  1.3263
  646TIP3    H226134   6.906   0.632   8.811  1.0136  3.5073 -1.0815
  647TIP3   OH226135   3.923   5.213   7.873  0.2172 -0.3816  0.2590
  647TIP3    H126136   3.932   5.256   7.788 -0.8204 -1.7569 -0.5896
  647TIP3    H226137   3.859   5.267   7.920 -0.6664 -0.6584 -0.5848
  648TIP3   OH226138   1.130   2.799   8.249 -0.2032 -0.7276  0.4969
  648TIP3    H126139   1.047   2.798   8.201  0.5797 -0.6512 -0.8996
  648TIP3    H226140   1.196   2.812   8.182  0.9936 -1.3216  1.5271
  649TIP3   OH226141   2.395   0.059   7.917  0.7665 -0.4376  0.0592
  649TIP3    H126142   2.349   0.129   7.871  0.9830 -0.6774 -0.5335
  649TIP3    H226143   2.485   0.091   7.924  0.8715 -0.6683 -0.2376
  650TIP3   OH226144   6.149   3.776   0.269  0.4691  0.0857 -0.0837
  650TIP3    H126145   6.217   3.725   0.225  0.3137 -1.1982  1.1231
  650TIP3    H226146   6.198   3.838   0.324  0.6577  1.3556 -1.6238
  651TIP3   OH226147   1.095   3.654   1.486 -0.0369  0.2089 -0.1996
  651TIP3    H126148   1.047   3.582   1.447  2.2274 -0.9300 -1.0719
  651TIP3    H226149   1.057   3.733   1.448 -2.0140 -0.5302  0.1533
  652TIP3   OH226150   5.225   3.661   7.988  0.0924 -0.3827 -0.2351
  652TIP3    H126151   5.220   3.694   7.898  0.8568  0.2093 -0.0672
  652TIP3    H226152   5.311   3.619   7.994 -0.2634 -1.0937  0.0002
  653TIP3   OH226153   7.526   0.408   0.638  0.3408 -0.3306 -0.3030
  653TIP3    H126154   7.473   0.354   0.697 -0.9523  1.0400 -0.1766
  653TIP3    H226155   7.526   0.495   0.677  0.0630  0.4437 -1.9359
  654TIP3   OH226156   3.665   6.772   7.849  0.3579 -0.1745 -0.1213
  654TIP3    H126157   3.693   6.683   7.830  0.7167 -0.6683  2.3142
  654TIP3    H226158   3.640   6.809   7.764 -0.1301 -2.6812 -1.1522
  655TIP3   OH226159   1.602   2.225   7.864 -0.4301  0.6469  0.5939
  655TIP3    H126160   1.698   2.221   7.862 -0.3907  0.8452  1.8362
  655TIP3    H226161   1.576   2.149   7.917 -1.0384 -0.1848 -0.8283
  656TIP3   OH226162   0.845   5.816   6.597  0.7153  0.1431  0.0559
  656TIP3    H126163   0.924   5.766   6.617  0.9006  1.3610  2.7402
  656TIP3    H226164   0.777   5.775   6.650  0.3452  1.2590  0.4641
  657TIP3   OH226165   3.562   0.911   8.212 -0.5143 -0.1080 -0.5998
  657TIP3    H126166   3.506   0.865   8.274 -0.3561  0.2177 -0.2034
  657TIP3    H226167   3.611   0.973   8.266  0.9326 -1.0489 -0.7921
  658TIP3   OH226168   1.360   5.216   2.113 -0.5392 -0.0882  0.2891
  658TIP3    H126169   1.447   5.254   2.108 -1.0896  1.1318 -0.3059
  658TIP3    H226170   1.338   5.194   2.023 -1.1392  0.3084  0.3326
  659TIP3   OH226171   3.625   5.670   1.049  0.5367  0.5006  0.4055
  659TIP3    H126172   3.541   5.623   1.050  0.4684  0.6271  1.0134
  659TIP3    H226173   3.688   5.604   1.019  0.0870  0.6513 -0.9336
  660TIP3   OH226174   2.012   3.694   0.322  0.1001  0.1052 -0.3269
  660TIP3    H126175   2.090   3.724   0.369 -1.9590  1.9931  2.1615
  660TIP3    H226176   1.984   3.770   0.271 -1.7471  0.5041  1.1982
  661TIP3   OH226177   2.514   3.208   2.509  0.1605 -0.1095  0.0830
  661TIP3    H126178   2.494   3.143   2.576 -1.3856  0.2007 -0.0284
  661TIP3    H226179   2.486   3.291   2.548  1.1412  0.3519 -0.1763
  662TIP3   OH226180   1.436   5.678   2.743  0.6536 -0.5409 -0.3226
  662TIP3    H126181   1.409   5.732   2.818 -0.2256 -0.0930 -0.9478
  662TIP3    H226182   1.378   5.602   2.746 -0.7092  0.3992 -1.6376
  663TIP3   OH226183   0.690   7.144   1.764 -0.2032  0.6501  0.6074
  663TIP3    H126184   0.740   7.197   1.701  1.9386 -0.6046  1.1499
  663TIP3    H226185   0.756   7.103   1.819 -1.9262 -0.1670  2.1894
  664TIP3   OH226186   3.308   6.412   2.365  0.1345 -0.3193  0.1636
  664TIP3    H126187   3.248   6.340   2.346  0.5483 -0.8859  0.9161
  664TIP3    H226188   3.309   6.416   2.461  0.5230  0.3419  0.1310
  665TIP3   OH226189   6.355   1.290   0.605  0.1912 -0.0343  0.4072
  665TIP3    H126190   6.336   1.384   0.602 -1.9920 -0.4331  0.1635
  665TIP3    H226191   6.318   1.261   0.689 -2.5799 -1.2713 -1.1248
  666TIP3   OH226192   2.245   1.327   1.116  0.1499  0.1475  0.0651
  666TIP3    H126193   2.200   1.246   1.092  3.2187 -1.4464 -0.7925
  666TIP3    H226194   2.254   1.375   1.034 -1.7443  1.5197  0.5830
  667TIP3   OH226195   6.198   6.537   0.355  0.5359  0.3977  0.0505
  667TIP3    H126196   6.125   6.478   0.373 -0.3137  1.4035 -0.0043
  667TIP3    H226197   6.193   6.555   0.261  0.4281  1.0110  0.1692
  668TIP3   OH226198   3.783   2.578   8.462 -0.6533 -0.4223  0.0658
  668TIP3    H126199   3.788   2.495   8.416  2.3046  0.3166 -1.1791
  668TIP3    H226200   3.737   2.636   8.402 -1.0236 -0.6654  0.1133
  669TIP3   OH226201   1.045   7.118   0.445 -0.3677 -0.3291 -0.3487
  669TIP3    H126202   1.083   7.034   0.469 -1.2446 -0.3290  1.1263
  669TIP3    H226203   1.111   7.182   0.469  0.2265 -0.5574 -1.3054
  670TIP3   OH226204   1.909   1.852   1.295 -0.3730 -0.5356 -0.1161
  670TIP3    H126205   1.862   1.819   1.371 -0.0436 -0.8695 -0.0528
  670TIP3    H226206   1.845   1.904   1.247 -0.8063 -0.9914 -0.0356
  671TIP3   OH226207   4.380   7.151   1.835  0.3548 -0.2758 -0.0723
  671TIP3    H126208   4.310   7.093   1.805 -2.2155  3.6841 -2.7052
  671TIP3    H226209   4.337   7.209   1.898  1.9667  0.7020  0.1761
  672TIP3   OH226210   5.179   1.516   0.754  0.3234 -0.3835  0.6636
  672TIP3    H126211   5.151   1.551   0.670  0.1156  0.0403  0.9031
  672TIP3    H226212   5.275   1.515   0.749  0.3279  0.0959  0.5981
  673TIP3   OH226213   5.929   2.820   0.216 -0.1473  1.0052  0.0982
  673TIP3    H126214   6.006   2.785   0.262  0.1454  0.4765 -0.7816
  673TIP3    H226215   5.888   2.744   0.176 -1.9502  1.0711  1.6904
  674TIP3   OH226216   5.684   4.621   0.700 -0.0451  0.3504  0.0515
  674TIP3    H126217   5.592   4.644   0.683 -0.1373 -0.9804 -1.4551
  674TIP3    H226218   5.693   4.629   0.795 -1.7416  0.4419  0.2402
  675TIP3   OH226219   3.421   2.269   0.405  0.3161  0.0616 -0.3943
  675TIP3    H126220   3.424   2.226   0.490 -2.1128 -0.9311 -0.7095
  675TIP3    H226221   3.473   2.213   0.348  0.1698 -0.4865 -0.0043
  676TIP3   OH226222   2.101   3.940   7.714  0.2493  0.4343  0.3081
  676TIP3    H126223   2.012   3.943   7.751  0.0495 -0.5879 -0.0394
  676TIP3    H226224   2.145   3.871   7.765  0.4887  0.1713 -0.2467
  677TIP3   OH226225   1.536   1.956   1.757 -0.1561 -0.2257 -0.7140
  677TIP3    H126226   1.581   2.041   1.756  2.2462 -1.4163  0.0288
  677TIP3    H226227   1.456   1.973   1.807  0.6641  1.4454  0.1224
  678TIP3   OH226228   1.156   4.108   8.856 -0.4508  0.3804  0.4370
  678TIP3    H126229   1.172   4.193   8.813 -0.0411  0.6021  1.0146
  678TIP3    H226230   1.129   4.050   8.785  2.6356  0.0452 -0.6480
  679TIP3   OH226231   0.521   0.528   9.392 -0.6934 -0.1008  0.6081
  679TIP3    H126232   0.587   0.596   9.409  0.2884 -0.3818 -1.6951
  679TIP3    H226233   0.471   0.562   9.317 -1.8386 -0.8209  1.0272
  680TIP3   OH226234   5.904   3.125   8.502 -0.4098 -0.1892 -0.0042
  680TIP3    H126235   5.906   3.159   8.413 -1.7403  1.3612  0.5080
  680TIP3    H226236   5.888   3.201   8.557  1.6103 -0.8923  1.7277
  681TIP3   OH226237   4.136   6.973   0.125 -0.9908 -0.1250  0.1355
  681TIP3    H126238   4.082   7.030   0.180  1.2022 -0.1144  2.4355
  681TIP3    H226239   4.223   7.011   0.129 -0.3669 -1.2396 -1.8439
  682TIP3   OH226240   1.206   3.557   2.210 -0.3912  0.4290 -0.1976
  682TIP3    H126241   1.183   3.487   2.149 -1.1440  0.7627 -0.3128
  682TIP3    H226242   1.123   3.578   2.253 -0.0810  0.9503  0.1445
  683TIP3   OH226243   3.162   3.688   6.619  0.2171 -0.0634 -0.6419
  683TIP3    H126244   3.071   3.711   6.639  0.2624 -0.8829  0.5976
  683TIP3    H226245   3.213   3.761   6.653  0.0910 -0.1442 -0.2651
  684TIP3   OH226246   3.221   7.101   2.246  0.2689 -0.2317  0.2131
  684TIP3    H126247   3.153   7.113   2.313  1.2601  1.4005  1.0020
  684TIP3    H226248   3.302   7.129   2.290  1.2930 -1.1765 -1.0160
  685TIP3   OH226249   1.897   1.327   8.097 -0.0447 -0.0588 -0.4380
  685TIP3    H126250   1.826   1.385   8.069 -1.0947 -0.3851  1.4291
  685TIP3    H226251   1.930   1.289   8.015 -1.8314  0.2955 -1.3758
  686TIP3   OH226252   0.442   0.922   0.812 -0.4501  0.1433 -0.1500
  686TIP3    H126253   0.487   0.933   0.896  0.8422 -0.8544 -0.6668
  686TIP3    H226254   0.384   0.998   0.806  0.7708  1.2132  0.8166
  687TIP3   OH226255   1.993   4.893   0.122 -0.3290 -0.5086 -0.3572
  687TIP3    H126256   2.030   4.928   0.203 -0.1710 -0.2082 -0.5531
  687TIP3    H226257   1.933   4.962   0.092 -1.7767 -1.3769  0.4369
  688TIP3   OH226258   4.102   3.208   2.759  0.5483 -0.0510 -0.0605
  688TIP3    H126259   4.141   3.293   2.739 -0.4123  0.4852  0.3132
  688TIP3    H226260   4.154   3.146   2.708 -0.1144  0.9867 -2.0948
  689TIP3   OH226261   3.165   7.435   7.748  0.6109  0.0170  0.2221
  689TIP3    H126262   3.233   7.367   7.749  0.5266 -0.0659  0.5234
  689TIP3    H226263   3.110   7.413   7.673  0.0489 -0.7898  0.8463
  690TIP3   OH226264   1.488   4.926   2.095 -0.0340  0.1359  0.0004
  690TIP3    H126265   1.499   4.911   2.189  1.4888 -0.3383 -0.2334
  690TIP3    H226266   1.464   5.018   2.089 -2.9784 -0.4514  1.0099
  691TIP3   OH226267   0.582   6.136   7.385  0.3526 -0.6662 -0.5638
  691TIP3    H126268   0.665   6.144   7.433 -0.7813  0.5330  1.3086
  691TIP3    H226269   0.574   6.219   7.337 -1.1479  0.5596  1.6777
  692TIP3   OH226270   2.208   0.168   7.757 -0.2670  0.4635  0.1650
  692TIP3    H126271   2.151   0.152   7.832 -1.3463 -1.6690 -1.0153
  692TIP3    H226272   2.149   0.184   7.684  0.5759 -1.7223 -1.0845
  693TIP3   OH226273   5.079   5.301   9.311 -0.2391  0.0673 -0.1352
  693TIP3    H126274   5.170   5.321   9.290 -1.3206  2.0799 -3.5561
  693TIP3    H226275   5.064   5.214   9.273  0.5795 -1.0756  1.9544
  694TIP3   OH226276   7.079   0.111   1.933 -0.3300 -0.5775 -0.6895
  694TIP3    H126277   7.147   0.159   1.887  0.3228 -1.1188 -0.3238
  694TIP3    H226278   7.127   0.060   1.999 -1.2025 -0.0155  0.4190
  695TIP3   OH226279   7.062   5.330   0.734 -0.5726 -0.0338 -0.3334
  695TIP3    H126280   7.036   5.346   0.643  0.6821 -0.5936 -0.8111
  695TIP3    H226281   6.984   5.290   0.774 -0.3967 -1.9553 -1.7953
  696TIP3   OH226282   2.502   5.035   9.442 -0.2305 -0.8057  0.3260
  696TIP3    H126283   2.545   4.968   9.389 -1.8328 -1.2244 -0.5218
  696TIP3    H226284   2.563   5.108   9.443  1.8977 -2.4526  1.8655
  697TIP3   OH226285   5.372   1.128   1.127 -0.5154 -0.1762 -0.0827
  697TIP3    H126286   5.465   1.109   1.145 -0.7668 -1.6760 -0.2084
  697TIP3    H226287   5.349   1.068   1.056 -1.0764  1.5859 -1.4693
  698TIP3   OH226288   1.327   4.029   6.843  0.0365 -0.5831 -0.5809
  698TIP3    H126289   1.334   4.116   6.882 -1.1149  0.0490 -1.7050
  698TIP3    H226290   1.271   3.980   6.904 -0.8726  0.0644 -0.8706
  699TIP3   OH226291   0.451   1.271   1.580 -0.0600 -0.5111 -0.0375
  699TIP3    H126292   0.440   1.351   1.631 -1.9470 -1.2109  0.7138
  699TIP3    H226293   0.518   1.221   1.628 -1.1217 -0.7394  1.2606
  700TIP3   OH226294   4.013   1.570   7.971  0.0927  0.2157  0.1177
  700TIP3    H126295   4.044   1.496   7.920  0.0978 -0.9250  1.6856
  700TIP3    H226296   3.992   1.637   7.906 -0.7989 -1.4664 -1.4345
  701TIP3   OH226297   0.338   6.525   2.221 -0.0416 -0.4711  0.6475
  701TIP3    H126298   0.398   6.453   2.240 -0.6043 -1.7702 -2.0324
  701TIP3    H226299   0.372   6.564   2.140 -0.4959  1.4815  1.3381
  702TIP3   OH226300   1.978   2.911   8.822 -0.3060 -0.1366 -0.1936
  702TIP3    H126301   1.925   2.981   8.784 -0.5671 -1.5891 -2.7923
  702TIP3    H226302   2.042   2.890   8.754 -1.1229 -3.2685 -0.1520
  703TIP3   OH226303   0.755   6.002   0.752 -0.0407  0.2436  0.1887
  703TIP3    H126304   0.780   6.078   0.805  0.6300  1.9774 -2.4219
  703TIP3    H226305   0.830   5.988   0.694 -0.3681 -2.1460  0.2691
  704TIP3   OH226306   5.673   5.791   0.444 -0.2598  0.3249 -0.5160
  704TIP3    H126307   5.616   5.846   0.497 -0.3416  2.0210 -2.2860
  704TIP3    H226308   5.629   5.706   0.442 -1.5248  0.9433  0.0331
  705TIP3   OH226309   3.120   2.144   0.691  0.1358  0.4186 -0.0563
  705TIP3    H126310   3.199   2.196   0.673  0.7215 -0.4061  0.0495
  705TIP3    H226311   3.137   2.104   0.776  0.1934 -0.8066 -0.6103
  706TIP3   OH226312   5.064   4.594   8.483 -0.2853 -0.5461 -0.1593
  706TIP3    H126313   5.025   4.681   8.493 -1.5540 -1.2187  1.2171
  706TIP3    H226314   5.034   4.564   8.397  0.3851  0.4509 -0.7658
  707TIP3   OH226315   0.748   7.245   2.292 -0.0620  0.3040  0.1940
  707TIP3    H126316   0.671   7.241   2.349  1.0600 -0.9645  1.7046
  707TIP3    H226317   0.796   7.165   2.311  0.4750 -0.0881 -2.4645
  708TIP3   OH226318   0.304   2.969   0.265 -0.0975 -0.4680 -0.3608
  708TIP3    H126319   0.216   2.954   0.299 -0.6819 -1.3667 -2.1525
  708TIP3    H226320   0.321   3.062   0.281 -0.3912 -0.7946  2.1229
  709TIP3   OH226321   0.819   4.567   7.397 -0.4399  0.1568 -0.0859
  709TIP3    H126322   0.776   4.559   7.482  0.2523  1.5963  0.4342
  709TIP3    H226323   0.871   4.647   7.404 -0.8126  0.6284 -2.0658
  710TIP3   OH226324   6.028   7.331   9.238  0.4443  0.5333  0.0466
  710TIP3    H126325   5.973   7.328   9.317  0.6077  0.8981  0.1761
  710TIP3    H226326   5.984   7.392   9.180 -0.0439 -0.2491 -0.4343
  711TIP3   OH226327   0.495   1.020   1.083 -0.7080 -0.5522 -0.5931
  711TIP3    H126328   0.534   1.025   1.171  0.2647 -1.1172 -0.9833
  711TIP3    H226329   0.424   1.085   1.085  0.8164  1.1865 -0.1384
  712TIP3   OH226330   0.997   5.690   8.530  0.3719 -0.2916  0.1021
  712TIP3    H126331   1.016   5.649   8.614 -0.4028  1.1405  0.9993
  712TIP3    H226332   1.082   5.724   8.500  0.4495  0.1690  0.8360
  713TIP3   OH226333   2.853   6.615   0.525 -0.0965  0.0964 -0.0737
  713TIP3    H126334   2.932   6.661   0.498  0.3914 -0.8072 -0.2226
  713TIP3    H226335   2.828   6.563   0.449 -0.0800 -0.6263  0.4010
  714TIP3   OH226336   3.759   7.157   0.140 -0.1741 -0.3610  0.1920
  714TIP3    H126337   3.757   7.216   0.065  0.3898 -0.5877 -0.0055
  714TIP3    H226338   3.694   7.192   0.200 -1.9562 -1.1956 -1.1662
  715TIP3   OH226339   3.002   2.707   0.019 -0.3556 -0.4645  0.4486
  715TIP3    H126340   3.048   2.626   0.044  0.8384  0.6099  1.9071
  715TIP3    H226341   2.970   2.743   0.102 -0.6917  0.6644 -0.1606
  716TIP3   OH226342   6.626   7.409   8.860 -0.3795  0.0730 -0.3627
  716TIP3    H126343   6.568   7.467   8.910 -0.7940  0.6354 -1.4440
  716TIP3    H226344   6.714   7.442   8.876 -0.2781 -1.0455  1.6343
  717TIP3   OH226345   4.527   0.409   1.143 -0.0707  0.0660  0.3222
  717TIP3    H126346   4.469   0.422   1.219 -0.8365 -1.2816  0.0015
  717TIP3    H226347   4.615   0.419   1.179 -0.4255 -0.3086  1.3544
  718TIP3   OH226348   0.677   2.783   0.334 -0.1872  0.2036 -0.1759
  718TIP3    H126349   0.617   2.722   0.292  0.6211  0.1869 -1.3978
  718TIP3    H226350   0.744   2.728   0.375 -0.4219  0.2400  0.2594
  719TIP3   OH226351   3.603   7.304   8.709 -0.2729  0.0224  0.0779
  719TIP3    H126352   3.601   7.215   8.674  0.0380  0.1192 -0.1825
  719TIP3    H226353   3.611   7.360   8.632 -0.5036  0.2802  0.2401
  720TIP3   OH226354   1.113   3.632   2.785 -0.2697 -0.4948  0.7023
  720TIP3    H126355   1.032   3.593   2.754 -1.2583 -0.8317  3.4727
  720TIP3    H226356   1.182   3.582   2.742 -1.5134 -1.4498 -0.2413
  721TIP3   OH226357   0.499   0.337   1.340  0.3662  0.0058  0.6458
  721TIP3    H126358   0.565   0.342   1.271 -0.3335  0.8419  0.0224
  721TIP3    H226359   0.528   0.399   1.406 -0.4283  1.3143 -0.2012
  722TIP3   OH226360   0.491   1.682   2.508  0.7483  0.0022 -0.1066
  722TIP3    H126361   0.445   1.765   2.517  0.1498 -0.5177  2.3880
  722TIP3    H226362   0.528   1.665   2.595  1.6764 -1.8733 -0.8111
  723TIP3   OH226363   5.163   0.625   9.593 -0.6800  0.2716 -0.5449
  723TIP3    H126364   5.087   0.682   9.583 -1.6079 -0.6533  0.9184
  723TIP3    H226365   5.229   0.681   9.635 -1.3790  0.4474  0.3504
  724TIP3   OH226366   3.777   7.617   8.540 -0.7513  0.6645  0.3895
  724TIP3    H126367   3.797   7.708   8.563 -1.2299  0.5906  1.1570
  724TIP3    H226368   3.682   7.610   8.551 -0.8582  0.3469 -0.7006
  725TIP3   OH226369   3.657   1.452   1.500 -0.2564  0.0004  0.3074
  725TIP3    H126370   3.675   1.511   1.573  1.3332  0.1644 -0.1716
  725TIP3    H226371   3.577   1.486   1.460  0.1937  1.3461  0.5194
  726TIP3   OH226372   4.055   4.506   9.546  0.1552 -0.4221 -0.0378
  726TIP3    H126373   4.134   4.477   9.500  0.5850  1.7396 -0.7831
  726TIP3    H226374   4.087   4.565   9.614 -0.8199  2.1822 -1.6748
  727TIP3   OH226375   7.180   5.203   0.094 -0.6999  0.5997  0.8783
  727TIP3    H126376   7.268   5.235   0.113  1.2036 -2.4407 -1.8606
  727TIP3    H226377   7.165   5.225   0.002 -1.5602 -1.2976  0.5051
  728TIP3   OH226378   3.708   5.796   8.206 -0.0261 -0.2195  0.1382
  728TIP3    H126379   3.699   5.886   8.235 -0.6968  0.7891 -2.8149
  728TIP3    H226380   3.799   5.773   8.222  0.0788  0.8857  1.1622
  729TIP3   OH226381   2.493   1.369   8.735 -0.6483  0.2911  0.8333
  729TIP3    H126382   2.531   1.455   8.752  1.7154 -0.2402 -1.2386
  729TIP3    H226383   2.432   1.384   8.663  0.1300  0.1968  0.1367
  730TIP3   OH226384   5.108   0.506   9.908 -0.0816 -0.3691 -0.1737
  730TIP3    H126385   5.117   0.601   9.909  0.1869 -0.3838 -0.8113
  730TIP3    H226386   5.072   0.484   9.994  0.8357  0.2098  0.3750
  731TIP3   OH226387   5.633   0.480   1.352 -0.0202 -0.0758 -0.6270
  731TIP3    H126388   5.558   0.427   1.323  0.0173 -1.9065  2.1805
  731TIP3    H226389   5.608   0.511   1.439  1.9758  0.3496 -0.1607
  732TIP3   OH226390   4.868   1.898   9.785 -0.8597  0.0178  0.0841
  732TIP3    H126391   4.951   1.870   9.823  0.5253  0.9365 -2.1120
  732TIP3    H226392   4.841   1.825   9.730 -0.1290  0.6943 -1.2254
  733TIP3   OH226393   4.842   7.304   7.551  0.5562 -0.3067  0.0520
  733TIP3    H126394   4.913   7.295   7.614 -0.1975 -1.4345  0.7580
  733TIP3    H226395   4.853   7.230   7.491  0.5274  0.0527 -0.4052
  734TIP3   OH226396   4.713   5.608   9.614 -0.1760  0.6451  0.3228
  734TIP3    H126397   4.680   5.520   9.634 -2.8932  1.8193  1.3999
  734TIP3    H226398   4.776   5.594   9.543 -2.6069 -1.9108 -1.5410
  735TIP3   OH226399   6.896   4.943   0.209  0.7046  0.4336  0.4179
  735TIP3    H126400   6.933   4.964   0.295  1.4016 -0.3763  0.3255
  735TIP3    H226401   6.879   4.849   0.213  3.0076 -0.1132 -1.1427
  736TIP3   OH226402   2.022   2.274   0.020  0.1426  0.9362  0.4118
  736TIP3    H126403   1.952   2.326   0.058 -2.2378 -0.3148 -1.9043
  736TIP3    H226404   2.089   2.337  -0.006 -0.8129  2.3398  1.2615
  737TIP3   OH226405   4.730   1.060   1.367 -0.1128  0.4563 -0.0683
  737TIP3    H126406   4.804   1.062   1.428 -0.7082  0.6924  0.6655
  737TIP3    H226407   4.654   1.046   1.423 -0.8999  2.5916 -0.5225
  738TIP3   OH226408   1.642   4.859   6.870  0.0170 -0.5405 -0.6668
  738TIP3    H126409   1.679   4.776   6.900 -0.9114 -1.4787 -2.0031
  738TIP3    H226410   1.717   4.907   6.836  0.4736 -1.0795 -0.4503
  739TIP3   OH226411   2.391   2.629   0.558  0.1810 -0.4140  0.0197
  739TIP3    H126412   2.426   2.540   0.551 -1.1452 -1.3083  3.0394
  739TIP3    H226413   2.306   2.624   0.514  0.4339 -0.4133 -0.4761
  740TIP3   OH226414   1.163   5.456   9.105  0.4994 -0.5189  0.0012
  740TIP3    H126415   1.095   5.493   9.160  1.2216  0.1152  0.4894
  740TIP3    H226416   1.199   5.383   9.156  1.1620  0.0624  0.3821
  741TIP3   OH226417   0.492   4.518   0.711 -0.0884 -0.0546 -0.4486
  741TIP3    H126418   0.491   4.542   0.804  0.6224 -1.4291 -0.0644
  741TIP3    H226419   0.522   4.427   0.710 -0.8445 -0.3157 -1.9746
  742TIP3   OH226420   7.430   0.290   0.863  0.3781  0.1562  0.1075
  742TIP3    H126421   7.450   0.212   0.915  1.0563  0.6358  0.5954
  742TIP3    H226422   7.460   0.363   0.918  2.3318  0.6196 -1.4639
  743TIP3   OH226423   6.026   0.765   0.489 -0.4288 -0.5512 -0.1558
  743TIP3    H126424   6.071   0.682   0.476  0.5470 -0.2248  1.0164
  743TIP3    H226425   5.934   0.741   0.499 -0.1665 -1.4794  0.0770
  744TIP3   OH226426   5.920   5.387   7.975 -0.0695 -0.2551  0.3504
  744TIP3    H126427   5.950   5.410   7.887 -1.2095 -1.0979 -0.2794
  744TIP3    H226428   5.970   5.309   7.997  1.6888  1.0736  1.3105
  745TIP3   OH226429   5.888   4.788   8.166 -0.0823  0.0455  0.1610
  745TIP3    H126430   5.961   4.819   8.112  0.4030  1.8362  1.6984
  745TIP3    H226431   5.931   4.752   8.244 -0.8010 -1.2797 -0.0313
  746TIP3   OH226432   1.679   3.032   2.768  0.6864  0.1415  0.2019
  746TIP3    H126433   1.621   2.984   2.709  0.8064  1.0927 -0.7260
  746TIP3    H226434   1.623   3.097   2.809  1.1225  1.2959 -0.9594
  747TIP3   OH226435   6.579   6.856   9.032  0.4964  0.0515  0.3128
  747TIP3    H126436   6.507   6.861   8.969  1.0996  2.6324 -0.2596
  747TIP3    H226437   6.657   6.878   8.981  1.2478  0.4269  1.5830
  748TIP3   OH226438   7.604   7.074   0.324 -0.3247  0.1750 -0.3378
  748TIP3    H126439   7.656   7.010   0.276  0.1980  1.0077 -0.9008
  748TIP3    H226440   7.644   7.077   0.411 -0.4309 -0.3508 -0.2688
  749TIP3   OH226441   1.618   5.484   9.274  0.2151  0.3093  0.7513
  749TIP3    H126442   1.574   5.499   9.358  0.6737  1.0600  0.8664
  749TIP3    H226443   1.699   5.533   9.281  0.1507  0.5691 -0.2246
  750TIP3   OH226444   6.699   2.078   8.234  0.2027 -0.1107 -0.5429
  750TIP3    H126445   6.725   2.004   8.289  1.5051  0.7071 -0.0123
  750TIP3    H226446   6.757   2.073   8.158  0.0808  0.1826 -0.6574
  751TIP3   OH226447   0.871   4.305   8.163  0.5114 -0.3388  0.3943
  751TIP3    H126448   0.953   4.338   8.201  0.2856  0.1645  0.4429
  751TIP3    H226449   0.803   4.337   8.222  0.1188  0.7471 -0.6342
  752TIP3   OH226450   0.635   6.670   8.723 -0.2808  0.5454 -0.0601
  752TIP3    H126451   0.551   6.651   8.766 -0.3844 -0.9305 -0.8621
  752TIP3    H226452   0.617   6.660   8.630  0.1201  3.0269 -0.4706
  753TIP3   OH226453   0.089   5.329   2.608  0.4734  0.7329 -0.2208
  753TIP3    H126454   0.183   5.343   2.609  0.9002 -1.7783  0.2476
  753TIP3    H226455   0.052   5.416   2.593  2.8142  1.8818  0.2900
  754TIP3   OH226456   3.221   2.507   9.124  0.5088 -0.1598  0.5683
  754TIP3    H126457   3.309   2.478   9.147  0.9779  1.5413  1.0815
  754TIP3    H226458   3.233   2.560   9.045 -0.2742 -1.0848 -0.1902
  755TIP3   OH226459   1.075   6.244   9.380 -0.4944 -0.3304 -0.4891
  755TIP3    H126460   0.987   6.252   9.418 -1.1344 -1.3588 -1.6542
  755TIP3    H226461   1.092   6.329   9.340 -1.6427 -0.5689 -1.5716
  756TIP3   OH226462   0.293   5.898   9.675 -0.7411  0.5811 -0.2045
  756TIP3    H126463   0.227   5.885   9.607 -0.8829 -0.5621  0.1176
  756TIP3    H226464   0.364   5.944   9.631 -0.7920 -0.2178 -1.1667
  757TIP3   OH226465   4.351   6.938   0.920  0.0709 -0.1990  0.3827
  757TIP3    H126466   4.391   7.024   0.932 -0.3614 -0.1501  1.6339
  757TIP3    H226467   4.316   6.916   1.007 -1.0343 -1.0178 -0.2487
  758TIP3   OH226468   6.135   7.085   9.694  0.6625  0.1564  0.0366
  758TIP3    H126469   6.111   6.997   9.663  0.3235  0.1409  0.3403
  758TIP3    H226470   6.138   7.078   9.789 -0.7511  0.8132  0.1469
  759TIP3   OH226471   0.680   4.808   2.724  0.3009  0.5287 -0.0685
  759TIP3    H126472   0.737   4.751   2.671 -0.3670  0.3561 -0.6242
  759TIP3    H226473   0.594   4.800   2.683 -0.1669  0.6508  0.8602
  760TIP3   OH226474   4.104   5.029   2.048  0.1662 -0.1472  0.3091
  760TIP3    H126475   4.015   5.027   2.083  0.6996  0.1469  1.7761
  760TIP3    H226476   4.157   5.064   2.120  1.4473 -0.1748 -0.5840
  761TIP3   OH226477   1.408   4.613   7.775 -0.1688 -0.4003 -0.1232
  761TIP3    H126478   1.455   4.565   7.706 -0.3191 -1.3743  0.4317
  761TIP3    H226479   1.340   4.553   7.804 -2.6492  1.4551 -1.7738
  762TIP3   OH226480   5.451   0.056   9.167 -0.0186  0.3280  0.3817
  762TIP3    H126481   5.511   0.018   9.232  0.2124  0.6575  0.3634
  762TIP3    H226482   5.496   0.136   9.138 -0.0794  0.1269 -0.2597
  763TIP3   OH226483   6.161   2.404   2.007 -0.5725 -0.3221  0.2217
  763TIP3    H126484   6.119   2.330   2.052  0.3321 -2.3821 -2.1131
  763TIP3    H226485   6.097   2.475   2.014 -1.9860 -1.6545  1.5942
  764TIP3   OH226486   1.153   1.475   0.301  0.8780 -0.0305  0.0513
  764TIP3    H126487   1.180   1.520   0.221  1.1788 -0.5764 -0.1648
  764TIP3    H226488   1.232   1.429   0.330  1.6034  2.3771  2.2432
  765TIP3   OH226489   3.392   6.204   1.961 -0.3167  0.6245  0.9746
  765TIP3    H126490   3.365   6.148   2.034 -1.0243  0.6149  0.7170
  765TIP3    H226491   3.324   6.271   1.956 -0.6752  0.2033 -0.1384
  766TIP3   OH226492   0.412   3.399   9.914  0.5836 -0.3195  0.1354
  766TIP3    H126493   0.440   3.478   9.868  3.8581 -0.2992  1.8839
  766TIP3    H226494   0.413   3.424  10.006  1.8354 -2.4241  0.7388
  767TIP3   OH226495   2.679   0.957   1.941 -0.0018  0.3578  0.2988
  767TIP3    H126496   2.703   1.049   1.946  0.1593  0.4268 -1.3744
  767TIP3    H226497   2.597   0.955   1.891  1.3963 -0.5528 -2.1441
  768TIP3   OH226498   5.793   0.691   9.573  0.1018 -0.5691  0.4248
  768TIP3    H126499   5.842   0.627   9.521  1.8990 -0.2498  1.6383
  768TIP3    H226500   5.852   0.766   9.580 -1.8394  1.1376 -0.7003
  769TIP3   OH226501   5.020   5.624   0.457  0.3736 -0.2659 -1.1509
  769TIP3    H126502   5.042   5.596   0.546  0.6312  1.2454 -0.7176
  769TIP3    H226503   5.012   5.542   0.408  0.8046 -1.1035  0.1170
  770TIP3   OH226504   0.826   3.226   0.355  0.2288 -0.3943  0.6333
  770TIP3    H126505   0.883   3.192   0.424  0.2327 -1.2733  0.2035
  770TIP3    H226506   0.739   3.228   0.395  0.6012  1.4424  1.4630
  771TIP3   OH226507   0.185   2.403   7.925 -0.6885  0.4642  0.1916
  771TIP3    H126508   0.244   2.378   7.854  0.7766  0.0052  1.5125
  771TIP3    H226509   0.115   2.339   7.921  0.6810 -1.1311  0.6948
  772TIP3   OH226510   0.840   4.533   1.730 -0.3529  0.5977 -0.1264
  772TIP3    H126511   0.871   4.489   1.809 -0.8550  0.7603  0.1647
  772TIP3    H226512   0.749   4.555   1.749 -0.2718  1.2640 -0.4798
  773TIP3   OH226513   7.172   0.788   7.525  0.4587  0.2898 -0.0009
  773TIP3    H126514   7.213   0.734   7.458  0.3729 -1.0841  1.0037
  773TIP3    H226515   7.104   0.732   7.563 -0.7934  1.7034 -0.0436
  774TIP3   OH226516   3.699   3.295   1.905 -0.4877  0.3686  0.1806
  774TIP3    H126517   3.768   3.317   1.968 -0.0390 -0.6622  0.0569
  774TIP3    H226518   3.744   3.287   1.821 -0.2578 -2.8314  0.5062
  775TIP3   OH226519   4.923   2.513   8.738 -0.4516  0.1114  0.7507
  775TIP3    H126520   5.017   2.504   8.720 -0.4755  1.0399  0.1302
  775TIP3    H226521   4.881   2.502   8.653 -0.9868 -1.1410  1.1487
  776TIP3   OH226522   2.021   4.029   8.465 -0.0357  0.5252 -0.1185
  776TIP3    H126523   1.945   4.026   8.407 -1.3474  2.6745  1.3711
  776TIP3    H226524   2.011   3.951   8.521 -1.5792  1.1537  0.5287
  777TIP3   OH226525   3.595   7.469   9.660 -0.5488 -0.4060  0.1612
  777TIP3    H126526   3.549   7.449   9.578  0.3810  1.0324 -0.7821
  777TIP3    H226527   3.617   7.562   9.652  1.1474 -0.6692  1.2310
  778TIP3   OH226528   2.633   1.829   8.279  0.5227  0.1258  0.0476
  778TIP3    H126529   2.714   1.779   8.273  0.4165 -0.0556  0.1219
  778TIP3    H226530   2.588   1.793   8.355  0.3285  0.1655 -0.0481
  779TIP3   OH226531   7.610   7.596   7.957 -0.0856 -0.0799  0.0922
  779TIP3    H126532   7.622   7.621   8.048  0.1832  0.2285 -0.0238
  779TIP3    H226533   7.699   7.586   7.923 -0.1875 -1.4074  0.1837
  780TIP3   OH226534   6.276   2.300   9.769  0.0537  0.2369  0.0659
  780TIP3    H126535   6.328   2.265   9.841 -0.8104 -0.8303  0.1918
  780TIP3    H226536   6.205   2.237   9.758 -1.8564  2.1885  0.6044
  781TIP3   OH226537   2.087   6.840   2.062 -0.0012 -0.7653  0.1322
  781TIP3    H126538   2.026   6.802   2.126 -2.6487 -0.8128 -2.2064
  781TIP3    H226539   2.098   6.772   1.996  2.8145 -0.7866  0.5404
  782TIP3   OH226540   6.628   3.738   7.873 -0.2061  0.1188 -0.1424
  782TIP3    H126541   6.535   3.720   7.866 -0.3213  1.3887 -2.9315
  782TIP3    H226542   6.634   3.805   7.942 -1.6060  1.3023 -1.1065
  783TIP3   OH226543   6.439   1.610   1.679 -0.0799 -0.0612  0.1330
  783TIP3    H126544   6.436   1.703   1.702  1.7114 -0.2417  1.3336
  783TIP3    H226545   6.454   1.565   1.763 -2.2237 -1.5774 -0.2337
  784TIP3   OH226546   7.430   3.280   0.002 -0.2380  0.2387  0.4651
  784TIP3    H126547   7.410   3.365   0.042  1.4061  0.1383  1.6433
  784TIP3    H226548   7.522   3.287  -0.024  0.1815 -1.4274  1.3450
  785TIP3   OH226549   1.773   3.181   8.255 -1.0864 -0.3508 -0.0090
  785TIP3    H126550   1.861   3.153   8.231 -1.4697 -1.6433  0.0511
  785TIP3    H226551   1.728   3.193   8.171 -0.6306  1.1549 -0.0741
  786TIP3   OH226552   3.157   3.069   1.879  0.1685  0.5224  0.0461
  786TIP3    H126553   3.129   3.060   1.788  0.8011  1.8811 -0.3137
  786TIP3    H226554   3.090   3.024   1.929 -0.0799 -0.4366 -1.1018
  787TIP3   OH226555   2.614   5.514   7.459 -0.0452 -0.6867  0.3706
  787TIP3    H126556   2.567   5.594   7.439  0.9629 -0.3581 -0.7862
  787TIP3    H226557   2.683   5.541   7.519  0.1754 -0.7248  0.1347
  788TIP3   OH226558   1.675   3.840   8.867 -0.2876 -0.4129 -0.6155
  788TIP3    H126559   1.762   3.802   8.858 -0.1323 -0.3786  0.5265
  788TIP3    H226560   1.665   3.853   8.962 -1.2095  0.3364 -0.8058
  789TIP3   OH226561   7.329   0.325   1.454 -0.0516 -0.1254 -0.1072
  789TIP3    H126562   7.249   0.323   1.505  0.5885 -2.1167  0.8884
  789TIP3    H226563   7.326   0.246   1.400  0.7452  0.3232 -0.8417
  790TIP3   OH226564   0.550   1.310   2.622 -0.0966  0.1751  0.0351
  790TIP3    H126565   0.543   1.214   2.626  0.9449  0.0823 -0.0118
  790TIP3    H226566   0.460   1.340   2.613 -0.2772 -0.9922 -3.8947
  791TIP3   OH226567   6.180   0.953   9.729  0.3200  0.1386 -0.6544
  791TIP3    H126568   6.164   1.046   9.744 -0.6879 -0.0166 -0.6963
  791TIP3    H226569   6.178   0.914   9.816 -2.6127 -0.3169 -0.8043
  792TIP3   OH226570   0.737   4.713   1.919  0.3156  0.5701  0.3022
  792TIP3    H126571   0.824   4.724   1.880  0.0140 -0.4514 -0.7298
  792TIP3    H226572   0.750   4.653   1.992  0.2448 -0.9293 -0.8829
  793TIP3   OH226573   1.585   2.910   2.350  0.1185 -0.2597 -0.5070
  793TIP3    H126574   1.551   2.924   2.439 -1.5996  1.2646 -1.3407
  793TIP3    H226575   1.507   2.901   2.296  1.1296 -0.4505 -1.9882
  794TIP3   OH226576   4.346   0.042   0.316  0.1671 -0.1899  0.1446
  794TIP3    H126577   4.331  -0.022   0.385  0.7965 -0.3776  0.1136
  794TIP3    H226578   4.381  -0.009   0.243 -0.4507  0.0138 -0.3035
  795TIP3   OH226579   1.584   0.343   9.678  0.1804 -0.0957 -0.0881
  795TIP3    H126580   1.573   0.301   9.764  0.3871  0.4208  0.1923
  795TIP3    H226581   1.549   0.279   9.616  1.3480 -1.1073  0.2374
  796TIP3   OH226582   3.209   3.885   0.353 -0.4071  0.1823 -0.0686
  796TIP3    H126583   3.151   3.939   0.299  0.9424 -0.3081 -2.1212
  796TIP3    H226584   3.293   3.931   0.352  0.5869 -1.5676 -1.3155
  797TIP3   OH226585   1.032   6.032   0.657  0.1262  0.4592  0.2011
  797TIP3    H126586   1.121   6.051   0.686  0.2619  2.0366 -1.1124
  797TIP3    H226587   1.034   6.046   0.562 -1.1629 -0.9863 -0.0869
  798TIP3   OH226588   7.476   4.600   9.675 -0.0577 -0.4515  0.3662
  798TIP3    H126589   7.518   4.525   9.717  2.3837 -0.6211 -2.0476
  798TIP3    H226590   7.431   4.562   9.599  0.4932  0.3709 -0.3977
  799TIP3   OH226591   1.606   1.004   9.852 -0.1715  0.2310  0.2910
  799TIP3    H126592   1.559   0.963   9.924  2.3341 -0.7813  1.4563
  799TIP3    H226593   1.581   0.953   9.775 -0.2755 -0.8443  1.0154
  800TIP3   OH226594   1.700   4.316   0.349  0.2503  0.5327  0.1495
  800TIP3    H126595   1.629   4.379   0.356  1.6070  2.1000  0.7012
  800TIP3    H226596   1.737   4.330   0.262  1.2709  1.3566  0.6902
  801TIP3   OH226597   6.503   7.581   9.031  0.2436 -0.1765  0.2332
  801TIP3    H126598   6.450   7.516   9.078 -0.0863  0.8287  1.3156
  801TIP3    H226599   6.504   7.657   9.089 -1.2497  1.6250 -1.9280
  802TIP3   OH226600   3.447   0.323   0.269 -0.2223  0.2883 -0.0823
  802TIP3    H126601   3.404   0.258   0.325  0.7564  0.6994  1.2004
  802TIP3    H226602   3.422   0.298   0.180  1.2057 -2.7077  0.2192
  803TIP3   OH226603   1.661   6.821   8.144  0.1735 -0.0855 -0.7336
  803TIP3    H126604   1.603   6.745   8.151 -2.5693  1.9675  0.2926
  803TIP3    H226605   1.698   6.831   8.232 -0.6167  0.5646 -0.4598
  804TIP3   OH226606   5.533   1.434   8.324  0.0873 -0.4726  0.7373
  804TIP3    H126607   5.501   1.355   8.280 -0.3734  0.5796 -0.8984
  804TIP3    H226608   5.625   1.415   8.344  0.8695 -0.3649 -2.3501
  805TIP3   OH226609   6.378   4.091   1.078 -0.6436  0.5554  0.4820
  805TIP3    H126610   6.372   4.066   1.170 -0.7170  0.4082  0.4367
  805TIP3    H226611   6.461   4.055   1.048 -1.2269 -0.5609  0.1343
  806TIP3   OH226612   6.722   2.060   2.376  0.3296  0.1753  0.0694
  806TIP3    H126613   6.775   2.046   2.298 -0.8405 -0.4888 -0.6455
  806TIP3    H226614   6.710   2.155   2.379  0.7046  0.2394 -0.3544
  807TIP3   OH226615   0.280   6.796   9.687  0.0891 -0.1972  0.6618
  807TIP3    H126616   0.251   6.852   9.759 -0.3567  1.1949 -0.5348
  807TIP3    H226617   0.285   6.855   9.612  1.0135 -1.5002 -0.3450
  808TIP3   OH226618   6.739   0.556   1.993 -0.5189 -0.2505 -0.4000
  808TIP3    H126619   6.794   0.484   1.963 -0.4503 -0.1234 -0.5849
  808TIP3    H226620   6.656   0.515   2.016 -0.0728 -0.5698  0.7006
  809TIP3   OH226621   7.418   4.255   1.994  0.2860  0.5032  0.0753
  809TIP3    H126622   7.356   4.328   1.999  0.4837  0.6336  0.6553
  809TIP3    H226623   7.449   4.244   2.083  0.3426 -0.2245 -0.0329
  810TIP3   OH226624   3.059   7.204   0.652 -0.4770  0.5709 -0.7276
  810TIP3    H126625   3.018   7.195   0.566  1.2839 -1.1134 -1.4767
  810TIP3    H226626   3.020   7.134   0.705  0.1794  0.0528 -0.9196
  811TIP3   OH226627   7.537   1.108   1.377  0.5315 -0.4458 -0.0949
  811TIP3    H126628   7.524   1.074   1.466 -1.3406 -0.5073 -0.3520
  811TIP3    H226629   7.631   1.125   1.372  0.9298 -1.8797  1.3708
  812TIP3   OH226630   2.421   0.492   2.321  0.5250  0.1703 -0.0689
  812TIP3    H126631   2.418   0.412   2.268 -0.0112 -0.5637  1.0245
  812TIP3    H226632   2.415   0.563   2.257 -1.1292 -0.6902 -0.9446
  813TIP3   OH226633   6.953   5.484   0.088 -0.3221 -0.4278 -0.4150
  813TIP3    H126634   6.943   5.396   0.123  1.2587  0.0330  1.3541
  813TIP3    H226635   6.959   5.540   0.166 -0.4676  1.1554 -1.4905
  814TIP3   OH226636   2.107   6.963   9.494  0.0178  0.2616  0.3263
  814TIP3    H126637   2.141   6.876   9.514  0.6953  0.3384 -0.4205
  814TIP3    H226638   2.170   7.023   9.533 -0.2797  0.4181  0.5688
  815TIP3   OH226639   4.588   3.977   9.880  0.0339  1.0147 -0.1060
  815TIP3    H126640   4.653   4.025   9.932  0.8910  0.4359 -0.6146
  815TIP3    H226641   4.561   3.905   9.937  0.6866  0.6024 -0.3082
  816TIP3   OH226642   6.312   2.200   7.884  0.3691  0.3807  0.1699
  816TIP3    H126643   6.267   2.248   7.815  0.6164 -0.5240 -0.6450
  816TIP3    H226644   6.405   2.213   7.866  0.4515 -0.6966 -0.3159
  817TIP3   OH226645   2.928   2.592   7.963 -0.9134 -0.0344  0.1348
  817TIP3    H126646   2.961   2.652   7.896  0.2093  0.1340  0.8030
  817TIP3    H226647   2.893   2.649   8.032 -2.1113 -0.2063 -0.3181
  818TIP3   OH226648   3.996   5.349   1.665 -0.0629  0.3690 -0.3339
  818TIP3    H126649   4.062   5.371   1.599 -0.6045 -1.5690 -1.6062
  818TIP3    H226650   4.009   5.256   1.681 -0.8168  0.5326  1.3550
  819TIP3   OH226651   7.458   3.711   1.656  0.9312  0.2907  0.0625
  819TIP3    H126652   7.493   3.787   1.704  0.8743  0.4184 -0.0958
  819TIP3    H226653   7.521   3.641   1.672  0.0762 -0.1690  1.7149
  820TIP3   OH226654   3.182   5.511   9.614  0.3280 -0.3258  0.3698
  820TIP3    H126655   3.146   5.493   9.701  0.7697 -3.9198 -0.0653
  820TIP3    H226656   3.237   5.436   9.595  2.9000  1.8951 -1.7285
  821TIP3   OH226657   1.453   6.763   7.706  0.0262  0.2645  0.2051
  821TIP3    H126658   1.393   6.713   7.650  1.9692 -0.7345 -1.0797
  821TIP3    H226659   1.450   6.718   7.790 -0.5077 -0.1825 -0.0443
  822TIP3   OH226660   7.309   0.647   7.331  0.2082 -0.0737 -0.1507
  822TIP3    H126661   7.389   0.700   7.333 -0.9758  1.8478 -0.5635
  822TIP3    H226662   7.301   0.618   7.241  1.1643 -1.5285  0.1963
  823TIP3   OH226663   6.341   1.596   1.043  0.3566  0.4612 -0.0813
  823TIP3    H126664   6.375   1.551   0.966 -0.7641  1.0872 -0.9620
  823TIP3    H226665   6.271   1.539   1.075 -1.1565  1.5930 -1.2784
  824TIP3   OH226666   0.412   5.614   9.194 -0.2498  0.3244  0.1900
  824TIP3    H126667   0.328   5.610   9.147  0.1954 -1.0585 -0.5170
  824TIP3    H226668   0.409   5.699   9.239 -0.9883  1.4048 -1.7846
  825TIP3   OH226669   5.088   6.543   8.339  0.6431 -0.0947 -0.2669
  825TIP3    H126670   5.165   6.583   8.298  1.6144 -1.7700 -0.1520
  825TIP3    H226671   5.075   6.461   8.292  0.4731 -1.0460  1.3666
  826TIP3   OH226672   1.617   5.797   2.579  0.2593 -0.2329  0.1873
  826TIP3    H126673   1.558   5.760   2.644  0.4614  0.0519  0.5396
  826TIP3    H226674   1.690   5.735   2.574  0.4252 -0.0664  0.5128
  827TIP3   OH226675   4.052   5.026   0.152  0.1983 -0.2528 -0.0414
  827TIP3    H126676   4.015   4.958   0.095  0.6802 -0.2412 -0.3755
  827TIP3    H226677   4.052   5.105   0.099  1.6570 -0.4781 -0.4284
  828TIP3   OH226678   2.381   5.751   8.712  0.0128  0.0148  0.1249
  828TIP3    H126679   2.296   5.778   8.676  0.2832  1.0190  0.2307
  828TIP3    H226680   2.358   5.682   8.776 -0.7446  0.4281  0.3167
  829TIP3   OH226681   0.286   7.617   2.442 -0.5690  0.1688 -0.4311
  829TIP3    H126682   0.356   7.609   2.506  2.1389  0.2487 -3.1175
  829TIP3    H226683   0.283   7.532   2.398 -2.3408  0.1068 -0.2728
  830TIP3   OH226684   0.911   6.369   8.358  0.0184  0.2561 -0.1422
  830TIP3    H126685   0.946   6.280   8.354 -0.0548  0.1683  0.8167
  830TIP3    H226686   0.945   6.405   8.440 -0.2170  0.9997 -0.3586
  831TIP3   OH226687   3.890   6.973   9.955  0.1300 -0.0695 -0.2458
  831TIP3    H126688   3.839   7.031  10.010  0.5261  0.9809 -0.9511
  831TIP3    H226689   3.981   6.999   9.970  0.4844 -1.8398  0.9115
  832TIP3   OH226690   6.851   6.464   0.670  0.1104  0.0356  0.1344
  832TIP3    H126691   6.762   6.494   0.654  0.2513  0.3110 -0.1596
  832TIP3    H226692   6.904   6.510   0.604  0.8055  1.6697  1.7498
  833TIP3   OH226693   2.937   5.994   3.009 -0.5619 -0.3228 -0.3757
  833TIP3    H126694   2.983   5.936   3.069 -2.6895  0.1667  1.8936
  833TIP3    H226695   3.003   6.020   2.945  2.0545 -0.3709  2.1183
  834TIP3   OH226696   4.436   3.761   8.586 -1.0165  0.3814  0.0878
  834TIP3    H126697   4.442   3.667   8.571 -1.5010  0.5975 -1.6380
  834TIP3    H226698   4.505   3.798   8.531 -0.5955  1.0311  1.0255
  835TIP3   OH226699   0.882   2.920   0.172  0.4248 -0.3101  0.4814
  835TIP3    H126700   0.839   2.883   0.249  3.0195  0.7629  2.5788
  835TIP3    H226701   0.841   3.006   0.161  0.7459 -0.0515  1.2913
  836TIP3   OH226702   2.558   1.935   2.843 -0.0903  0.3601  0.2092
  836TIP3    H126703   2.592   2.007   2.896 -0.1064  1.0668 -0.7196
  836TIP3    H226704   2.620   1.927   2.770 -0.5123 -0.0506 -0.1099
  837TIP3   OH226705   5.746   0.529   1.864  0.0855  0.2555  0.5398
  837TIP3    H126706   5.722   0.437   1.874 -0.8940  0.5479  1.0262
  837TIP3    H226707   5.730   0.568   1.950  0.9445  0.7914  0.4782
  838TIP3   OH226708   4.503   6.522   9.258  0.3003 -0.4237  0.3729
  838TIP3    H126709   4.572   6.556   9.315 -0.4000  0.5675  0.6538
  838TIP3    H226710   4.536   6.538   9.169 -0.3937  1.9412  0.4723
  839TIP3   OH226711   1.593   0.410   2.726  0.2636 -0.1332 -0.0199
  839TIP3    H126712   1.593   0.476   2.795  0.6482  1.2041 -1.2436
  839TIP3    H226713   1.671   0.357   2.743 -0.4634 -0.7637  1.4129
  840TIP3   OH226714   5.896   2.059   8.378 -0.2625 -0.3425  0.1506
  840TIP3    H126715   5.860   2.080   8.464  1.2751  1.4203  0.4263
  840TIP3    H226716   5.899   2.142   8.331 -0.1369 -1.1047 -1.2545
  841TIP3   OH226717   0.778   2.044   0.589 -0.0003  0.0544  0.2683
  841TIP3    H126718   0.724   2.066   0.514 -0.2605  1.1835  0.7657
  841TIP3    H226719   0.782   2.125   0.641  0.3638 -0.6224  1.3426
  842TIP3   OH226720   0.527   2.541   9.065  0.0685  0.2048 -0.4883
  842TIP3    H126721   0.544   2.635   9.063  0.7892  0.0668 -1.1593
  842TIP3    H226722   0.525   2.519   9.158  0.3305  0.7999 -0.3368
  843TIP3   OH226723   7.042   0.091   9.359  0.2177 -0.6380  0.1817
  843TIP3    H126724   7.075   0.110   9.447  0.3137  0.1678 -0.0172
  843TIP3    H226725   7.120   0.071   9.307  0.3638  0.6231 -0.1304
  844TIP3   OH226726   7.146   0.407   9.139 -0.3035 -0.1310 -0.1709
  844TIP3    H126727   7.150   0.390   9.045 -0.8556 -1.0336 -0.0431
  844TIP3    H226728   7.171   0.324   9.179 -1.4436 -0.1912  0.4730
  845TIP3   OH226729   0.991   1.058   9.643 -0.0523  0.5008 -0.2135
  845TIP3    H126730   0.997   1.140   9.693 -0.3162  0.6249 -0.3856
  845TIP3    H226731   0.957   1.085   9.558  1.7419  0.5132 -0.9776
  846TIP3   OH226732   1.801   0.804   1.020 -0.2241 -0.7131  0.2158
  846TIP3    H126733   1.864   0.809   1.091  0.9357  0.8779 -0.8481
  846TIP3    H226734   1.732   0.867   1.044  0.6889  0.6092 -0.4973
  847TIP3   OH226735   5.050   7.657   1.581  0.0930  0.1347  0.1166
  847TIP3    H126736   5.100   7.739   1.583  0.2606  0.0273  0.4365
  847TIP3    H226737   4.967   7.680   1.539  0.4971  0.2674 -0.6196
  848TIP3   OH226738   1.909   2.812   9.067 -0.0508 -0.0375 -0.3145
  848TIP3    H126739   1.815   2.830   9.062 -0.0437  0.1106  0.0287
  848TIP3    H226740   1.943   2.840   8.982 -0.6353 -2.1505 -1.2953
  849TIP3   OH226741   3.748   6.790   2.834 -0.0009 -0.2376 -0.2867
  849TIP3    H126742   3.815   6.754   2.776  1.2671  0.6289  0.5769
  849TIP3    H226743   3.669   6.741   2.813  0.7564 -0.8905 -1.7549
  850TIP3   OH226744   5.701   2.982   0.121 -0.5237  0.2657  0.1506
  850TIP3    H126745   5.735   3.068   0.147  0.1827 -0.6110  2.3274
  850TIP3    H226746   5.761   2.919   0.161 -1.8756 -1.2661 -0.1391
  851TIP3   OH226747   0.522   3.606   7.534  0.1153 -0.0412  0.0319
  851TIP3    H126748   0.516   3.701   7.545  0.5197  0.0875 -0.7341
  851TIP3    H226749   0.502   3.570   7.620  0.6595  0.7686  0.5108
  852TIP3   OH226750   7.658   6.555   1.516 -0.7379 -0.9430  0.1605
  852TIP3    H126751   7.599   6.601   1.456 -2.0815 -2.1188  0.5341
  852TIP3    H226752   7.653   6.463   1.490  2.0699 -0.9579 -0.7153
  853TIP3   OH226753   7.491   3.958   8.078  0.1043  0.0291 -0.2520
  853TIP3    H126754   7.564   3.970   8.139 -0.1861 -0.6136  0.2290
  853TIP3    H226755   7.528   3.980   7.992  0.3797  1.4179  0.2018
  854TIP3   OH226756   4.161   7.006   9.407  0.0434  0.0506  0.2528
  854TIP3    H126757   4.223   7.030   9.337 -1.7039  2.1253 -0.6951
  854TIP3    H226758   4.155   6.911   9.402  1.7133 -0.0494 -0.8475
  855TIP3   OH226759   5.124   6.998   2.097 -0.1292  0.8130  0.9720
  855TIP3    H126760   5.125   6.953   2.181  1.3948  2.2692  1.7926
  855TIP3    H226761   5.041   7.046   2.096 -0.4093  0.3383  1.3957
  856TIP3   OH226762   2.375   5.945   2.336 -0.5069 -0.3789 -0.2007
  856TIP3    H126763   2.285   5.945   2.304 -0.9569 -0.1189  0.9897
  856TIP3    H226764   2.429   5.948   2.258 -1.5341 -0.6393 -0.9363
  857TIP3   OH226765   2.015   5.695   7.299 -0.1129  0.4328  0.4323
  857TIP3    H126766   2.073   5.765   7.269 -0.5198  1.4698  1.9414
  857TIP3    H226767   2.072   5.638   7.351  0.0089  0.2058  0.0521
  858TIP3   OH226768   2.702   3.579   0.392 -0.9153  0.3588  0.0892
  858TIP3    H126769   2.786   3.557   0.352 -1.0945  1.2317 -0.8186
  858TIP3    H226770   2.637   3.540   0.334 -1.1660  0.9002  0.0022
  859TIP3   OH226771   2.997   6.764   0.827 -0.6174  0.9435  0.2332
  859TIP3    H126772   2.926   6.702   0.812 -0.3596  0.5533  0.5904
  859TIP3    H226773   2.967   6.845   0.787 -1.1338  0.6987  0.1148
  860TIP3   OH226774   1.883   3.456   0.401  0.1062  0.5277  0.2184
  860TIP3    H126775   1.880   3.552   0.409 -0.0068  0.5188  0.2903
  860TIP3    H226776   1.928   3.440   0.318  1.8172  0.6125  1.0925
  861TIP3   OH226777   7.004   1.988   0.984  0.2748 -0.2086  0.3822
  861TIP3    H126778   7.041   1.995   1.073 -1.3159  2.3501  0.9461
  861TIP3    H226779   6.910   1.986   0.997  0.0219 -1.9442 -1.2388
  862TIP3   OH226780   2.902   3.405   7.532 -0.3694 -0.1086  0.0036
  862TIP3    H126781   2.859   3.352   7.466 -2.5262  1.1543  0.2967
  862TIP3    H226782   2.899   3.352   7.612 -0.1829 -0.5557 -0.2858
  863TIP3   OH226783   4.184   0.567   9.106 -0.2148 -0.5011  0.0546
  863TIP3    H126784   4.089   0.577   9.110 -0.1852  0.6843 -1.3184
  863TIP3    H226785   4.216   0.650   9.070  1.3524 -0.8400  0.5899
  864TIP3   OH226786   3.786   0.363   1.713 -0.3891 -0.6119  0.4718
  864TIP3    H126787   3.714   0.409   1.757 -1.6212 -1.1143 -0.9042
  864TIP3    H226788   3.742   0.298   1.658  0.8602  1.0341 -2.7723
  865TIP3   OH226789   5.209   0.459   8.424  0.3057 -0.0885  0.6969
  865TIP3    H126790   5.160   0.440   8.344  2.2111  0.3890 -0.6601
  865TIP3    H226791   5.151   0.515   8.476 -0.8531 -0.1646 -0.4811
  866TIP3   OH226792   3.267   4.140   1.507  0.1088  0.1022  0.8644
  866TIP3    H126793   3.272   4.183   1.593  1.2984  1.1603  0.3062
  866TIP3    H226794   3.347   4.088   1.502  0.1455  0.2039  0.3249
  867TIP3   OH226795   5.991   1.940   2.253  0.5277 -0.7161  0.0833
  867TIP3    H126796   5.911   1.966   2.208 -0.3011 -1.1831  1.2446
  867TIP3    H226797   6.057   2.002   2.222  0.1089 -1.2781 -2.0689
  868TIP3   OH226798   6.495   4.863   1.280  0.3584  0.2490 -0.0601
  868TIP3    H126799   6.408   4.879   1.316 -0.0595  1.1796 -1.4091
  868TIP3    H226800   6.524   4.782   1.322 -0.8016  0.3750  1.0359
  869TIP3   OH226801   1.302   6.702   8.970  0.3598 -0.6688 -0.1605
  869TIP3    H126802   1.223   6.651   8.951 -0.7666  0.9420 -0.0411
  869TIP3    H226803   1.343   6.717   8.885 -1.6149  1.7593 -0.7783
  870TIP3   OH226804   5.622   0.507   9.919  0.2204 -0.2655 -0.3599
  870TIP3    H126805   5.618   0.598   9.947  0.3388 -0.1502 -0.7110
  870TIP3    H226806   5.530   0.480   9.912  0.1968 -0.5219  0.8524
  871TIP3   OH226807   0.753   2.698   8.280 -0.3607 -0.7855 -0.0499
  871TIP3    H126808   0.765   2.727   8.371  1.4372 -0.8073 -0.2423
  871TIP3    H226809   0.731   2.605   8.288 -2.6770 -0.2571  0.4211
  872TIP3   OH226810   1.173   0.744   2.957 -0.9592 -0.2706 -0.0311
  872TIP3    H126811   1.095   0.689   2.947 -2.0597  1.2731 -0.3182
  872TIP3    H226812   1.151   0.806   3.026  0.0179  0.2131 -0.1298
  873TIP3   OH226813   7.518   1.045   9.830 -0.3371 -0.0332  0.0929
  873TIP3    H126814   7.609   1.058   9.857  0.4388 -2.5971 -1.0455
  873TIP3    H226815   7.475   1.011   9.909  0.0399 -0.1904  0.2339
  874TIP3   OH226816   4.340   2.827   9.551  0.3633  0.0842  0.2686
  874TIP3    H126817   4.248   2.809   9.531  0.3893  0.7481 -0.5284
  874TIP3    H226818   4.347   2.818   9.646 -0.0874 -1.8755  0.1469
  875TIP3   OH226819   3.874   7.236   9.514 -0.0675 -0.5478 -0.3294
  875TIP3    H126820   3.860   7.330   9.523  0.7432 -0.4382 -0.0764
  875TIP3    H226821   3.862   7.218   9.421  1.6112  0.1465 -0.7125
  876TIP3   OH226822   5.668   1.839   9.084 -0.4614  0.6905 -0.2829
  876TIP3    H126823   5.611   1.905   9.124  0.9457  1.9186 -0.2162
  876TIP3    H226824   5.655   1.849   8.990 -0.8640  0.4803 -0.2525
  877TIP3   OH226825   7.181   6.481   8.187  0.5852  0.0965  0.1199
  877TIP3    H126826   7.260   6.526   8.158  1.1158 -0.2163  1.0246
  877TIP3    H226827   7.123   6.551   8.218  1.2909  0.2148  1.2557
  878TIP3   OH226828   7.307   5.583   8.948  0.5085 -0.2051 -0.3200
  878TIP3    H126829   7.362   5.505   8.959  1.8660  0.8321  0.6698
  878TIP3    H226830   7.312   5.603   8.855 -0.0334 -1.4186 -0.6211
  879TIP3   OH226831   2.312   5.397   1.140 -1.1487 -0.8558 -0.0490
  879TIP3    H126832   2.277   5.442   1.217 -1.1912 -0.7624 -0.1227
  879TIP3    H226833   2.407   5.409   1.146 -1.2177  0.0231 -0.5455
  880TIP3   OH226834   4.475   0.161   1.494  0.3750 -0.1522  0.2643
  880TIP3    H126835   4.464   0.067   1.507  2.9413 -0.3237  2.0649
  880TIP3    H226836   4.405   0.202   1.545 -1.2430 -1.0041 -1.1583
  881TIP3   OH226837   2.888   5.814   0.271 -0.0555 -0.1254  0.5448
  881TIP3    H126838   2.831   5.849   0.339 -1.4160  2.8251 -1.8447
  881TIP3    H226839   2.920   5.891   0.224  2.5353 -1.8905 -0.8955
  882TIP3   OH226840   6.520   2.480   1.406  0.4496  0.0338  0.3560
  882TIP3    H126841   6.596   2.428   1.429  0.4647  0.2947  0.9145
  882TIP3    H226842   6.515   2.475   1.311  1.9197  1.0793  0.2089
  883TIP3   OH226843   3.298   6.238   8.428 -0.2161 -0.4124  0.0652
  883TIP3    H126844   3.240   6.314   8.434  2.1836  1.5022  0.7633
  883TIP3    H226845   3.348   6.238   8.509  1.0871 -1.6787 -0.6713
  884TIP3   OH226846   0.513   0.363   0.638 -0.2340 -0.1067 -0.1686
  884TIP3    H126847   0.521   0.459   0.642 -1.0279 -0.0143 -0.6076
  884TIP3    H226848   0.565   0.338   0.562  2.0177 -0.3015  1.3277
  885TIP3   OH226849   5.196   6.533   8.024  0.0914 -0.0207 -0.3607
  885TIP3    H126850   5.251   6.474   8.075  1.3949  0.9261 -0.5937
  885TIP3    H226851   5.242   6.618   8.028 -0.0760  0.2516 -2.5270
  886TIP3   OH226852   7.364   2.763   9.927 -0.0937 -0.1672 -0.2626
  886TIP3    H126853   7.271   2.749   9.908 -1.1424 -2.1154  4.6596
  886TIP3    H226854   7.372   2.857   9.939 -1.3999  0.0563 -0.9445
  887TIP3   OH226855   7.295   0.738   8.366 -0.1564  0.2798  0.0994
  887TIP3    H126856   7.378   0.771   8.399 -0.6572  1.0067  0.6506
  887TIP3    H226857   7.317   0.701   8.280  0.7776  0.2117  0.3524
  888TIP3   OH226858   1.555   5.245   1.829 -0.0643  0.3575  0.1168
  888TIP3    H126859   1.623   5.208   1.772 -0.0512  0.0120  0.3522
  888TIP3    H226860   1.474   5.238   1.778  0.0686  0.7557 -0.1589
  889TIP3   OH226861   3.172   6.690   0.087 -0.1521 -0.4763 -0.2449
  889TIP3    H126862   3.090   6.727   0.119 -0.0129 -0.5148  0.1656
  889TIP3    H226863   3.173   6.710  -0.007  1.7372  4.1888  0.4911
  890TIP3   OH226864   1.825   5.110   8.865 -0.0230  0.5226  0.1807
  890TIP3    H126865   1.783   5.067   8.790  0.8055 -0.7849  0.4346
  890TIP3    H226866   1.887   5.046   8.898  0.4673  1.5205  1.2863
  891TIP3   OH226867   1.170   5.292   1.590  0.3920  0.1277  0.0718
  891TIP3    H126868   1.080   5.273   1.566 -0.6720  0.1336  3.5468
  891TIP3    H226869   1.183   5.383   1.562 -0.8924  0.3405  0.1147
  892TIP3   OH226870   4.123   7.445   2.542 -0.1439 -0.0712 -0.0764
  892TIP3    H126871   4.126   7.383   2.615 -1.0660 -0.8814 -0.7088
  892TIP3    H226872   4.215   7.468   2.528  0.0381  0.3252  1.5009
  893TIP3   OH226873   5.740   7.662   7.924 -0.2501 -0.2740  0.0796
  893TIP3    H126874   5.770   7.703   8.006  0.5718 -0.2475 -0.2271
  893TIP3    H226875   5.771   7.572   7.930 -1.2617 -0.6179  0.3384
  894TIP3   OH226876   5.021   6.281   8.293  0.0022  0.0070  0.1960
  894TIP3    H126877   5.099   6.235   8.324 -0.7004 -0.9968  0.5533
  894TIP3    H226878   5.028   6.280   8.198  2.2811  3.2891  0.1693
  895TIP3   OH226879   4.370   2.414   0.392  0.1062  0.1973  0.3201
  895TIP3    H126880   4.327   2.388   0.473  1.9704 -0.3474  1.1955
  895TIP3    H226881   4.449   2.459   0.421 -0.0574  1.5319 -1.2147
  896TIP3   OH226882   5.481   2.697   9.328  0.3049 -0.4321 -0.2549
  896TIP3    H126883   5.417   2.696   9.256  1.7721  0.6455 -1.6470
  896TIP3    H226884   5.444   2.759   9.391  0.0988  0.4354 -1.1908
  897TIP3   OH226885   1.073   5.669   1.856 -0.3794  0.6013  0.5876
  897TIP3    H126886   1.007   5.711   1.912  1.2340  0.7468  2.4692
  897TIP3    H226887   1.117   5.741   1.812 -0.7532  0.5642  0.1427
  898TIP3   OH226888   2.773   7.003   1.940  0.0449  0.6034 -0.4951
  898TIP3    H126889   2.697   6.985   1.995 -0.1121 -0.9831 -1.1881
  898TIP3    H226890   2.846   7.013   2.002 -0.2660 -0.4088  0.0514
  899TIP3   OH226891   3.429   3.033   8.007 -0.6900 -0.0384 -0.1007
  899TIP3    H126892   3.467   3.118   7.982  0.2762 -0.1236  0.9786
  899TIP3    H226893   3.440   2.978   7.930  1.1197  0.0515  0.0391
  900TIP3   OH226894   2.677   0.828   8.419 -0.6766 -0.3566 -0.2502
  900TIP3    H126895   2.723   0.772   8.356  0.5917 -1.0343  1.2014
  900TIP3    H226896   2.636   0.896   8.365 -0.6983 -1.5996 -1.8963
  901TIP3   OH226897   2.776   1.965   2.167 -0.2537  0.0375 -0.3556
  901TIP3    H126898   2.787   1.919   2.250  0.1126  1.4666  0.4155
  901TIP3    H226899   2.830   2.044   2.176 -0.7213  0.5335 -1.7003
  902TIP3   OH226900   2.552   3.091   2.955 -0.0821 -0.8240  0.1678
  902TIP3    H126901   2.502   3.089   2.873  0.2663 -2.2135 -0.0410
  902TIP3    H226902   2.594   3.005   2.959  1.2287 -0.1762  0.9942
  903TIP3   OH226903   0.601   2.432   7.831  0.1406  0.1873 -0.0269
  903TIP3    H126904   0.576   2.430   7.923 -0.5050 -1.0704 -0.1999
  903TIP3    H226905   0.535   2.486   7.788 -1.3792 -1.6837 -0.1987
  904TIP3   OH226906   2.769   4.389   7.098  0.3461 -0.6469 -0.4288
  904TIP3    H126907   2.737   4.365   7.011 -0.5372 -1.5274  0.1100
  904TIP3    H226908   2.724   4.328   7.157 -0.6831  1.2431  0.8568
  905TIP3   OH226909   3.864   2.766   7.211  0.2533  0.0462  0.3005
  905TIP3    H126910   3.933   2.803   7.266  0.5649 -1.7437  1.1891
  905TIP3    H226911   3.879   2.805   7.125  0.8418  1.5557  1.0449
  906TIP3   OH226912   6.790   0.287   0.216 -0.4441  0.1971  0.0120
  906TIP3    H126913   6.810   0.197   0.241 -0.1640  0.2440 -0.0512
  906TIP3    H226914   6.704   0.281   0.173 -0.8066  0.0769  0.7317
  907TIP3   OH226915   5.480   4.849   0.726  0.0666 -0.0103  0.0525
  907TIP3    H126916   5.493   4.877   0.816 -1.4918 -0.9153  0.5961
  907TIP3    H226917   5.386   4.854   0.712  0.0998 -1.4789 -0.9570
  908TIP3   OH226918   6.021   0.524   0.694 -0.0958 -0.2296  0.5427
  908TIP3    H126919   6.104   0.546   0.737  0.0270  1.6167 -0.5235
  908TIP3    H226920   6.044   0.512   0.602 -0.5817 -2.7200  0.6941
  909TIP3   OH226921   5.713   0.072   8.373 -0.2653  0.3257 -0.0484
  909TIP3    H126922   5.774   0.018   8.423  0.0400 -0.7683 -1.5256
  909TIP3    H226923   5.658   0.115   8.439  1.6056  0.7793  1.2867
  910TIP3   OH226924   0.194   6.760   8.456 -0.1700  0.2674  0.4058
  910TIP3    H126925   0.144   6.773   8.375 -0.3497 -0.4550  0.3927
  910TIP3    H226926   0.127   6.749   8.524 -0.0467 -0.5380  0.4146
  911TIP3   OH226927   7.143   2.049   1.235 -0.1248  0.5664 -0.2720
  911TIP3    H126928   7.077   2.085   1.294 -0.6311 -0.9140  0.0859
  911TIP3    H226929   7.176   2.126   1.188 -1.9952  1.3689 -0.3767
  912TIP3   OH226930   1.981   1.917   2.747 -0.3518  0.1780 -0.0411
  912TIP3    H126931   2.058   1.973   2.741 -0.3674  0.2499  0.3995
  912TIP3    H226932   2.012   1.839   2.792 -0.4567  0.0562 -0.1783
  913TIP3   OH226933   2.099   3.631   9.801 -0.3130 -0.2781  0.0931
  913TIP3    H126934   2.107   3.559   9.862 -1.6953 -0.6782 -0.1565
  913TIP3    H226935   2.029   3.686   9.837 -2.9026 -1.7681 -2.2244
  914TIP3   OH226936   0.915   1.416   1.501 -0.1553  0.4348  0.0750
  914TIP3    H126937   0.870   1.344   1.546 -0.2544 -0.2028 -1.0208
  914TIP3    H226938   1.007   1.393   1.503 -0.3194 -0.4866 -1.5608
  915TIP3   OH226939   4.082   7.659   2.150 -0.1523  0.3944  0.1859
  915TIP3    H126940   4.043   7.605   2.081  2.1261 -1.0588 -0.0939
  915TIP3    H226941   4.009   7.711   2.184 -1.6853  0.0266 -2.2299
  916TIP3   OH226942   0.231   7.594   8.633 -0.3738  0.0863 -0.5833
  916TIP3    H126943   0.297   7.537   8.674 -0.0829  0.6827 -0.2013
  916TIP3    H226944   0.227   7.565   8.542  1.1237  0.6506 -0.8666
  917TIP3   OH226945   4.539   4.894   8.666  0.2874  0.1995  0.2334
  917TIP3    H126946   4.580   4.865   8.747  2.1114  0.4915 -0.5404
  917TIP3    H226947   4.448   4.913   8.690  0.8550  0.5535  2.2537
  918TIP3   OH226948   2.513   0.640   1.730 -0.2020  0.2476 -0.5691
  918TIP3    H126949   2.488   0.707   1.794  1.3919  0.1821  0.1742
  918TIP3    H226950   2.572   0.685   1.670  1.7529 -0.6796  0.5628
  919TIP3   OH226951   7.226   1.946   2.846  0.5369 -0.2062 -0.2299
  919TIP3    H126952   7.204   1.885   2.776 -2.6482  0.5885 -0.0616
  919TIP3    H226953   7.230   2.031   2.803  1.0682 -0.0200  0.1734
  920TIP3   OH226954   6.629   5.596   9.658  0.2417  0.0161  0.5385
  920TIP3    H126955   6.699   5.606   9.722  0.0414 -0.8066  0.8935
  920TIP3    H226956   6.623   5.502   9.643 -0.4959  0.1110  0.1851
  921TIP3   OH226957   1.485   1.401   8.565 -0.0681 -0.5032 -0.3533
  921TIP3    H126958   1.538   1.426   8.490 -0.9987 -0.0115 -0.8700
  921TIP3    H226959   1.396   1.393   8.530  0.0171 -3.9613 -0.0990
  922TIP3   OH226960   4.156   6.523   9.303  0.2853 -0.2985 -0.0265
  922TIP3    H126961   4.149   6.434   9.268 -1.1902  0.0923 -0.8208
  922TIP3    H226962   4.087   6.572   9.258  1.0893  1.2649  0.3668
  923TIP3   OH226963   0.700   3.925   9.576  0.1612 -0.3539 -0.1239
  923TIP3    H126964   0.727   3.834   9.571  0.2935 -0.2973 -0.5213
  923TIP3    H226965   0.704   3.956   9.485 -0.6283 -0.1704 -0.1048
  924TIP3   OH226966   5.267   1.265   8.471 -0.2397  1.1915 -0.1180
  924TIP3    H126967   5.271   1.284   8.377 -0.3832  0.5442 -0.2573
  924TIP3    H226968   5.199   1.199   8.479  2.5950 -1.9521 -0.0850
  925TIP3   OH226969   0.274   0.938   2.778  0.5325 -0.3128  0.1451
  925TIP3    H126970   0.181   0.916   2.764  0.9442 -2.0157 -0.2051
  925TIP3    H226971   0.284   0.939   2.873  0.7223 -3.1045  0.2446
  926TIP3   OH226972   1.570   0.734   2.062 -0.6536 -0.1248  0.2744
  926TIP3    H126973   1.610   0.647   2.071 -0.3656  0.1345  1.7655
  926TIP3    H226974   1.642   0.795   2.077 -0.7991  0.4037 -1.0120
  927TIP3   OH226975   6.196   4.034   1.627  0.1252  0.3142  1.0113
  927TIP3    H126976   6.140   4.009   1.701 -0.6230  1.2868  0.7881
  927TIP3    H226977   6.186   3.962   1.565  2.0904 -1.3759  2.5122
  928TIP3   OH226978   1.697   5.917   9.818  0.1777 -0.0004  0.8034
  928TIP3    H126979   1.707   5.919   9.913 -1.2788  0.5571  0.9658
  928TIP3    H226980   1.612   5.875   9.804  0.4789 -0.2625 -0.2528
  929TIP3   OH226981   3.822   1.166   1.709 -0.3270  0.2175 -0.6088
  929TIP3    H126982   3.848   1.106   1.639  1.5778  1.8215 -1.3900
  929TIP3    H226983   3.773   1.235   1.665 -2.2564 -0.5277  0.2375
  930TIP3   OH226984   1.416   0.998   9.467 -0.6797 -0.2261 -0.4093
  930TIP3    H126985   1.335   0.948   9.480 -1.1808  0.7484  0.3962
  930TIP3    H226986   1.479   0.958   9.526 -0.5125 -1.0908 -1.1555
  931TIP3   OH226987   7.128   6.291   9.081  0.5665 -0.5287  0.7471
  931TIP3    H126988   7.114   6.237   9.004  0.1642 -0.2202  0.6030
  931TIP3    H226989   7.165   6.231   9.146  0.4507 -0.8955  0.4761
  932TIP3   OH226990   0.944   7.056   0.011  0.2690  0.1948 -0.1967
  932TIP3    H126991   0.974   7.054  -0.080 -1.3616  0.6855 -0.7752
  932TIP3    H226992   1.007   7.001   0.058  0.8767 -0.4357 -1.6915
  933TIP3   OH226993   0.861   2.483   7.951  0.1494 -0.1563 -0.0629
  933TIP3    H126994   0.888   2.402   7.995  1.0197 -0.3425 -0.9093
  933TIP3    H226995   0.771   2.466   7.925 -0.4162 -0.0268  1.6526
  934TIP3   OH226996   3.017   0.206   1.699 -0.0339  0.3591  0.7908
  934TIP3    H126997   3.042   0.232   1.610  1.0822  3.3748  1.8472
  934TIP3    H226998   2.926   0.234   1.707 -0.0086  0.4639  0.7202
  935TIP3   OH226999   1.635   2.364   0.658  0.2812 -0.3176  0.1256
  935TIP3    H127000   1.613   2.452   0.690 -0.2297 -0.6847  0.8036
  935TIP3    H227001   1.590   2.357   0.574  0.5088  0.1484 -0.0404
  936TIP3   OH227002   7.316   1.158   9.170  0.6350 -0.7595  0.2841
  936TIP3    H127003   7.285   1.157   9.261  0.3483 -0.2787  0.1911
  936TIP3    H227004   7.269   1.085   9.129  0.0988 -0.4351  0.3059
  937TIP3   OH227005   0.190   0.612   9.943 -0.3062  0.1989 -0.0231
  937TIP3    H127006   0.101   0.609   9.980 -0.2243  0.3886  0.1912
  937TIP3    H227007   0.177   0.600   9.849 -0.4641 -0.9970  0.1303
  938TIP3   OH227008   6.037   6.385   9.561  0.0664 -0.4834 -0.0794
  938TIP3    H127009   6.086   6.446   9.616  0.0952 -0.0178 -0.6105
  938TIP3    H227010   6.101   6.318   9.537  0.0722 -0.6518  0.3816
  939TIP3   OH227011   0.673   0.312   9.339 -0.2970  0.2795 -0.1822
  939TIP3    H127012   0.622   0.391   9.358 -0.0813  0.3612  0.0553
  939TIP3    H227013   0.608   0.249   9.309 -0.3729  0.8014 -1.1680
  940TIP3   OH227014   0.988   6.611   7.676  0.1301  0.1852 -0.6937
  940TIP3    H127015   0.969   6.530   7.628  0.3075 -0.6296  0.5698
  940TIP3    H227016   0.914   6.623   7.734  1.0250 -0.1828  0.5629
  941TIP3   OH227017   2.522   5.813   0.168  0.4737 -0.3635 -0.2742
  941TIP3    H127018   2.438   5.851   0.141  0.3555  0.7489  1.5267
  941TIP3    H227019   2.588   5.872   0.131  0.3152  1.1105  1.6822
  942TIP3   OH227020   4.498   4.935   2.212 -0.2305  0.6565 -0.2744
  942TIP3    H127021   4.419   4.904   2.256  0.8407 -0.7898  0.7369
  942TIP3    H227022   4.548   4.979   2.280  1.0119 -0.7688 -0.1952
  943TIP3   OH227023   6.003   6.398   8.171 -0.3616  0.1284 -0.4160
  943TIP3    H127024   6.046   6.314   8.152 -0.3398  0.1234 -0.3476
  943TIP3    H227025   5.975   6.431   8.086  1.0067  0.7986 -0.6361
  944TIP3   OH227026   0.048   3.206   2.533 -0.3194 -0.1619 -0.4193
  944TIP3    H127027   0.034   3.152   2.455  1.7527  0.2032 -1.1141
  944TIP3    H227028   0.085   3.145   2.597  2.0590  0.3196 -1.2171
  945TIP3   OH227029   1.304   1.468   1.050  0.1541  0.1046  0.2763
  945TIP3    H127030   1.309   1.484   0.956  1.1754  0.5440  0.3932
  945TIP3    H227031   1.239   1.530   1.082 -0.6608 -0.4771 -0.2231
  946TIP3   OH227032   0.857   0.382   1.003 -0.0985 -0.4647 -0.0748
  946TIP3    H127033   0.781   0.334   0.970  0.0825 -0.2910 -0.7576
  946TIP3    H227034   0.825   0.472   1.016 -0.2093 -0.5677  0.3704
  947TIP3   OH227035   5.372   1.133   0.782  0.1461 -0.2985  0.0655
  947TIP3    H127036   5.356   1.068   0.851 -0.6567  0.1182  0.2910
  947TIP3    H227037   5.284   1.160   0.755  0.4006 -1.4461 -2.1030
  948TIP3   OH227038   7.386   0.397   2.382 -0.3103  0.0415  0.1811
  948TIP3    H127039   7.323   0.339   2.338 -1.3261  0.1561  1.4353
  948TIP3    H227040   7.333   0.471   2.412  0.9419  1.6153 -1.2775
  949TIP3   OH227041   1.794   4.722   0.045 -0.2488 -0.1205 -0.0893
  949TIP3    H127042   1.875   4.768   0.067  0.5648 -2.0412  1.2276
  949TIP3    H227043   1.735   4.743   0.118 -0.5709  0.4176 -0.5020
  950TIP3   OH227044   5.618   2.844   8.269  0.1800  0.1372 -0.0632
  950TIP3    H127045   5.594   2.931   8.301 -0.3335 -0.3742  1.0077
  950TIP3    H227046   5.611   2.788   8.347  0.8295 -0.7941 -0.6634
  951TIP3   OH227047   6.229   4.338   0.159  0.3220 -0.1226 -0.2456
  951TIP3    H127048   6.151   4.297   0.195  0.4359  1.8897  2.6825
  951TIP3    H227049   6.198   4.419   0.119  0.6241 -0.7271 -1.7776
  952TIP3   OH227050   5.127   5.376   0.544  0.1412 -0.4489 -0.3892
  952TIP3    H127051   5.082   5.313   0.487  1.8359 -1.0287 -1.1543
  952TIP3    H227052   5.218   5.374   0.514  0.6027  0.9842  0.8290
  953TIP3   OH227053   1.171   7.139   9.602 -0.9744  0.0374 -0.1602
  953TIP3    H127054   1.246   7.140   9.542 -0.9730 -0.1226 -0.1627
  953TIP3    H227055   1.126   7.222   9.587 -0.6053  0.2868  0.0852
  954TIP3   OH227056   0.055   0.991   3.010  0.1917 -0.2652  0.3778
  954TIP3    H127057   0.067   1.085   3.024  0.9406 -0.1284 -1.0128
  954TIP3    H227058   0.124   0.950   3.063  2.7423  0.2174 -2.3094
  955TIP3   OH227059   1.721   2.696   2.451 -0.2751  0.0826 -0.1531
  955TIP3    H127060   1.666   2.765   2.413  0.1401  0.7878  0.4869
  955TIP3    H227061   1.700   2.697   2.544 -2.8663 -3.0859 -0.5447
  956TIP3   OH227062   0.340   6.286   7.247  0.2004  0.1844  0.4398
  956TIP3    H127063   0.332   6.207   7.193  0.0896 -0.4584  1.3551
  956TIP3    H227064   0.427   6.321   7.227 -0.7269  1.3513 -1.9311
  957TIP3   OH227065   4.737   3.895   8.075 -0.0540  0.0411  0.0739
  957TIP3    H127066   4.671   3.873   8.141 -0.0808  2.3737  0.9425
  957TIP3    H227067   4.819   3.862   8.110 -0.1398  0.8793  1.1133
  958TIP3   OH227068   4.123   4.952   8.041 -0.5987 -0.0056 -0.2393
  958TIP3    H127069   4.055   5.019   8.051  0.1403  0.7432 -0.0942
  958TIP3    H227070   4.081   4.871   8.071  0.0200  1.2006  4.8583
  959TIP3   OH227071   0.668   2.033   9.993 -0.5596  0.5133 -0.0790
  959TIP3    H127072   0.662   2.075   9.908 -0.9237  3.2374  1.1946
  959TIP3    H227073   0.578   2.027  10.024 -0.5490 -1.5439 -0.3179
  960TIP3   OH227074   5.999   6.313   7.561 -0.2810  0.0108  0.0458
  960TIP3    H127075   5.955   6.240   7.604 -0.0752 -0.1307  0.0170
  960TIP3    H227076   5.941   6.337   7.489  0.6051 -1.4336 -1.1796
  961TIP3   OH227077   5.902   0.031   8.160 -0.0151 -0.3272  0.5821
  961TIP3    H127078   5.985  -0.005   8.191 -0.0600  0.1483  1.2678
  961TIP3    H227079   5.852   0.048   8.239 -0.9948 -1.1280  0.1500
  962TIP3   OH227080   0.203   6.199   2.271 -0.1926  0.2395  0.4196
  962TIP3    H127081   0.207   6.145   2.350  1.5670  0.8491  0.8010
  962TIP3    H227082   0.240   6.283   2.298 -2.7892  1.6796 -0.1735
  963TIP3   OH227083   5.235   0.270   1.388  0.0430  0.3222 -0.1066
  963TIP3    H127084   5.167   0.330   1.358  0.8035  0.5439 -1.4999
  963TIP3    H227085   5.310   0.289   1.332  0.8755 -0.7286  0.6004
  964TIP3   OH227086   2.898   6.155   1.072  0.1346  0.1513  0.2209
  964TIP3    H127087   2.930   6.227   1.019  0.0606 -0.6213 -0.9093
  964TIP3    H227088   2.803   6.156   1.059 -0.0017  0.5217  1.1044
  965TIP3   OH227089   3.086   4.109   9.031  0.2263  0.0119 -0.1395
  965TIP3    H127090   3.093   4.104   8.936 -0.1062 -0.9991 -0.1275
  965TIP3    H227091   3.176   4.111   9.063  0.3987 -1.8754 -0.3991
  966TIP3   OH227092   6.958   4.014   2.527 -0.1325  0.2680  0.0387
  966TIP3    H127093   6.982   4.103   2.502  0.2788  0.4771  1.1206
  966TIP3    H227094   7.009   3.997   2.607 -0.5768 -0.7550  0.1201
  967TIP3   OH227095   2.035   3.464   6.536 -0.1226 -0.6295 -0.3060
  967TIP3    H127096   2.114   3.414   6.513 -0.2390  0.1987 -2.8432
  967TIP3    H227097   1.969   3.397   6.555  0.9671 -1.3350  1.1956
  968TIP3   OH227098   5.966   0.362   8.639  0.6607  0.0315  0.2250
  968TIP3    H127099   5.988   0.313   8.560  0.9424  1.1573 -0.4087
  968TIP3    H227100   5.909   0.303   8.689  1.0517 -0.9586 -0.4819
  969TIP3   OH227101   0.599   1.280   7.198  0.1130  1.1628  0.1732
  969TIP3    H127102   0.643   1.208   7.242 -0.5783 -0.2021 -1.2780
  969TIP3    H227103   0.627   1.358   7.246 -1.2607 -0.2372  3.5693
  970TIP3   OH227104   0.506   6.530   1.211  0.5634 -0.0733  0.0194
  970TIP3    H127105   0.513   6.466   1.140 -1.1572 -0.2190 -0.0748
  970TIP3    H227106   0.567   6.599   1.187 -0.5210  0.2498 -2.0587
  971TIP3   OH227107   4.759   4.387   1.878  0.6036 -0.1592  0.2079
  971TIP3    H127108   4.675   4.356   1.844  0.0888  0.3415  0.9938
  971TIP3    H227109   4.801   4.309   1.914  0.1134 -0.2685  0.5466
  972TIP3   OH227110   1.905   7.414   2.322  0.1823  0.0075 -0.1846
  972TIP3    H127111   1.893   7.507   2.307 -0.9050 -0.4314 -2.4687
  972TIP3    H227112   1.816   7.380   2.334  0.6556 -0.5266  2.5567
  973TIP3   OH227113   0.435   1.687   8.878 -0.0952 -0.0201 -0.3781
  973TIP3    H127114   0.426   1.646   8.792 -0.3328 -1.8406  0.4751
  973TIP3    H227115   0.344   1.699   8.908 -0.0093  0.3115 -0.2513
  974TIP3   OH227116   1.397   1.411   1.326  0.1947  0.0959  0.2341
  974TIP3    H127117   1.481   1.431   1.368 -0.5266  0.7014  1.4156
  974TIP3    H227118   1.416   1.417   1.232  1.4592  0.2588  0.4797
  975TIP3   OH227119   5.231   5.950   9.372 -0.4054 -0.4276 -0.2122
  975TIP3    H127120   5.237   5.914   9.460 -1.7383 -0.4795 -0.1108
  975TIP3    H227121   5.292   6.023   9.371  0.0034 -0.7508  0.5875
  976TIP3   OH227122   1.070   3.851   8.950 -0.0537 -0.0795 -0.0323
  976TIP3    H127123   1.133   3.900   9.003  1.1205 -1.5336 -0.0535
  976TIP3    H227124   1.118   3.828   8.871 -0.4503 -1.5636  0.1304
  977TIP3   OH227125   5.209   3.011   1.300  0.0307  0.0463 -0.0251
  977TIP3    H127126   5.227   2.919   1.320  3.0739  0.8548  1.6528
  977TIP3    H227127   5.183   3.011   1.208  1.2917 -2.3777 -0.4792
  978TIP3   OH227128   5.114   1.232   2.043  0.1229 -0.2742 -0.5501
  978TIP3    H127129   5.180   1.228   1.974  1.0853  0.8365  0.2940
  978TIP3    H227130   5.095   1.325   2.054 -0.3175 -0.4633  0.4050
  979TIP3   OH227131   7.436   4.557   9.083 -0.0525  0.9260  0.0138
  979TIP3    H127132   7.364   4.592   9.136  0.1884  2.6687 -0.7662
  979TIP3    H227133   7.421   4.592   8.996  1.1257  0.3909 -0.4177
  980TIP3   OH227134   4.262   3.099   7.265  0.0888  0.3600  0.4949
  980TIP3    H127135   4.331   3.146   7.217 -1.1029  1.0340 -0.6118
  980TIP3    H227136   4.294   3.096   7.355  1.6912  0.4001 -0.0353
  981TIP3   OH227137   4.980   7.658   0.984  0.0675 -0.0757  0.3137
  981TIP3    H127138   5.012   7.603   0.912 -1.8071 -0.6010 -0.1598
  981TIP3    H227139   5.056   7.667   1.042  1.7259  0.6061 -1.8287
  982TIP3   OH227140   7.319   4.546   0.357 -0.2219  0.3660  0.1935
  982TIP3    H127141   7.229   4.517   0.344  0.3740 -1.2597 -0.5674
  982TIP3    H227142   7.355   4.551   0.269 -0.3578  3.8966  0.2183
  983TIP3   OH227143   0.888   1.821   2.865 -0.7869  0.5461  0.3333
  983TIP3    H127144   0.856   1.731   2.875 -2.2492  0.9532 -0.3950
  983TIP3    H227145   0.949   1.817   2.792  0.1358 -0.0673  1.1148
  984TIP3   OH227146   0.047   4.456   9.571 -0.1630 -0.0078 -0.2494
  984TIP3    H127147   0.076   4.471   9.661 -1.8211 -0.9775  0.4902
  984TIP3    H227148   0.128   4.444   9.522  0.7872  0.5993  1.0956
  985TIP3   OH227149   6.136   3.337   8.677 -0.3351  0.2793 -0.0868
  985TIP3    H127150   6.075   3.371   8.611 -0.1972 -0.2175 -0.4750
  985TIP3    H227151   6.222   3.339   8.634  0.2373  2.5163  0.9902
  986TIP3   OH227152   1.023   3.254   9.636 -0.0264  0.0479 -0.2326
  986TIP3    H127153   1.116   3.266   9.617  0.1833  0.4563  0.9389
  986TIP3    H227154   1.012   3.159   9.643 -0.0979 -0.1095 -2.1680
  987TIP3   OH227155   0.926   4.956   2.668 -0.6594  0.0716  0.5620
  987TIP3    H127156   0.943   4.869   2.703  0.9715 -0.7392 -1.9661
  987TIP3    H227157   0.934   5.014   2.744  0.4402 -1.7557  1.9213
  988TIP3   OH227158   2.925   2.442   8.525  0.1977 -0.1679 -0.3073
  988TIP3    H127159   2.980   2.385   8.470 -0.5728 -0.0337 -1.2418
  988TIP3    H227160   2.836   2.409   8.512 -0.6404  2.6820 -2.8017
  989TIP3   OH227161   3.572   3.527   1.067 -0.5079  0.5331  0.2525
  989TIP3    H127162   3.622   3.596   1.024  0.0314 -0.6388 -1.1012
  989TIP3    H227163   3.609   3.523   1.155  1.4032  0.1460 -0.5065
  990TIP3   OH227164   2.074   6.215   8.167  0.1157  0.1999 -0.2384
  990TIP3    H127165   2.064   6.130   8.209  1.4008 -0.5507 -1.3635
  990TIP3    H227166   2.157   6.249   8.200  1.2415 -0.4832 -2.1509
  991TIP3   OH227167   3.014   6.073   1.933  0.7738 -0.3807 -0.1284
  991TIP3    H127168   3.062   6.009   1.880 -0.1461 -0.6129 -0.6861
  991TIP3    H227169   3.044   6.158   1.900  0.5851 -0.5234 -0.6814
  992TIP3   OH227170   2.210   6.259   7.166  0.6117  0.1131  0.0505
  992TIP3    H127171   2.126   6.225   7.199  1.1547  0.0250  1.4250
  992TIP3    H227172   2.256   6.181   7.133  1.0348 -0.2222  1.3525
  993TIP3   OH227173   2.992   4.626   8.948 -0.3965  0.2376  0.5100
  993TIP3    H127174   3.067   4.607   9.004  0.8363  0.0147 -1.1368
  993TIP3    H227175   2.983   4.549   8.892 -1.6015  0.4385  0.3989
  994TIP3   OH227176   4.356   4.211   9.532 -0.4740  0.7908 -0.8340
  994TIP3    H127177   4.310   4.158   9.597  0.3537  0.8905 -0.1503
  994TIP3    H227178   4.287   4.244   9.474 -0.9056 -2.3259 -2.3142
  995TIP3   OH227179   3.237   0.068   8.376 -0.2510  0.0620  0.0161
  995TIP3    H127180   3.234   0.103   8.465  0.8103 -1.0175  0.4999
  995TIP3    H227181   3.217   0.144   8.320 -1.2687  0.6817  1.1620
  996TIP3   OH227182   2.201   0.406   8.324 -0.1675 -0.1620 -0.3429
  996TIP3    H127183   2.153   0.325   8.309 -3.1709  1.6950 -1.5700
  996TIP3    H227184   2.210   0.445   8.237  0.4963  1.2262  0.3188
  997TIP3   OH227185   2.561   7.311   2.448  0.3445 -0.3980 -0.0832
  997TIP3    H127186   2.600   7.278   2.367  1.7354  1.8189 -0.4228
  997TIP3    H227187   2.548   7.404   2.432 -1.3585 -0.3042  1.5246
  998TIP3   OH227188   3.996   2.180   8.595  0.2040  0.6417 -0.1359
  998TIP3    H127189   3.984   2.151   8.505  0.7904 -0.1305  0.0256
  998TIP3    H227190   3.984   2.275   8.591 -0.0036  0.5907 -0.9817
  999TIP3   OH227191   7.252   5.744   8.447  0.1895  0.0286 -0.5224
  999TIP3    H127192   7.204   5.822   8.474  1.8688  1.2341 -0.8563
  999TIP3    H227193   7.273   5.699   8.529 -1.2524 -0.3833 -0.3613
 1000TIP3   OH227194   6.799   1.752   1.924 -0.3666  0.2227 -0.4354
 1000TIP3    H127195   6.744   1.754   2.002  0.7285  0.0157  0.3583
 1000TIP3    H227196   6.780   1.834   1.879 -1.6923 -0.0659 -0.4507
 1001TIP3   OH227197   3.564   6.190   9.056  0.1307 -0.0490  0.1419
 1001TIP3    H127198   3.607   6.110   9.023  1.9444  1.2920 -0.9892
 1001TIP3    H227199   3.496   6.158   9.114  0.4515 -2.4442 -0.6542
 1002TIP3   OH227200   7.266   2.687   8.744  1.1344  0.7389  0.3637
 1002TIP3    H127201   7.324   2.610   8.746 -0.4765 -0.5666 -0.4422
 1002TIP3    H227202   7.243   2.702   8.835  1.4447  0.2468  0.5297
 1003TIP3   OH227203   5.128   6.759   1.408 -0.1094  0.7009 -0.1099
 1003TIP3    H127204   5.150   6.682   1.462 -0.5034  0.3786 -0.4011
 1003TIP3    H227205   5.036   6.777   1.429  0.0861  1.3322  0.2387
 1004TIP3   OH227206   2.657   7.337   7.644 -0.1128 -0.6621  0.9759
 1004TIP3    H127207   2.716   7.376   7.708 -0.7057  0.8383  0.6570
 1004TIP3    H227208   2.712   7.318   7.568 -0.0688  1.2105  0.4783
 1005TIP3   OH227209   3.751   4.495   9.983  0.1444 -0.6646 -0.3090
 1005TIP3    H127210   3.710   4.411  10.003 -1.4563 -0.1473 -1.2721
 1005TIP3    H227211   3.694   4.560  10.024 -1.3386  0.2049 -3.4671
 1006TIP3   OH227212   1.393   3.264   8.582  0.3761  0.0308  0.1711
 1006TIP3    H127213   1.387   3.174   8.549  0.6742  0.3463 -0.7673
 1006TIP3    H227214   1.303   3.294   8.586  0.3859  0.3464 -1.4141
 1007TIP3   OH227215   3.365   7.059   1.736 -0.0437  0.5658  0.6339
 1007TIP3    H127216   3.375   7.106   1.653  1.7753  0.8880  1.0099
 1007TIP3    H227217   3.431   6.990   1.734 -1.3012 -0.7063  0.9936
 1008TIP3   OH227218   4.432   1.996   7.203  0.6539 -0.0819 -0.0591
 1008TIP3    H127219   4.436   2.045   7.120 -1.6729 -0.4722 -0.4533
 1008TIP3    H227220   4.379   2.051   7.261 -2.0575 -2.0391 -0.5253
 1009TIP3   OH227221   4.318   3.400   9.283  0.3503 -0.2608  0.4616
 1009TIP3    H127222   4.317   3.429   9.374 -2.2108  1.4795 -0.0311
 1009TIP3    H227223   4.350   3.475   9.234  1.8780 -1.2452 -0.1312
 1010TIP3   OH227224   4.247   3.861   8.318 -0.6286 -0.0369 -0.4074
 1010TIP3    H127225   4.251   3.956   8.315  0.7780 -0.0672 -0.3755
 1010TIP3    H227226   4.192   3.841   8.394 -1.6978  0.7294 -0.9572
 1011TIP3   OH227227   6.669   2.737   1.377 -0.8043  0.2964 -0.4837
 1011TIP3    H127228   6.589   2.684   1.375  0.5144 -2.1209  2.9239
 1011TIP3    H227229   6.661   2.791   1.456  0.7009  0.4277 -0.3933
 1012TIP3   OH227230   4.460   6.038   1.942  0.0652  0.4178 -0.3610
 1012TIP3    H127231   4.468   6.109   2.005  0.0191  0.3134 -0.2366
 1012TIP3    H227232   4.475   5.959   1.993 -0.7173  0.2846 -0.3205
 1013TIP3   OH227233   5.047   1.481   1.911  0.2048  0.0067 -0.2781
 1013TIP3    H127234   4.964   1.502   1.955  0.1346 -0.5233 -0.1429
 1013TIP3    H227235   5.106   1.552   1.935  0.0050  0.0070  0.2308
 1014TIP3   OH227236   0.705   1.713   9.923 -0.4904 -0.1444 -1.0340
 1014TIP3    H127237   0.727   1.755  10.006  0.2236 -0.5070 -1.0284
 1014TIP3    H227238   0.610   1.720   9.916 -1.0257 -2.9910  1.3914
 1015TIP3   OH227239   3.666   5.338   2.094 -0.4207  0.3960 -0.4663
 1015TIP3    H127240   3.614   5.332   2.174  1.1535 -0.5408  0.5458
 1015TIP3    H227241   3.685   5.432   2.085  0.3839  0.3874  0.9503
 1016TIP3   OH227242   0.121   0.948   9.076 -0.5322  0.0641 -0.5760
 1016TIP3    H127243   0.166   0.897   9.144 -0.1332  0.0610 -0.8359
 1016TIP3    H227244   0.040   0.977   9.117  0.1333  0.8511  0.2043
 1017TIP3   OH227245   3.121   7.423   2.315 -0.1063 -0.1825  0.2184
 1017TIP3    H127246   3.062   7.355   2.283 -0.5743  0.7493 -1.0201
 1017TIP3    H227247   3.209   7.386   2.306 -0.4734 -1.6514  2.2382
 1018TIP3   OH227248   5.340   4.166   9.311  0.0621 -0.0547 -0.4539
 1018TIP3    H127249   5.337   4.075   9.338  1.0153  0.2397  0.7229
 1018TIP3    H227250   5.271   4.174   9.246  0.4514 -1.7887 -1.1375
 1019TIP3   OH227251   7.204   6.067   0.020 -0.5286  0.0880 -0.1400
 1019TIP3    H127252   7.194   6.027  -0.066 -0.7912  1.9415 -1.0021
 1019TIP3    H227253   7.286   6.116   0.015 -0.6861  0.4373  0.5703
 1020TIP3   OH227254   2.681   3.007   7.437  0.4999  0.2595  0.3820
 1020TIP3    H127255   2.656   2.981   7.526 -0.4886 -1.8411 -0.4283
 1020TIP3    H227256   2.598   3.035   7.397  0.7296  0.0967 -0.2133
 1021TIP3   OH227257   2.937   3.910   0.770  0.6149 -0.5522 -0.2852
 1021TIP3    H127258   2.863   3.866   0.728 -1.6571  2.5443  0.0542
 1021TIP3    H227259   2.980   3.957   0.698  1.3113 -1.1225 -0.2442
 1022TIP3   OH227260   4.459   7.063   1.434 -0.0668  0.4270  0.2031
 1022TIP3    H127261   4.386   7.121   1.456 -1.8013 -1.6129  0.2079
 1022TIP3    H227262   4.517   7.116   1.379 -1.5340  2.1261  0.2051
 1023TIP3   OH227263   1.375   3.596   2.418 -0.4831  0.4506  0.2094
 1023TIP3    H127264   1.309   3.581   2.351  0.5575  0.3491 -0.8293
 1023TIP3    H227265   1.383   3.692   2.423 -1.4754  0.5027  1.1388
 1024TIP3   OH227266   6.659   3.673   9.971 -0.0752 -0.3003  0.3230
 1024TIP3    H127267   6.650   3.596  10.026 -0.6086 -0.2104  0.3595
 1024TIP3    H227268   6.668   3.746  10.032 -0.1946 -0.2562  0.2869
 1025TIP3   OH227269   3.716   3.374   2.258 -0.8099  0.0678 -0.4361
 1025TIP3    H127270   3.711   3.279   2.269  1.7772 -0.0344  0.3736
 1025TIP3    H227271   3.780   3.387   2.188 -0.7309  1.2462 -0.1595
 1026TIP3   OH227272   7.086   6.410   7.920 -0.5812 -0.0710 -0.6159
 1026TIP3    H127273   6.993   6.426   7.907 -0.5704  0.6046  0.0899
 1026TIP3    H227274   7.097   6.406   8.015  0.2319  0.6475 -0.6702
 1027TIP3   OH227275   3.907   3.453   0.344  0.4526 -0.2299  0.1891
 1027TIP3    H127276   3.820   3.424   0.371  0.5242 -0.1129  0.5530
 1027TIP3    H227277   3.967   3.400   0.396  0.6456 -1.5389 -1.2884
 1028TIP3   OH227278   3.254   1.097   1.436  0.0450  0.0578  0.0197
 1028TIP3    H127279   3.253   1.050   1.520  1.6849  0.6664  0.4248
 1028TIP3    H227280   3.210   1.180   1.455 -0.0607 -0.0244  0.1390
 1029TIP3   OH227281   6.945   6.733   8.526  0.1261 -0.3424 -0.2774
 1029TIP3    H127282   6.970   6.770   8.611 -0.2844 -1.6055  0.4086
 1029TIP3    H227283   6.898   6.804   8.483 -0.4852  0.0235  0.9338
 1030TIP3   OH227284   5.022   6.830   7.884  0.4735  0.7369  0.1992
 1030TIP3    H127285   5.060   6.913   7.855 -0.1018  1.2777  0.9342
 1030TIP3    H227286   5.071   6.763   7.838  2.9259  1.3396  1.7438
 1031TIP3   OH227287   0.783   3.410   1.623 -0.0715 -0.2013 -0.6431
 1031TIP3    H127288   0.754   3.322   1.647 -1.6461  0.7023  0.8818
 1031TIP3    H227289   0.870   3.418   1.662 -0.0735 -0.9323 -0.4807
 1032TIP3   OH227290   7.671   3.734   1.897  0.1776 -0.2953 -0.3428
 1032TIP3    H127291   7.736   3.773   1.839  0.3747 -0.5037 -0.2656
 1032TIP3    H227292   7.629   3.808   1.940  1.5649 -0.2054  0.9228
 1033TIP3   OH227293   0.024   3.904   9.823 -0.0677 -0.1476 -0.0797
 1033TIP3    H127294   0.113   3.894   9.857 -0.0778  0.9359  0.2895
 1033TIP3    H227295   0.029   3.976   9.760 -0.7800  0.2538  0.3063
 1034TIP3   OH227296   5.824   6.080   0.508 -0.5271 -0.0321 -0.0061
 1034TIP3    H127297   5.903   6.028   0.494 -0.4284 -0.0205  0.4881
 1034TIP3    H227298   5.854   6.170   0.509 -0.1254 -0.1113  2.6773
 1035TIP3   OH227299   5.722   5.817   0.147 -0.4979 -0.3884  0.3279
 1035TIP3    H127300   5.723   5.796   0.240 -2.1467 -0.9820  0.2291
 1035TIP3    H227301   5.777   5.896   0.141 -1.6960  0.6536  2.0600
 1036TIP3   OH227302   1.435   0.009   6.710 -0.2579  0.3779 -0.0266
 1036TIP3    H127303   1.352  -0.005   6.755 -0.4275 -3.5724 -1.1936
 1036TIP3    H227304   1.488  -0.067   6.732  1.8315  1.1420 -1.9204
 1037TIP3   OH227305   2.258   4.082   6.692  0.5177 -0.5614  0.6276
 1037TIP3    H127306   2.277   4.008   6.634  1.2542 -1.0289  1.4499
 1037TIP3    H227307   2.331   4.084   6.754 -0.1554  0.0482  1.4241
 1038TIP3   OH227308   4.188   0.089   7.688 -0.5969 -0.4701 -0.4254
 1038TIP3    H127309   4.175   0.041   7.770 -2.6496  1.7008  0.6501
 1038TIP3    H227310   4.245   0.162   7.712 -1.1958  0.1719 -0.9243
 1039TIP3   OH227311   1.055   2.916   7.519  0.1211 -0.2940 -0.1024
 1039TIP3    H127312   1.076   2.903   7.612  0.1237 -0.1514 -0.0824
 1039TIP3    H227313   1.020   2.832   7.490  1.1820 -0.6881 -0.2633
 1040TIP3   OH227314   5.134   1.962   8.548 -0.8289 -0.4417  0.0263
 1040TIP3    H127315   5.038   1.961   8.546 -0.8762 -1.4809  1.4947
 1040TIP3    H227316   5.159   1.870   8.552  0.2418 -0.1765 -0.2538
 1041TIP3   OH227317   6.579   4.294   9.035  0.6967 -0.1952  0.3688
 1041TIP3    H127318   6.638   4.320   8.965 -1.1232 -1.5080 -1.7565
 1041TIP3    H227319   6.503   4.352   9.026  0.8601  0.3496  2.0055
 1042TIP3   OH227320   2.077   1.816   9.729  0.1901  0.3982  0.1472
 1042TIP3    H127321   2.123   1.899   9.717  2.2420 -0.7616 -0.3202
 1042TIP3    H227322   2.015   1.834   9.800  0.1104  2.5009 -0.3968
 1043TIP3   OH227323   2.861   7.205   1.581  0.6994 -0.0894 -0.1675
 1043TIP3    H127324   2.841   7.266   1.510  0.6901  0.0833 -0.0189
 1043TIP3    H227325   2.911   7.135   1.539 -0.6796 -0.8121 -0.6514
 1044TIP3   OH227326   3.211   5.943   8.148  0.1513 -0.3190 -0.6952
 1044TIP3    H127327   3.153   6.019   8.147 -1.0162 -1.1967 -1.5144
 1044TIP3    H227328   3.297   5.980   8.168 -0.7195  0.9578  1.0461
 1045TIP3   OH227329   2.113   0.248   7.219  0.3944  0.0304  0.3434
 1045TIP3    H127330   2.198   0.248   7.176  0.1909  0.9178 -0.0988
 1045TIP3    H227331   2.062   0.182   7.172  0.4146  0.4594 -0.3023
 1046TIP3   OH227332   5.203   0.243   0.982 -0.0508 -0.0691 -0.0863
 1046TIP3    H127333   5.233   0.201   0.902  0.0611 -0.3898  0.1205
 1046TIP3    H227334   5.214   0.176   1.050 -0.3247  0.1332  0.1621
 1047TIP3   OH227335   3.018   6.032   2.214  0.0719 -0.1837  0.6360
 1047TIP3    H127336   2.938   5.981   2.226 -0.1516 -0.1727 -0.6558
 1047TIP3    H227337   3.011   6.067   2.126  1.7739 -0.6830  0.2685
 1048TIP3   OH227338   2.249   5.329   6.821  0.3652 -0.1736  0.4233
 1048TIP3    H127339   2.287   5.406   6.780  0.0822 -0.4031 -0.2846
 1048TIP3    H227340   2.228   5.357   6.910  2.8068 -0.2490  1.0821
 1049TIP3   OH227341   6.058   0.402   1.684 -0.0541  0.2276  0.2078
 1049TIP3    H127342   6.101   0.321   1.711 -0.1240  0.3302  0.6311
 1049TIP3    H227343   5.978   0.373   1.640 -0.0781  0.0675  0.3557
 1050TIP3   OH227344   0.871   5.961   6.912 -0.6691 -0.4245  0.4674
 1050TIP3    H127345   0.781   5.971   6.882 -0.5578 -0.0611  0.2408
 1050TIP3    H227346   0.916   5.918   6.840 -0.2675  0.9785 -0.1468
 1051TIP3   OH227347   2.857   3.078   0.871 -0.0735  0.4802  0.2506
 1051TIP3    H127348   2.930   3.068   0.932  0.1736 -0.0545 -0.1244
 1051TIP3    H227349   2.814   3.159   0.899 -1.7135 -1.1765  2.9576
 1052TIP3   OH227350   5.778   1.646   8.483  0.2998  0.3627 -0.1317
 1052TIP3    H127351   5.711   1.678   8.423 -0.9756 -0.5954  0.7324
 1052TIP3    H227352   5.848   1.615   8.426  1.3866  4.0052 -1.0424
 1053TIP3   OH227353   0.955   5.034   1.787  0.1533  0.6088  0.3299
 1053TIP3    H127354   1.039   5.081   1.784  0.7473 -0.4725 -0.4594
 1053TIP3    H227355   0.976   4.949   1.825 -0.5320  0.2081 -0.1727
 1054TIP3   OH227356   1.636   6.741   8.698 -0.4479 -0.2484  0.2935
 1054TIP3    H127357   1.655   6.819   8.646 -2.9369 -0.2947 -0.8475
 1054TIP3    H227358   1.644   6.669   8.636  0.2393 -0.7520  0.9486
 1055TIP3   OH227359   7.275   0.265   9.821 -0.2633 -0.0724 -0.6973
 1055TIP3    H127360   7.364   0.240   9.846 -0.1497  0.3587 -0.6712
 1055TIP3    H227361   7.219   0.215   9.880  0.0079  1.7763  1.2550
 1056TIP3   OH227362   2.681   4.534   7.397  0.4369 -0.9255  0.1575
 1056TIP3    H127363   2.604   4.558   7.346  0.3356 -0.3928  0.5492
 1056TIP3    H227364   2.660   4.448   7.434  0.0602 -0.8183  0.1951
 1057TIP3   OH227365   0.758   1.459   2.591  0.0613 -0.0159  0.7038
 1057TIP3    H127366   0.677   1.410   2.605  0.2875 -0.6487 -0.1160
 1057TIP3    H227367   0.822   1.393   2.564  0.5603  0.6335  0.2566
 1058TIP3   OH227368   4.298   2.454   1.757  0.5945  0.7598  0.3817
 1058TIP3    H127369   4.275   2.521   1.821  0.1057  1.1050 -0.1392
 1058TIP3    H227370   4.321   2.503   1.678  2.4236  0.3955  0.6375
 1059TIP3   OH227371   0.654   2.805   7.646  0.2624  0.6050 -0.1730
 1059TIP3    H127372   0.728   2.760   7.605 -0.1460  0.5158 -0.8224
 1059TIP3    H227373   0.630   2.873   7.584 -0.7424  0.0922 -0.3756
 1060TIP3   OH227374   5.386   1.642   7.722  0.5662  0.5359  0.3625
 1060TIP3    H127375   5.424   1.709   7.664  1.2725  0.4540  0.7281
 1060TIP3    H227376   5.358   1.573   7.663  0.1316  1.0063  0.0070
 1061TIP3   OH227377   2.937   1.174   1.714  0.4823  0.1267 -0.5855
 1061TIP3    H127378   2.948   1.209   1.802  0.8147 -0.1962 -0.4983
 1061TIP3    H227379   2.891   1.244   1.666 -2.6692 -0.9187  0.6834
 1062TIP3   OH227380   1.119   1.892   0.965 -0.2839 -0.0753 -0.2486
 1062TIP3    H127381   1.129   1.814   0.909  0.3384  0.4085 -0.8282
 1062TIP3    H227382   1.040   1.934   0.932 -0.5995 -0.4329  0.0391
 1063TIP3   OH227383   3.141   3.574   8.884 -0.1328  0.1679 -0.0141
 1063TIP3    H127384   3.229   3.538   8.876 -0.3705 -0.5050  0.2737
 1063TIP3    H227385   3.151   3.653   8.937  0.3528  0.3284 -0.3468
 1064TIP3   OH227386   6.324   3.590   8.248 -0.7426 -0.2743  0.0631
 1064TIP3    H127387   6.285   3.673   8.275 -0.5160  0.1390 -0.8395
 1064TIP3    H227388   6.365   3.555   8.328  1.1327  1.5726 -0.0023
 1065TIP3   OH227389   1.694   3.672   0.487  0.4397  0.7008 -0.4051
 1065TIP3    H127390   1.722   3.760   0.513  0.0585  0.4858  0.7613
 1065TIP3    H227391   1.654   3.635   0.565 -1.7523  0.4215 -1.5681
 1066TIP3   OH227392   0.764   4.551   0.569  1.0969  0.0449 -0.3038
 1066TIP3    H127393   0.775   4.479   0.507  0.6140  0.0439 -0.3916
 1066TIP3    H227394   0.714   4.512   0.641  0.7706  0.3060 -0.3848
 1067TIP3   OH227395   4.800   7.522   1.143 -0.5248 -0.0463  0.1171
 1067TIP3    H127396   4.828   7.609   1.115 -3.3093  0.9527  0.1242
 1067TIP3    H227397   4.858   7.462   1.096 -0.4856  1.7376 -2.2951
 1068TIP3   OH227398   0.600   3.724   0.843  0.3290  0.3475 -0.3359
 1068TIP3    H127399   0.592   3.631   0.862  1.9543 -0.2802 -2.3183
 1068TIP3    H227400   0.643   3.761   0.920 -0.0755 -0.5829  0.3480
 1069TIP3   OH227401   1.120   3.882   1.726 -0.1810 -0.1146 -0.2030
 1069TIP3    H127402   1.075   3.898   1.643 -0.5216 -2.1586 -0.4792
 1069TIP3    H227403   1.212   3.879   1.703 -0.2039  0.2493 -0.3417
 1070TIP3   OH227404   0.572   2.996   7.202  0.4445  0.4211 -0.1452
 1070TIP3    H127405   0.664   2.977   7.216  0.4334  1.5651  1.8222
 1070TIP3    H227406   0.525   2.934   7.257  0.0111 -0.2053 -1.1928
 1071TIP3   OH227407   2.328   1.056   8.106 -0.1534  0.1644 -0.0309
 1071TIP3    H127408   2.278   1.080   8.184  0.5684 -1.3054  0.9332
 1071TIP3    H227409   2.262   1.025   8.044 -0.5708 -0.4415  0.7046
 1072TIP3   OH227410   0.492   2.611   8.678  0.2647  0.3774  0.0643
 1072TIP3    H127411   0.429   2.681   8.700  0.8458  0.6805  0.8123
 1072TIP3    H227412   0.473   2.542   8.741  0.3808  0.2810 -0.0064
 1073TIP3   OH227413   2.226   6.296   7.766 -0.2900  0.4389 -0.6700
 1073TIP3    H127414   2.164   6.235   7.807 -1.7527  2.3629  0.1091
 1073TIP3    H227415   2.171   6.364   7.729  1.2316  0.5930 -2.7770
 1074TIP3   OH227416   6.206   4.629   1.296  0.1002  0.3642  0.3564
 1074TIP3    H127417   6.295   4.604   1.322  0.3649  0.8992 -0.0048
 1074TIP3    H227418   6.200   4.601   1.204 -0.5742 -0.8675  0.7592
 1075TIP3   OH227419   5.563   5.291   9.031  0.0500  0.1119 -0.1261
 1075TIP3    H127420   5.608   5.207   9.045  0.3430  0.5921  2.2363
 1075TIP3    H227421   5.596   5.321   8.946  1.9353 -0.9672  0.1562
 1076TIP3   OH227422   4.549   7.141   8.649 -0.1463  0.9131 -0.0954
 1076TIP3    H127423   4.461   7.105   8.655  0.2084  0.1234  0.6138
 1076TIP3    H227424   4.572   7.166   8.739  1.2309 -1.1107  0.1853
 1077TIP3   OH227425   3.698   6.050   8.357 -0.2518 -0.0850  0.2690
 1077TIP3    H127426   3.788   6.081   8.356 -0.6015  0.9440  0.0373
 1077TIP3    H227427   3.684   6.021   8.448  0.4631 -0.7538  0.1778
 1078TIP3   OH227428   2.797   6.100   8.817 -0.5368  0.6196 -0.0507
 1078TIP3    H127429   2.818   6.081   8.725  1.0935 -0.2437  0.4617
 1078TIP3    H227430   2.782   6.014   8.856 -0.3325  0.9095  0.6791
 1079TIP3   OH227431   0.823   6.025   0.069 -0.5712  0.2558  0.1236
 1079TIP3    H127432   0.796   5.950   0.121  0.5494 -0.0298  0.3184
 1079TIP3    H227433   0.863   6.086   0.132  0.5716  0.0124 -0.3469
 1080TIP3   OH227434   4.168   5.020   1.188  0.3069  0.6237  0.4327
 1080TIP3    H127435   4.186   5.074   1.111 -0.2396  0.8443  0.4569
 1080TIP3    H227436   4.147   4.934   1.153 -1.2505  1.0517  0.2403
 1081TIP3   OH227437   7.619   2.793   1.622 -0.3798 -0.0919 -0.0735
 1081TIP3    H127438   7.545   2.852   1.610  0.1195  0.1218 -2.5604
 1081TIP3    H227439   7.598   2.717   1.568  0.5942 -0.6576  0.3124
 1082TIP3   OH227440   3.123   2.739   7.125 -0.1579 -0.5543  0.1225
 1082TIP3    H127441   3.085   2.661   7.085 -2.0505  0.3852  0.0195
 1082TIP3    H227442   3.097   2.811   7.069  2.3375  0.1329 -0.2980
 1083TIP3   OH227443   3.654   5.301   8.222 -0.4199 -0.5276 -0.0801
 1083TIP3    H127444   3.728   5.265   8.271  0.4735 -0.2886 -1.2093
 1083TIP3    H227445   3.577   5.272   8.270  0.3092 -2.7483 -0.1695
 1084TIP3   OH227446   6.369   5.831   9.712  0.1656  0.3366 -0.4146
 1084TIP3    H127447   6.370   5.735   9.716 -0.3717  0.3806  2.4792
 1084TIP3    H227448   6.429   5.858   9.781 -0.8253  2.0999 -0.2023
 1085TIP3   OH227449   3.105   2.685   1.907  0.3692  0.0671  0.6303
 1085TIP3    H127450   3.135   2.603   1.946 -2.1329 -0.8779  0.8005
 1085TIP3    H227451   3.035   2.715   1.965  0.5806  1.8108  0.0383
 1086TIP3   OH227452   6.442   0.941   0.213 -0.7169  0.0145  0.1887
 1086TIP3    H127453   6.488   0.972   0.291  1.6175  1.4197 -1.5999
 1086TIP3    H227454   6.480   0.856   0.194  0.7615  0.8675 -0.8875
 1087TIP3   OH227455   2.933   5.764   3.348 -0.5395 -0.3912  0.2008
 1087TIP3    H127456   2.887   5.703   3.407 -1.5637 -0.4706 -0.6436
 1087TIP3    H227457   2.886   5.756   3.265 -0.2775  1.0853 -0.1078
 1088TIP3   OH227458   3.658   4.717   8.602 -0.2678  0.0015  0.3977
 1088TIP3    H127459   3.732   4.739   8.545 -1.0808 -1.3456 -1.2469
 1088TIP3    H227460   3.601   4.794   8.599 -1.3816 -0.8283 -2.4600
 1089TIP3   OH227461   3.796   5.053   0.824 -0.4265 -0.5609 -0.4316
 1089TIP3    H127462   3.750   5.136   0.836 -0.2455 -0.3752 -1.0117
 1089TIP3    H227463   3.744   4.990   0.875 -0.0251  0.0784  0.8144
 1090TIP3   OH227464   6.950   1.034   8.089  0.0404  0.8041 -0.4910
 1090TIP3    H127465   6.976   1.011   8.000  0.1622  0.7352 -0.4377
 1090TIP3    H227466   7.031   1.030   8.139 -0.1329  0.2229 -0.2483
 1091TIP3   OH227467   6.108   6.864   7.349 -0.0262 -0.3139 -0.7001
 1091TIP3    H127468   6.194   6.824   7.361  0.4325  0.1265 -2.1993
 1091TIP3    H227469   6.110   6.942   7.405  0.5868 -0.2675 -0.7755
 1092TIP3   OH227470   2.900   0.133   9.719 -0.2939  0.0223  0.0608
 1092TIP3    H127471   2.905   0.037   9.722  0.4699  0.0700  0.9652
 1092TIP3    H227472   2.810   0.152   9.692 -0.0306 -0.9522 -1.5841
 1093TIP3   OH227473   6.522   6.874   1.697  0.2907 -0.1147 -0.4463
 1093TIP3    H127474   6.538   6.785   1.665  0.7870 -0.1822 -0.0170
 1093TIP3    H227475   6.456   6.863   1.766  1.1562 -0.2919  0.3710
 1094TIP3   OH227476   0.034   0.345   9.446  0.5059  0.3170 -0.4445
 1094TIP3    H127477   0.015   0.252   9.440 -1.3636  0.5570  0.7785
 1094TIP3    H227478   0.129   0.351   9.436  0.9550 -1.9412  1.5577
 1095TIP3   OH227479   5.667   3.783   1.215  0.0279  0.5760 -0.1129
 1095TIP3    H127480   5.633   3.872   1.215 -2.3738 -0.2610 -0.8051
 1095TIP3    H227481   5.595   3.730   1.251  1.8544 -0.9497  1.4987
 1096TIP3   OH227482   7.091   4.740   0.303  0.3646  0.2046  0.3027
 1096TIP3    H127483   7.050   4.687   0.372  0.0507 -0.6314 -0.5189
 1096TIP3    H227484   7.060   4.702   0.221  1.1121  0.8945 -0.3160
 1097TIP3   OH227485   2.100   4.618   6.935 -0.1202 -0.5482  0.0619
 1097TIP3    H127486   2.147   4.689   6.893  0.1023  0.5944  2.1344
 1097TIP3    H227487   2.155   4.541   6.921  0.8691  0.1754 -0.1269
 1098TIP3   OH227488   1.793   5.165   0.456 -0.6163  0.0623 -0.2669
 1098TIP3    H127489   1.768   5.252   0.423 -1.0308 -0.3621 -1.0993
 1098TIP3    H227490   1.807   5.178   0.550  1.0862  1.4126 -0.6616
 1099TIP3   OH227491   1.407   3.269   9.987  0.5491  0.5082  0.0857
 1099TIP3    H127492   1.400   3.179  10.020 -0.6043  1.1074  1.6188
 1099TIP3    H227493   1.321   3.287   9.949  1.5076  0.2271 -2.3537
 1100TIP3   OH227494   2.870   7.554   9.760 -0.2404  0.1415 -0.0598
 1100TIP3    H127495   2.918   7.477   9.728 -1.1900 -0.7959  0.7005
 1100TIP3    H227496   2.795   7.518   9.806 -2.8266  1.5380 -2.8016
 1101TIP3   OH227497   4.138   7.009   0.479  0.2249  0.0912  0.2357
 1101TIP3    H127498   4.199   7.069   0.522 -1.7083  0.8934  2.0679
 1101TIP3    H227499   4.078   7.066   0.431 -1.7464 -0.2233  2.1422
 1102TIP3   OH227500   1.194   4.528   7.926  0.0874  0.4805  0.5783
 1102TIP3    H127501   1.125   4.462   7.936  0.6560 -0.1104  0.6969
 1102TIP3    H227502   1.174   4.594   7.993 -0.3093  0.2630  0.6771
 1103TIP3   OH227503   2.885   5.666   1.105  0.5191  0.4306  0.5419
 1103TIP3    H127504   2.806   5.709   1.073 -1.5368 -0.9624  3.3392
 1103TIP3    H227505   2.908   5.604   1.035 -1.3809  0.2544  0.0095
 1104TIP3   OH227506   0.210   2.486   8.193  0.2558  0.2367  0.1731
 1104TIP3    H127507   0.230   2.462   8.102  0.3148  0.1844  0.1989
 1104TIP3    H227508   0.296   2.499   8.233  0.2502 -0.3318  0.3777
 1105TIP3   OH227509   1.030   3.427   0.140  0.0874 -0.6354  0.1436
 1105TIP3    H127510   0.956   3.424   0.200 -0.3745 -1.2821 -0.4364
 1105TIP3    H227511   1.106   3.445   0.195 -0.0857 -2.7228  1.1828
 1106TIP3   OH227512   2.863   7.616   0.158  0.3577  0.5286 -0.2109
 1106TIP3    H127513   2.885   7.525   0.176 -1.4736  0.4263  2.1276
 1106TIP3    H227514   2.941   7.666   0.184  0.4714 -0.2387  1.0195
 1107TIP3   OH227515   6.091   4.565   0.107  0.4176 -0.7307 -0.3882
 1107TIP3    H127516   6.006   4.531   0.081 -0.1320 -0.2300  0.6532
 1107TIP3    H227517   6.098   4.650   0.063  0.1371 -0.5413 -0.0766
 1108TIP3   OH227518   2.591   0.528   1.368 -0.3672  0.2678 -0.0665
 1108TIP3    H127519   2.675   0.492   1.394 -0.0039  1.3812  0.3758
 1108TIP3    H227520   2.613   0.601   1.310 -0.9491  1.2233  0.8591
 1109TIP3   OH227521   2.179   4.724   2.495 -0.0003 -0.1587 -0.1217
 1109TIP3    H127522   2.088   4.711   2.524 -0.0519  0.3547 -0.0397
 1109TIP3    H227523   2.180   4.813   2.458  0.9679  0.7578  1.9165
 1110TIP3   OH227524   6.385   0.815   9.017  0.4878  0.0977  0.5476
 1110TIP3    H127525   6.372   0.866   9.096 -0.5778  0.5309  0.1100
 1110TIP3    H227526   6.474   0.781   9.024  0.6768  0.7840  1.5477
 1111TIP3   OH227527   6.870   4.821   8.708 -0.1377  0.1407 -0.2717
 1111TIP3    H127528   6.896   4.730   8.723  3.8028  1.2629  0.8473
 1111TIP3    H227529   6.809   4.840   8.780 -0.6142 -1.4126 -0.2120
 1112TIP3   OH227530   0.729   4.978   9.534  0.9724 -0.0352 -0.1058
 1112TIP3    H127531   0.665   5.036   9.574 -0.2147 -0.0545 -1.8586
 1112TIP3    H227532   0.790   4.956   9.605 -2.3935 -2.1740  2.4408
 1113TIP3   OH227533   7.493   5.168   8.670  0.2056  0.0807  1.2190
 1113TIP3    H127534   7.559   5.106   8.699  0.0674 -0.4250  0.4759
 1113TIP3    H227535   7.434   5.117   8.616 -0.3479  0.7000  1.2234
 1114TIP3   OH227536   4.445   5.544   0.638 -0.0651 -0.1996  0.1462
 1114TIP3    H127537   4.442   5.557   0.543  1.3418 -1.5652 -0.1277
 1114TIP3    H227538   4.537   5.533   0.658 -0.4225 -0.9269  1.5370
 1115TIP3   OH227539   5.973   5.762   1.925 -0.4520  0.3015 -0.1508
 1115TIP3    H127540   5.901   5.817   1.892 -0.1945 -0.3380 -1.8726
 1115TIP3    H227541   5.937   5.720   2.003 -1.0617  1.9691  0.5090
 1116TIP3   OH227542   0.185   5.532   9.984 -0.2283 -0.4631 -0.3537
 1116TIP3    H127543   0.126   5.559  10.054  0.9296 -0.3057  0.5910
 1116TIP3    H227544   0.267   5.511  10.028  1.4775  2.3247 -1.8906
 1117TIP3   OH227545   1.661   1.284   2.164 -0.1275 -0.1933 -0.3851
 1117TIP3    H127546   1.653   1.367   2.115 -0.2193  0.1891  0.2651
 1117TIP3    H227547   1.751   1.284   2.195 -0.0980 -0.3900 -0.4723
 1118TIP3   OH227548   6.515   7.341   0.076 -0.3297  0.1011 -0.0822
 1118TIP3    H127549   6.552   7.267   0.125 -1.0861 -0.1211  0.1577
 1118TIP3    H227550   6.451   7.302   0.017 -1.4261  0.6544  0.7225
 1119TIP3   OH227551   6.592   4.367   2.303  0.6552  0.4663  0.3540
 1119TIP3    H127552   6.553   4.313   2.372  1.6591  2.4027  2.5611
 1119TIP3    H227553   6.687   4.353   2.313  0.8397  1.1952 -0.2682
 1120TIP3   OH227554   7.209   4.978   1.385  0.3211 -0.1653  0.2940
 1120TIP3    H127555   7.144   4.975   1.315 -0.1183  0.7996  0.6487
 1120TIP3    H227556   7.269   5.048   1.359  0.3136  0.0129  0.7486
 1121TIP3   OH227557   2.463   1.920   9.909 -0.8288  0.0554 -0.1170
 1121TIP3    H127558   2.442   2.012   9.928  0.9221  0.1122  2.0277
 1121TIP3    H227559   2.479   1.918   9.815 -0.2010  2.1318 -0.1067
 1122TIP3   OH227560   1.057   1.733   7.383 -1.0693  0.2607  0.7564
 1122TIP3    H127561   1.137   1.770   7.345 -1.5937  0.4084 -0.2391
 1122TIP3    H227562   1.085   1.650   7.422 -0.8743 -1.1099 -2.0317
 1123TIP3   OH227563   6.858   6.329   9.330 -0.1824 -0.2453  0.3192
 1123TIP3    H127564   6.903   6.253   9.368 -1.3731  0.5536  3.7363
 1123TIP3    H227565   6.881   6.401   9.388  0.4021  1.9700 -2.4625
 1124TIP3   OH227566   4.242   0.846   9.942 -0.0959  0.2431 -0.3140
 1124TIP3    H127567   4.192   0.764   9.940 -0.8045  0.5836  1.6955
 1124TIP3    H227568   4.324   0.823   9.986 -0.6183  0.7380  0.9647
 1125TIP3   OH227569   0.030   6.056   0.020  0.2113  0.6218 -0.2424
 1125TIP3    H127570   0.021   5.963   0.043  0.3079  0.0933 -2.1858
 1125TIP3    H227571  -0.025   6.102   0.083  1.7091 -0.5365  2.0582
 1126TIP3   OH227572   1.449   3.837   9.539  0.1221 -0.1651  0.5825
 1126TIP3    H127573   1.380   3.899   9.517  0.9931  0.9348  0.8546
 1126TIP3    H227574   1.466   3.851   9.632 -0.7972 -1.9939  1.0814
 1127TIP3   OH227575   2.671   7.186   2.215 -0.3769 -0.2668 -0.6816
 1127TIP3    H127576   2.641   7.098   2.192  0.2419 -0.9829  1.1283
 1127TIP3    H227577   2.753   7.197   2.167  0.6720 -1.5642  0.7233
 1128TIP3   OH227578   5.967   4.219   1.007 -0.1134  1.1764 -0.6225
 1128TIP3    H127579   5.936   4.140   0.963 -0.0221  0.9184 -0.2238
 1128TIP3    H227580   5.896   4.244   1.066  1.1210 -0.5281  1.7684
 1129TIP3   OH227581   6.227   6.246   7.867 -0.7229 -0.2149 -0.3920
 1129TIP3    H127582   6.165   6.182   7.903  0.0631 -1.7998 -1.7489
 1129TIP3    H227583   6.290   6.194   7.818  0.7742  1.4987 -0.4085
 1130TIP3   OH227584   5.619   0.113   0.083 -0.0018 -0.1383 -0.1790
 1130TIP3    H127585   5.525   0.096   0.090 -0.2701  1.7799  2.1405
 1130TIP3    H227586   5.660   0.031   0.110 -0.9438 -1.1677 -1.7157
 1131TIP3   OH227587   4.523   0.742   8.156 -0.3175 -0.1908  0.1046
 1131TIP3    H127588   4.575   0.670   8.121 -0.4173  0.0545 -0.5520
 1131TIP3    H227589   4.587   0.809   8.180 -0.3842  0.8936 -2.4525
 1132TIP3   OH227590   6.282   1.813   1.827 -0.7170  0.0846  0.6926
 1132TIP3    H127591   6.287   1.809   1.922 -1.2971 -0.9809  0.6916
 1132TIP3    H227592   6.254   1.726   1.800  0.0791  0.1721 -0.5039
 1133TIP3   OH227593   7.490   0.280   0.008  0.1538  0.6556  0.6295
 1133TIP3    H127594   7.467   0.365   0.047 -0.3010  0.8718 -0.0822
 1133TIP3    H227595   7.449   0.215   0.065 -2.1217  1.0278 -0.4764
 1134TIP3   OH227596   0.428   0.125   1.511 -0.4437  0.7856  0.2178
 1134TIP3    H127597   0.472   0.056   1.462  0.5075  0.8221  1.0040
 1134TIP3    H227598   0.443   0.204   1.460  0.9588  0.9101  0.7857
 1135TIP3   OH227599   7.269   5.375   2.082 -0.0376 -0.5657 -0.0374
 1135TIP3    H127600   7.262   5.292   2.035  2.4596 -0.0255 -1.5208
 1135TIP3    H227601   7.353   5.371   2.126  0.7545  1.6438 -1.1773
 1136TIP3   OH227602   3.847   5.087   8.855  0.2287 -0.6450  0.4765
 1136TIP3    H127603   3.763   5.134   8.860 -0.6002 -2.0034 -0.0523
 1136TIP3    H227604   3.873   5.075   8.946  0.7401  1.2497  0.6335
 1137TIP3   OH227605   6.427   1.251   1.901  0.5066 -0.6997 -0.7199
 1137TIP3    H127606   6.483   1.324   1.927  0.9601 -1.2854 -0.0295
 1137TIP3    H227607   6.343   1.268   1.944  0.8137 -0.9225 -0.0285
 1138TIP3   OH227608   2.019   1.385   1.255 -0.1441 -0.3507  0.2073
 1138TIP3    H127609   1.994   1.474   1.231 -0.2657 -0.7236 -1.0977
 1138TIP3    H227610   2.097   1.367   1.203 -1.5465 -1.8778 -1.4983
 1139TIP3   OH227611   2.362   7.564   3.136  0.2350  0.6707  0.4097
 1139TIP3    H127612   2.388   7.501   3.204  0.5072  0.8756  0.4958
 1139TIP3    H227613   2.338   7.643   3.184  0.7865  0.9413  0.2531
 1140TIP3   OH227614   5.810   0.676   8.437  0.1456 -0.1350 -0.5689
 1140TIP3    H127615   5.786   0.766   8.460  1.9909  0.2257  0.1705
 1140TIP3    H227616   5.770   0.623   8.506 -0.4968  0.1782 -0.6970
 1141TIP3   OH227617   3.688   0.679   8.451 -0.1058 -0.0550 -0.5259
 1141TIP3    H127618   3.782   0.695   8.439  0.0961 -1.7658 -1.5533
 1141TIP3    H227619   3.651   0.688   8.364 -0.6821 -0.6022 -0.3442
 1142TIP3   OH227620   6.356   1.382   8.126 -0.2026 -0.0785  0.3157
 1142TIP3    H127621   6.267   1.357   8.099 -0.7539  2.5296 -0.6056
 1142TIP3    H227622   6.413   1.320   8.080 -1.4831 -1.1818  0.1364
 1143TIP3   OH227623   3.042   4.434   9.460 -0.4333 -1.0719  0.2988
 1143TIP3    H127624   2.965   4.409   9.408 -0.0967  0.2199 -0.8806
 1143TIP3    H227625   3.113   4.381   9.425 -0.2479 -0.3415 -0.4714
 1144TIP3   OH227626   3.359   0.340   9.548  0.5432 -0.0180 -0.2049
 1144TIP3    H127627   3.328   0.362   9.460  0.7305  1.4804  0.0797
 1144TIP3    H227628   3.407   0.417   9.577  0.4281 -0.4540  1.2548
 1145TIP3   OH227629   3.302   2.957   0.271  0.0431  0.1450 -0.4992
 1145TIP3    H127630   3.295   3.013   0.193 -0.4605 -0.7212 -1.0940
 1145TIP3    H227631   3.225   2.979   0.323  0.1441  0.4053 -0.4582
 1146TIP3   OH227632   7.267   2.563   1.314 -0.2343  0.0221  0.1510
 1146TIP3    H127633   7.212   2.525   1.246  0.3474 -0.0264 -0.3049
 1146TIP3    H227634   7.243   2.656   1.315  0.3139  0.1836 -0.6834
 1147TIP3   OH227635   1.167   1.264   1.991 -0.2430 -0.3903  0.0760
 1147TIP3    H127636   1.153   1.176   2.026 -0.7415 -0.1633  0.4669
 1147TIP3    H227637   1.083   1.287   1.951  0.1378 -0.4089 -0.7418
 1148TIP3   OH227638   0.942   6.904   8.295 -0.2067  0.7513  0.6570
 1148TIP3    H127639   0.848   6.914   8.281 -0.2183  0.3870  0.4846
 1148TIP3    H227640   0.978   6.992   8.282 -0.1633  0.4049 -2.0392
 1149TIP3   OH227641   2.038   1.227   8.980 -0.0110 -0.2932  0.0764
 1149TIP3    H127642   2.034   1.178   9.062  1.2634  1.7078  1.4216
 1149TIP3    H227643   1.954   1.272   8.975 -1.1289 -2.3579 -1.0933
 1150TIP3   OH227644   5.294   1.962   9.058  0.0684 -0.1363  0.3524
 1150TIP3    H127645   5.276   1.918   8.975  0.0579  2.3683 -1.0415
 1150TIP3    H227646   5.384   1.994   9.050  1.0181 -1.9824  2.3794
 1151TIP3   OH227647   2.677   5.384   0.881 -0.0605  0.6209 -0.2342
 1151TIP3    H127648   2.730   5.315   0.920  0.4020  0.0041 -1.8591
 1151TIP3    H227649   2.738   5.437   0.831 -0.7365  0.8110 -0.8884
 1152TIP3   OH227650   5.208   5.559   8.845  0.0955  0.6251  0.6419
 1152TIP3    H127651   5.269   5.548   8.772  1.4795  0.3416  1.8170
 1152TIP3    H227652   5.203   5.473   8.886  0.0522  1.0044  1.4486
 1153TIP3   OH227653   1.933   2.682   0.656  0.6093 -0.0029 -0.8620
 1153TIP3    H127654   1.976   2.761   0.624  1.9993 -0.8909 -1.2600
 1153TIP3    H227655   1.871   2.659   0.586 -1.2441  1.7815  0.1117
 1154TIP3   OH227656   0.701   5.590   8.801  0.3865  0.1774  0.0137
 1154TIP3    H127657   0.733   5.544   8.878  1.1478  0.1859 -0.2867
 1154TIP3    H227658   0.613   5.617   8.824 -0.1078 -1.4622  0.1865
 1155TIP3   OH227659   5.032   1.982   1.296 -0.2463  0.4800  0.2145
 1155TIP3    H127660   5.126   1.981   1.313 -0.3743  0.5286  0.9636
 1155TIP3    H227661   5.025   2.000   1.203  0.5198 -0.7297 -0.1025
 1156TIP3   OH227662   3.308   5.428   7.185 -0.4976  0.1357  0.0135
 1156TIP3    H127663   3.244   5.467   7.244  0.7434 -0.5126  1.8890
 1156TIP3    H227664   3.292   5.334   7.191 -0.5364  0.0647 -0.9497
 1157TIP3   OH227665   4.891   6.216   1.562 -0.4852  0.0780 -0.6507
 1157TIP3    H127666   4.955   6.233   1.494  0.6498 -0.3108  0.2887
 1157TIP3    H227667   4.932   6.248   1.643 -0.7448 -1.6871  0.2405
 1158TIP3   OH227668   2.195   0.767   8.690  0.6223  0.1309  0.0095
 1158TIP3    H127669   2.135   0.715   8.742  1.2032  0.8507  1.4375
 1158TIP3    H227670   2.239   0.825   8.752  1.7747  0.6156 -1.1818
 1159TIP3   OH227671   1.802   4.530   2.047  0.2657  0.2286  0.4669
 1159TIP3    H127672   1.756   4.587   2.109 -1.7761 -2.2616  1.4346
 1159TIP3    H227673   1.762   4.550   1.962 -1.1070 -0.3494  0.9467
 1160TIP3   OH227674   6.819   4.067   9.307 -0.0041  0.0324  0.2393
 1160TIP3    H127675   6.884   4.044   9.240  1.1000  0.3506  1.1688
 1160TIP3    H227676   6.741   4.091   9.257  1.2153  1.6369 -1.0124
 1161TIP3   OH227677   6.560   7.593   9.500  0.0311  0.1384  0.1276
 1161TIP3    H127678   6.645   7.567   9.536  0.6527  1.8485 -0.0175
 1161TIP3    H227679   6.581   7.630   9.414 -0.9812 -0.2815 -0.3088
 1162TIP3   OH227680   0.089   0.996   2.504  0.0887 -0.2491 -0.6726
 1162TIP3    H127681   0.012   1.018   2.451 -0.2158  0.5285  0.0615
 1162TIP3    H227682   0.053   0.981   2.592  0.6457 -1.0081 -0.5668
 1163TIP3   OH227683   5.210   1.397   2.491 -0.4679  0.5476  0.1076
 1163TIP3    H127684   5.180   1.486   2.469 -1.0881  0.6806  1.3879
 1163TIP3    H227685   5.248   1.406   2.578 -0.8694 -0.5107  0.4074
 1164TIP3   OH227686   1.948   5.655   1.827  0.4169 -0.1631 -0.2162
 1164TIP3    H127687   1.901   5.674   1.908  0.9697 -0.0937  0.0960
 1164TIP3    H227688   1.880   5.649   1.760  0.0932  1.4214 -0.0543
 1165TIP3   OH227689   0.239   2.374   1.571  0.0134  0.1857  0.0819
 1165TIP3    H127690   0.305   2.325   1.620  0.5755  0.6872 -0.1580
 1165TIP3    H227691   0.276   2.461   1.562 -0.5885  0.4133 -0.2580
 1166TIP3   OH227692   1.493   2.370   9.773 -0.8067  0.1691  0.1093
 1166TIP3    H127693   1.575   2.370   9.725 -0.5989  0.8903  0.4528
 1166TIP3    H227694   1.431   2.325   9.715 -0.3191  0.1569 -0.4064
 1167TIP3   OH227695   4.920   1.055   0.235 -0.0574 -0.0583  0.4256
 1167TIP3    H127696   4.982   1.059   0.163 -0.3122  0.5069  0.2291
 1167TIP3    H227697   4.971   1.023   0.309  1.2758  3.1051  1.0669
 1168TIP3   OH227698   6.654   7.298   7.484  0.2478 -0.5370  0.3885
 1168TIP3    H127699   6.748   7.307   7.469  0.1425 -0.2841 -0.1238
 1168TIP3    H227700   6.622   7.388   7.493 -0.1352 -0.5613 -0.6173
 1169TIP3   OH227701   1.678   4.585   8.773 -0.4147 -0.0198 -0.2234
 1169TIP3    H127702   1.618   4.648   8.814 -2.0892 -1.1789 -0.7684
 1169TIP3    H227703   1.657   4.590   8.680  1.2539  0.4405 -0.6021
 1170TIP3   OH227704   1.423   2.263   9.088  0.2616  0.1325 -0.1835
 1170TIP3    H127705   1.373   2.288   9.166  0.9235  0.3539  0.1773
 1170TIP3    H227706   1.437   2.169   9.098  0.8525  0.2627  0.2700
 1171TIP3   OH227707   1.374   3.534   9.461  0.0724  0.4115 -0.3346
 1171TIP3    H127708   1.293   3.577   9.433  0.7237  0.8425 -1.6645
 1171TIP3    H227709   1.442   3.571   9.404  1.3975  0.8195  1.4124
 1172TIP3   OH227710   1.608   0.786   0.679  0.3563 -0.1905  0.7160
 1172TIP3    H127711   1.568   0.777   0.765  1.1233 -2.5954  0.8917
 1172TIP3    H227712   1.686   0.732   0.683  0.7133  0.0920 -1.3238
 1173TIP3   OH227713   5.115   2.634   8.443 -0.7334  0.5699 -0.2438
 1173TIP3    H127714   5.135   2.617   8.351  2.8964  0.5298  0.4022
 1173TIP3    H227715   5.083   2.551   8.478  1.0561 -0.3883 -0.7846
 1174TIP3   OH227716   0.535   4.715   1.171  0.5035  0.0691 -0.1264
 1174TIP3    H127717   0.451   4.744   1.207  0.5601 -0.8982  0.8355
 1174TIP3    H227718   0.517   4.697   1.079 -0.4003 -0.3640  0.1251
 1175TIP3   OH227719   5.885   2.027   0.011  0.1481 -0.2201 -0.0919
 1175TIP3    H127720   5.834   1.994   0.085 -1.4608 -0.5177 -1.2797
 1175TIP3    H227721   5.908   2.117   0.036 -0.0814 -0.4279  0.9025
 1176TIP3   OH227722   4.858   2.202   8.597 -0.2860 -0.0251 -0.1458
 1176TIP3    H127723   4.814   2.286   8.589  0.7693  0.4907 -0.7344
 1176TIP3    H227724   4.800   2.150   8.653 -1.5763  0.6511 -0.7955
 1177TIP3   OH227725   1.004   1.706   1.403  0.0273 -0.3885 -0.2286
 1177TIP3    H127726   0.975   1.622   1.439 -0.8375 -0.1559 -0.3772
 1177TIP3    H227727   1.004   1.766   1.478 -0.8766 -0.1366 -0.4186
 1178TIP3   OH227728   3.707   7.289   9.863  0.9488 -0.2125 -0.4304
 1178TIP3    H127729   3.663   7.342   9.796  1.7817 -1.2867 -1.8759
 1178TIP3    H227730   3.746   7.216   9.814  1.9550 -0.7925  1.1730
 1179TIP3   OH227731   0.923   5.272   9.519  0.2291  0.2014  0.0241
 1179TIP3    H127732   0.869   5.243   9.447  2.7540 -2.2378 -1.0796
 1179TIP3    H227733   0.960   5.355   9.489 -0.2512  0.1775 -0.6548
 1180TIP3   OH227734   6.928   4.850   9.460  0.1800 -0.3494  0.1251
 1180TIP3    H127735   6.937   4.894   9.375  2.0588  0.4591  0.7074
 1180TIP3    H227736   6.836   4.822   9.462 -0.0616  0.1299 -1.9157
 1181TIP3   OH227737   2.059   7.332   9.659 -0.5086 -0.3260  0.0876
 1181TIP3    H127738   2.081   7.348   9.567 -1.2783  0.8132  0.0889
 1181TIP3    H227739   2.118   7.390   9.708 -0.7765 -0.1950  0.2599
 1182TIP3   OH227740   4.905   3.436   1.089 -0.7534  0.4499  0.4542
 1182TIP3    H127741   4.994   3.400   1.094 -1.5022 -1.5370  0.4317
 1182TIP3    H227742   4.899   3.495   1.164  0.3123 -0.0281  0.9463
 1183TIP3   OH227743   3.161   6.228   6.809  0.5152  0.0395 -0.8125
 1183TIP3    H127744   3.113   6.211   6.728 -0.7384 -0.4916  0.0265
 1183TIP3    H227745   3.096   6.218   6.878  1.2947  1.6332  0.1944
 1184TIP3   OH227746   3.947   6.142   2.622 -0.0803  0.2579 -0.2888
 1184TIP3    H127747   3.931   6.234   2.598 -0.3236  0.8718  2.0268
 1184TIP3    H227748   4.040   6.129   2.602 -0.3627  0.5397 -1.9589
 1185TIP3   OH227749   1.297   3.302   2.654  0.3097  0.1664  0.4911
 1185TIP3    H127750   1.204   3.328   2.655  0.2725  0.0338  1.0826
 1185TIP3    H227751   1.344   3.382   2.677  0.1351 -0.4343  3.3085
 1186TIP3   OH227752   2.988   3.824   1.577  0.4362 -0.0657 -0.3303
 1186TIP3    H127753   3.080   3.848   1.577 -0.0486  1.9836  0.5520
 1186TIP3    H227754   2.962   3.827   1.484  1.1712 -0.4323 -0.5567
 1187TIP3   OH227755   6.804   0.936   7.646 -0.1735 -0.0948  0.0792
 1187TIP3    H127756   6.794   0.842   7.633  0.7958 -0.2274  0.2691
 1187TIP3    H227757   6.875   0.961   7.588  0.0523  0.3906  0.5551
 1188TIP3   OH227758   0.601   5.149   8.878 -0.0562  0.0930  0.0542
 1188TIP3    H127759   0.573   5.081   8.940  1.0634 -0.6590 -0.2374
 1188TIP3    H227760   0.531   5.215   8.882 -0.8469 -0.7578  0.8282
 1189TIP3   OH227761   2.332   5.186   9.064  0.0953 -0.1424 -0.4227
 1189TIP3    H127762   2.306   5.191   8.972  1.3846  1.4355 -0.7463
 1189TIP3    H227763   2.386   5.264   9.078  0.1294 -0.4816  1.6147
 1190TIP3   OH227764   3.306   3.889   7.470  0.2294  0.1229  0.4247
 1190TIP3    H127765   3.336   3.904   7.560  1.0272  2.0429 -0.1106
 1190TIP3    H227766   3.368   3.826   7.434  1.1253  0.8766  0.6173
 1191TIP3   OH227767   0.270   7.301   8.922  0.2126 -0.0282  0.2503
 1191TIP3    H127768   0.280   7.391   8.955  0.3829  0.3594 -0.8203
 1191TIP3    H227769   0.274   7.246   9.001  0.3265  0.8839  0.8986
 1192TIP3   OH227770   4.001   1.419   9.909  0.4245  0.4045 -1.1356
 1192TIP3    H127771   4.092   1.393   9.894  0.0650 -0.4365 -2.0177
 1192TIP3    H227772   3.983   1.483   9.839 -0.1258 -0.6512 -1.9891
 1193TIP3   OH227773   4.623   3.589   7.689  0.0270 -0.0254 -0.2260
 1193TIP3    H127774   4.612   3.553   7.777  1.7374  1.0220  0.4655
 1193TIP3    H227775   4.547   3.647   7.677 -1.0386 -1.3472 -0.0867
 1194TIP3   OH227776   1.237   4.713   7.362 -0.1770  0.3953  0.2876
 1194TIP3    H127777   1.183   4.721   7.284  0.1169  1.5874  0.1952
 1194TIP3    H227778   1.327   4.720   7.330 -0.0769  2.9116  0.9072
 1195TIP3   OH227779   4.652   7.487   7.415 -0.1887 -0.0129 -0.4932
 1195TIP3    H127780   4.723   7.433   7.451  0.1155 -0.1272 -1.2408
 1195TIP3    H227781   4.616   7.533   7.491  0.7795  0.1562 -0.1168
 1196TIP3   OH227782   6.848   4.580   8.793 -0.1377  0.2205  0.1098
 1196TIP3    H127783   6.882   4.490   8.787  0.4128  0.3891  0.6176
 1196TIP3    H227784   6.803   4.583   8.877 -2.3817 -0.3074 -1.0073
 1197TIP3   OH227785   3.621   6.470   2.845  0.0264  0.4270  0.2991
 1197TIP3    H127786   3.576   6.489   2.927  0.8941  0.8349  0.6854
 1197TIP3    H227787   3.698   6.420   2.870  1.3608  2.2249 -0.0404
 1198TIP3   OH227788   0.150   6.907   7.844  0.0069 -0.1126 -0.0547
 1198TIP3    H127789   0.159   6.962   7.766 -0.6152  0.6208  0.3748
 1198TIP3    H227790   0.232   6.919   7.892 -0.6915  1.6240  0.7642
 1199TIP3   OH227791   6.443   1.066   8.291  0.5205  0.0825  0.2849
 1199TIP3    H127792   6.472   1.153   8.318  0.2179  0.8931 -1.8869
 1199TIP3    H227793   6.465   1.060   8.198  1.2573 -2.4832  0.5323
 1200TIP3   OH227794   0.448   5.675   8.768  0.4193 -0.1107  0.3721
 1200TIP3    H127795   0.411   5.597   8.810  3.0560 -1.2894  0.6803
 1200TIP3    H227796   0.437   5.659   8.675 -2.4203  0.9713  0.4185
 1201TIP3   OH227797   4.359   2.999   2.119  0.0757  0.5322 -0.5484
 1201TIP3    H127798   4.272   2.960   2.108  0.2636  0.6164 -2.6748
 1201TIP3    H227799   4.405   2.979   2.038  2.0622  0.5271  0.5263
 1202TIP3   OH227800   2.573   2.067   8.414  0.3221 -0.0539 -0.0326
 1202TIP3    H127801   2.480   2.082   8.397  0.2115 -0.6464  0.0298
 1202TIP3    H227802   2.593   1.985   8.368  1.0092  0.4735 -0.7181
 1203TIP3   OH227803   4.205   6.936   1.844 -0.2751  0.0762 -0.4338
 1203TIP3    H127804   4.116   6.907   1.828  0.3822 -1.4595 -1.6153
 1203TIP3    H227805   4.254   6.856   1.864  0.7868  0.9137  0.4947
 1204TIP3   OH227806   5.223   5.988   8.516 -0.0152 -0.0334  0.1155
 1204TIP3    H127807   5.155   6.033   8.568 -0.2022 -1.2560  0.9587
 1204TIP3    H227808   5.174   5.928   8.460  0.2920  0.1652 -0.3708
 1205TIP3   OH227809   1.289   5.076   9.440 -0.8117  0.8932 -0.4178
 1205TIP3    H127810   1.221   5.084   9.507 -0.2429  1.8332  0.0660
 1205TIP3    H227811   1.351   5.146   9.460 -0.6018  1.1680 -1.8968
 1206TIP3   OH227812   5.220   7.352   0.572  0.0530 -0.1270  0.0962
 1206TIP3    H127813   5.310   7.383   0.561 -0.0723  0.7013  1.2391
 1206TIP3    H227814   5.166   7.418   0.528 -0.1206  0.5817  1.3252
 1207TIP3   OH227815   6.993   7.674   2.286  0.1041  0.4383 -0.2327
 1207TIP3    H127816   6.979   7.587   2.249  1.2435  0.5593 -1.0221
 1207TIP3    H227817   7.076   7.703   2.247 -0.4550  2.0322 -0.3050
 1208TIP3   OH227818   5.703   4.138   9.303  0.2086 -0.0707 -0.3236
 1208TIP3    H127819   5.689   4.075   9.374  1.8829 -0.7128 -0.5234
 1208TIP3    H227820   5.733   4.217   9.346  5.5267 -1.6755 -0.2954
 1209TIP3   OH227821   6.995   0.409   9.576 -0.0915 -0.3862 -0.3087
 1209TIP3    H127822   6.955   0.448   9.498 -1.1914 -0.8524  0.0051
 1209TIP3    H227823   7.086   0.437   9.572 -0.1783 -0.2096 -1.6400
 1210TIP3   OH227824   2.993   6.699   9.345 -0.2202 -0.0782  0.1917
 1210TIP3    H127825   3.014   6.765   9.410 -0.2563 -1.8278  2.0745
 1210TIP3    H227826   3.048   6.624   9.367 -0.2993 -0.7733 -1.7489
 1211TIP3   OH227827   7.588   1.566   0.733  0.3107  0.4092 -0.1928
 1211TIP3    H127828   7.505   1.540   0.693 -0.7854  3.0289  0.1898
 1211TIP3    H227829   7.633   1.616   0.665  1.1383 -0.0974 -0.0404
 1212TIP3   OH227830   1.953   6.376   7.267  0.5369 -0.5602  0.3518
 1212TIP3    H127831   1.992   6.394   7.181  1.6349 -1.2071  0.6935
 1212TIP3    H227832   1.873   6.429   7.268  1.4483  0.9040 -0.3472
 1213TIP3   OH227833   3.909   4.084   8.712 -0.4562  0.1503  0.4470
 1213TIP3    H127834   3.985   4.134   8.742 -1.5053  1.0692  1.6985
 1213TIP3    H227835   3.868   4.141   8.647 -1.3318  0.6968  1.4538
 1214TIP3   OH227836   6.605   2.551   8.169 -0.4396 -0.8258 -0.1666
 1214TIP3    H127837   6.536   2.551   8.235  0.4401 -0.5259  0.7851
 1214TIP3    H227838   6.586   2.474   8.115 -1.0967 -1.1634  0.5217
 1215TIP3   OH227839   0.297   4.113   7.903 -0.0293 -0.3402  0.2993
 1215TIP3    H127840   0.234   4.105   7.832  1.0503 -0.7331 -0.6529
 1215TIP3    H227841   0.322   4.022   7.923  1.8813 -0.1417 -0.9072
 1216TIP3   OH227842   2.180   4.886   0.871 -0.1472  0.1142 -0.1880
 1216TIP3    H127843   2.086   4.883   0.888 -0.1464  1.7919  0.3085
 1216TIP3    H227844   2.188   4.884   0.776 -0.6234 -0.8630 -0.2179
 1217TIP3   OH227845   3.209   0.742   0.364  0.7735  0.7522  0.0529
 1217TIP3    H127846   3.137   0.797   0.334 -0.7496 -0.1485  1.8117
 1217TIP3    H227847   3.187   0.654   0.333  0.7725  0.3581  1.1282
 1218TIP3   OH227848   6.652   1.801   8.846 -0.3581  0.2385  0.0469
 1218TIP3    H127849   6.601   1.811   8.765  1.0599  0.7372 -0.8355
 1218TIP3    H227850   6.660   1.707   8.858 -0.9644  0.1587 -0.1420
 1219TIP3   OH227851   0.378   4.309   9.875 -0.5456 -0.3445  0.5233
 1219TIP3    H127852   0.404   4.322   9.784 -0.7410  1.1857  0.6647
 1219TIP3    H227853   0.430   4.234   9.904 -0.5406 -0.9033 -0.8598
 1220TIP3   OH227854   6.485   0.872   0.619  0.0442  0.0442 -0.2398
 1220TIP3    H127855   6.515   0.933   0.686 -0.2057 -0.6856  0.5473
 1220TIP3    H227856   6.391   0.889   0.611 -0.2302 -0.9696  0.7551
 1221TIP3   OH227857   2.752   6.155   8.293 -0.0336 -0.1062 -0.0535
 1221TIP3    H127858   2.789   6.155   8.382  1.5646  0.1474 -0.6925
 1221TIP3    H227859   2.710   6.069   8.284  0.5409 -0.4688  0.6413
 1222TIP3   OH227860   4.324   2.747   1.160 -0.1740  0.5375 -0.1690
 1222TIP3    H127861   4.408   2.703   1.171  0.2907  1.6045  0.7842
 1222TIP3    H227862   4.346   2.840   1.162 -1.2505  0.8272 -1.0421
 1223TIP3   OH227863   6.677   4.512   8.359  0.2997  0.1473  0.0337
 1223TIP3    H127864   6.703   4.559   8.438  1.4145  0.1201 -0.3032
 1223TIP3    H227865   6.628   4.577   8.308 -0.3607  0.1857  0.6979
 1224TIP3   OH227866   3.060   2.879   0.552 -0.5297  0.3732  0.0504
 1224TIP3    H127867   3.127   2.811   0.552 -1.6434 -0.7608  0.9764
 1224TIP3    H227868   3.047   2.900   0.645 -1.6812  0.3302 -0.0864
 1225TIP3   OH227869   3.973   5.701   8.248  0.4120  0.6062  0.3609
 1225TIP3    H127870   3.958   5.606   8.254  0.3702  0.5535 -0.4245
 1225TIP3    H227871   4.029   5.721   8.323  0.2163  0.0032  0.6826
 1226TIP3   OH227872   5.631   1.005   0.729 -0.3019  0.1520 -0.0340
 1226TIP3    H127873   5.591   0.924   0.698 -1.6215  0.7637 -0.0341
 1226TIP3    H227874   5.561   1.048   0.778  0.4066  1.2333  0.0620
 1227TIP3   OH227875   6.017   2.081   8.667  0.2666 -0.4661 -0.4714
 1227TIP3    H127876   5.992   2.159   8.715 -2.6228 -0.7890 -1.2891
 1227TIP3    H227877   6.086   2.041   8.720  0.8295  1.8607  0.6691
 1228TIP3   OH227878   1.264   1.564   7.100 -0.7370  0.0587  0.3640
 1228TIP3    H127879   1.237   1.529   7.015  1.1105  0.5899 -0.5246
 1228TIP3    H227880   1.340   1.511   7.125 -1.9480 -0.8691  2.3260
 1229TIP3   OH227881   4.521   1.479   9.067 -0.0949 -0.0984  0.0616
 1229TIP3    H127882   4.486   1.482   8.977  1.0241  0.7290 -0.3719
 1229TIP3    H227883   4.518   1.386   9.091 -1.9377 -0.1426 -0.1886
 1230TIP3   OH227884   7.510   4.289   7.912 -0.7531  0.3139 -0.1279
 1230TIP3    H127885   7.438   4.313   7.854 -1.4392  0.8589  0.9218
 1230TIP3    H227886   7.540   4.204   7.879 -3.2225 -0.9516  0.5911
 1231TIP3   OH227887   3.976   5.494   9.765  0.4761  0.3519  0.4963
 1231TIP3    H127888   3.931   5.529   9.842  1.9691  0.3492  1.4084
 1231TIP3    H227889   4.018   5.570   9.725  1.9767 -0.0165  1.2841
 1232TIP3   OH227890   4.502   5.980   0.884  0.1557 -0.0706  0.1402
 1232TIP3    H127891   4.435   6.039   0.919 -1.1507 -1.2731 -0.2532
 1232TIP3    H227892   4.489   5.898   0.931  0.4712 -0.7186 -0.8608
 1233TIP3   OH227893   3.754   3.731   1.020 -0.0387  0.0757 -0.3386
 1233TIP3    H127894   3.728   3.767   0.935  0.8123 -0.8500 -1.0208
 1233TIP3    H227895   3.801   3.803   1.063  1.6267 -0.1303 -1.6718
 1234TIP3   OH227896   2.387   1.351   8.464  0.4750  0.2787  0.9789
 1234TIP3    H127897   2.418   1.320   8.378 -1.5435  1.6176 -0.3276
 1234TIP3    H227898   2.383   1.446   8.455 -1.0887  0.3568  2.0567
 1235TIP3   OH227899   6.149   4.904   1.676 -0.6813 -1.0419 -0.3132
 1235TIP3    H127900   6.211   4.842   1.715  2.0083  1.4560 -0.2658
 1235TIP3    H227901   6.159   4.892   1.582  0.6568 -0.0632 -0.3327
 1236TIP3   OH227902   0.979   2.974   7.962  0.4476  0.0494  0.1647
 1236TIP3    H127903   0.986   2.964   7.867 -2.2059  1.1170 -0.2351
 1236TIP3    H227904   0.935   2.894   7.991 -1.4190  0.9376 -0.0111
 1237TIP3   OH227905   0.354   1.933   8.825  0.3849  0.3683 -0.7568
 1237TIP3    H127906   0.433   1.884   8.845 -0.0069  0.1464  0.3104
 1237TIP3    H227907   0.381   2.024   8.820  0.4246  0.5020  1.3566
 1238TIP3   OH227908   2.366   2.953   0.441  0.4070  0.3089  0.4594
 1238TIP3    H127909   2.399   3.026   0.493  2.1393  0.7778 -1.1591
 1238TIP3    H227910   2.445   2.916   0.401 -0.5414 -1.8740  0.4920
 1239TIP3   OH227911   1.822   6.074   0.979  0.0561 -0.7448  0.3847
 1239TIP3    H127912   1.879   6.009   0.939 -0.9091 -1.2240 -0.2523
 1239TIP3    H227913   1.761   6.023   1.032  0.1445 -0.2483  0.9775
 1240TIP3   OH227914   6.969   2.850   9.026 -0.1527  0.1951  0.1473
 1240TIP3    H127915   6.923   2.926   8.991 -1.0382 -0.2270  0.3654
 1240TIP3    H227916   6.903   2.804   9.078  0.6920 -0.0816  0.9956
 1241TIP3   OH227917   7.297   4.453   7.503 -0.5958 -0.7766  0.1570
 1241TIP3    H127918   7.341   4.393   7.442 -1.7939 -2.2717  0.6800
 1241TIP3    H227919   7.339   4.537   7.489 -1.4521 -0.7704 -3.4770
 1242TIP3   OH227920   1.244   3.596   1.207 -0.0902  0.3697  0.0802
 1242TIP3    H127921   1.321   3.571   1.156 -0.6647  0.8659 -1.0678
 1242TIP3    H227922   1.276   3.664   1.266  0.2869  0.8756 -0.6808
 1243TIP3   OH227923   6.403   4.267   0.553  0.4894 -0.1152  0.2983
 1243TIP3    H127924   6.401   4.208   0.628 -0.7597 -1.8846 -1.0389
 1243TIP3    H227925   6.491   4.259   0.518  0.8479  0.1448  1.1157
 1244TIP3   OH227926   2.829   0.208   9.066 -0.0518 -0.2470  0.0304
 1244TIP3    H127927   2.893   0.275   9.041 -2.0565  1.3280 -1.1310
 1244TIP3    H227928   2.817   0.220   9.160  0.0140  0.6884 -0.0712
 1245TIP3   OH227929   0.901   1.388   0.493 -0.1949  0.8091  0.2383
 1245TIP3    H127930   0.861   1.474   0.484 -2.6286 -0.3585 -1.5067
 1245TIP3    H227931   0.990   1.399   0.461 -0.1983  2.8215  0.8165
 1246TIP3   OH227932   1.516   4.179   1.442 -0.5112 -0.1656 -0.7735
 1246TIP3    H127933   1.488   4.114   1.506  0.8236 -0.2922 -0.2902
 1246TIP3    H227934   1.581   4.134   1.388 -0.2394  0.4963 -1.0110
 1247TIP3   OH227935   2.416   4.376   9.876  0.1034  0.1989 -0.2998
 1247TIP3    H127936   2.421   4.330   9.792  2.1426 -0.1647 -0.0133
 1247TIP3    H227937   2.437   4.309   9.941  0.1076  0.8544  0.3844
 1248TIP3   OH227938   4.325   0.959   1.477  0.5042 -0.2066 -0.1715
 1248TIP3    H127939   4.403   1.003   1.510 -0.6014  0.8056  1.2076
 1248TIP3    H227940   4.252   0.999   1.525 -0.7721 -1.9019 -0.5889
 1249TIP3   OH227941   0.754   4.871   0.082  0.2012 -0.3384  0.5859
 1249TIP3    H127942   0.697   4.940   0.047 -0.8285 -2.2755 -1.7811
 1249TIP3    H227943   0.729   4.865   0.175 -1.8302  0.4085  0.1395
 1250TIP3   OH227944   5.054   1.355   8.277  0.5693  0.3243  0.1352
 1250TIP3    H127945   5.003   1.276   8.258 -0.5488  0.8999  0.6226
 1250TIP3    H227946   4.992   1.414   8.321  1.5566  1.2161  0.3880
 1251TIP3   OH227947   7.374   6.295   7.950  0.1022 -0.2102 -0.8027
 1251TIP3    H127948   7.283   6.267   7.961  0.2754 -1.1787 -1.7125
 1251TIP3    H227949   7.416   6.271   8.032 -0.6342  1.0615 -0.0059
 1252TIP3   OH227950   2.218   5.424   1.613 -0.4552  0.6236 -0.1799
 1252TIP3    H127951   2.304   5.387   1.591 -1.8444 -1.4109 -2.9109
 1252TIP3    H227952   2.195   5.384   1.696  0.0345 -1.2420 -0.8859
 1253TIP3   OH227953   0.254   5.046   2.101 -0.1882 -0.4683  0.2343
 1253TIP3    H127954   0.169   5.063   2.059  0.4396 -0.2510 -0.9904
 1253TIP3    H227955   0.271   4.954   2.085  0.0964 -0.3636 -0.0726
 1254TIP3   OH227956   1.364   4.345   1.013 -0.0081 -0.0680 -0.2352
 1254TIP3    H127957   1.361   4.440   1.026 -2.5648  0.0349 -0.8996
 1254TIP3    H227958   1.352   4.333   0.919  2.1977 -1.0743 -0.4557
 1255TIP3   OH227959   6.097   1.101   2.292 -0.1463 -0.0469  0.4664
 1255TIP3    H127960   6.118   1.036   2.361 -1.9307 -1.2273 -0.0492
 1255TIP3    H227961   6.003   1.114   2.300 -0.1570  0.7895 -0.9287
 1256TIP3   OH227962   7.524   7.458   1.029 -0.5682  0.1002 -0.0756
 1256TIP3    H127963   7.585   7.463   0.955 -1.1418 -0.2746 -0.5791
 1256TIP3    H227964   7.571   7.406   1.095  0.6785  1.9367  0.5705
 1257TIP3   OH227965   4.072   4.195   1.865 -0.2381 -0.0088 -0.0168
 1257TIP3    H127966   4.106   4.137   1.933  0.3480  2.0197  1.5004
 1257TIP3    H227967   3.979   4.171   1.858  0.2990 -2.1796 -0.6169
 1258TIP3   OH227968   7.267   4.513   7.990 -0.2240  0.0997 -0.0747
 1258TIP3    H127969   7.215   4.442   8.028  3.1810 -3.0102 -0.6941
 1258TIP3    H227970   7.262   4.498   7.895  1.3120 -0.0010 -0.1684
 1259TIP3   OH227971   4.612   4.435   8.777  0.2782  0.1773 -0.3100
 1259TIP3    H127972   4.535   4.456   8.830 -0.3487  0.3760 -1.2589
 1259TIP3    H227973   4.599   4.344   8.752  2.0478 -0.8620  2.2442
 1260TIP3   OH227974   7.569   2.358   9.815  0.2074 -0.3045 -0.4001
 1260TIP3    H127975   7.617   2.380   9.734 -0.3639  1.0785 -0.3885
 1260TIP3    H227976   7.634   2.312   9.869  0.5199 -1.5467 -1.7436
 1261TIP3   OH227977   3.744   2.839   8.684 -0.0446 -0.1215  0.2310
 1261TIP3    H127978   3.709   2.870   8.601  1.8881 -0.7209 -0.8848
 1261TIP3    H227979   3.763   2.919   8.733 -4.2331  0.2660  1.6239
 1262TIP3   OH227980   4.373   2.252   9.949  0.0562  0.3104 -0.3572
 1262TIP3    H127981   4.315   2.182   9.919  0.3732 -0.0497 -0.1390
 1262TIP3    H227982   4.395   2.301   9.870 -2.1198  1.6793 -0.2068
 1263TIP3   OH227983   6.308   1.479   9.567 -0.1720 -0.4306  0.3234
 1263TIP3    H127984   6.364   1.541   9.521  0.1683 -1.8295 -1.2458
 1263TIP3    H227985   6.235   1.463   9.506 -0.4579 -1.2587  0.8676
 1264TIP3   OH227986   5.723   1.760   7.545  0.0482 -0.6600 -0.1858
 1264TIP3    H127987   5.643   1.812   7.534  1.4378  1.7687  0.3418
 1264TIP3    H227988   5.695   1.670   7.532 -2.6782  0.1270 -0.4523
 1265TIP3   OH227989   3.930   2.258   1.401 -0.0254  0.4507  0.1183
 1265TIP3    H127990   3.969   2.345   1.412  0.3624  0.6940 -2.5821
 1265TIP3    H227991   3.890   2.260   1.314  0.7937 -2.3694 -0.4201
 1266TIP3   OH227992   2.431   6.459   0.366 -0.0809 -1.0003  0.4736
 1266TIP3    H127993   2.452   6.539   0.414 -1.7895 -0.9844  1.2751
 1266TIP3    H227994   2.459   6.388   0.423 -0.3402 -0.9739  0.6348
 1267TIP3   OH227995   5.511   3.231   8.140 -0.6440 -0.0804 -0.3671
 1267TIP3    H127996   5.530   3.181   8.219 -2.5335  0.2232  0.3289
 1267TIP3    H227997   5.531   3.171   8.068  1.2118 -0.3212  0.2948
 1268TIP3   OH227998   6.239   1.795   8.615 -0.3340 -0.1382 -0.2006
 1268TIP3    H127999   6.204   1.851   8.685  0.1660  0.0995 -0.1388
 1268TIP3    H228000   6.183   1.813   8.540  0.5305  1.3458 -0.5355
 1269TIP3   OH228001   4.608   7.308   9.475 -0.1238 -0.2263  0.4118
 1269TIP3    H128002   4.570   7.387   9.438  0.6174 -1.2099 -2.8430
 1269TIP3    H228003   4.548   7.238   9.449  1.7901 -1.3060 -1.5316
 1270TIP3   OH228004   4.804   0.878   7.651 -0.2688 -0.0609  0.1216
 1270TIP3    H128005   4.861   0.890   7.726  0.7072 -0.9079 -0.4651
 1270TIP3    H228006   4.803   0.964   7.608  0.7805 -0.1006 -0.0025
 1271TIP3   OH228007   5.050   7.012   8.917  0.3681 -0.4654  0.1554
 1271TIP3    H128008   4.957   7.031   8.934 -0.0416 -1.1588 -1.1277
 1271TIP3    H228009   5.068   6.934   8.969 -0.3927 -1.5764 -1.1734
 1272TIP3   OH228010   2.881   5.371   1.770 -0.3645  0.8541  0.1287
 1272TIP3    H128011   2.875   5.276   1.765 -3.2460  1.0049 -1.2310
 1272TIP3    H228012   2.960   5.393   1.720  0.4043 -0.7891  0.5541
 1273TIP3   OH228013   0.700   5.605   7.339  0.2754  0.0910  0.4856
 1273TIP3    H128014   0.612   5.567   7.341 -0.4953  1.6812 -0.9434
 1273TIP3    H228015   0.746   5.555   7.272  0.3165 -0.3982  0.8680
 1274TIP3   OH228016   6.215   5.133   0.989  0.5698 -0.0253 -0.4199
 1274TIP3    H128017   6.223   5.221   1.026 -0.6734  0.2230 -0.7015
 1274TIP3    H228018   6.121   5.117   0.986  0.7883 -1.7203  0.4531
 1275TIP3   OH228019   4.005   4.936   8.415  0.7263  0.1980  0.5957
 1275TIP3    H128020   4.038   4.964   8.501  1.9744 -1.9070  0.8694
 1275TIP3    H228021   4.005   4.841   8.419 -1.6169  0.0444 -0.8969
 1276TIP3   OH228022   5.901   6.340   0.779  0.2789  0.3153  0.1283
 1276TIP3    H128023   5.992   6.320   0.758 -0.2137 -0.6254 -1.2962
 1276TIP3    H228024   5.906   6.413   0.841  1.9990 -0.2548  0.7205
 1277TIP3   OH228025   2.200   5.963   7.361  0.3197 -0.0887  0.0334
 1277TIP3    H128026   2.227   6.044   7.405  0.6671 -0.2790  0.1712
 1277TIP3    H228027   2.199   5.897   7.430 -1.3667  0.0950  0.2231
 1278TIP3   OH228028   6.826   3.562   8.149  0.1861 -0.4405 -0.6320
 1278TIP3    H128029   6.822   3.618   8.072 -2.9208  0.2475 -0.0879
 1278TIP3    H228030   6.912   3.580   8.188  1.1212  0.4617 -2.9586
 1279TIP3   OH228031   2.904   2.073   9.449  0.6753  0.0716 -0.6379
 1279TIP3    H128032   2.916   2.022   9.368 -1.0770 -0.7625 -0.4139
 1279TIP3    H228033   2.942   2.159   9.429  1.5396 -0.5559 -1.8495
 1280TIP3   OH228034   3.115   2.143   1.770  0.1856 -0.3242 -0.4701
 1280TIP3    H128035   3.072   2.214   1.723 -0.3908 -0.8188 -0.7058
 1280TIP3    H228036   3.050   2.072   1.772 -0.3198  0.0952  2.1583
 1281TIP3   OH228037   2.018   5.445   8.083 -0.2680 -0.2782  0.1458
 1281TIP3    H128038   2.005   5.452   7.989 -0.8490 -1.9146  0.0609
 1281TIP3    H228039   2.092   5.385   8.093 -1.4414 -1.6951  0.7034
 1282TIP3   OH228040   7.313   2.318   1.412  0.1312 -0.3606  0.0630
 1282TIP3    H128041   7.273   2.396   1.371  0.6533 -0.4293 -0.5976
 1282TIP3    H228042   7.387   2.297   1.355  2.1532  0.7316  2.1525
 1283TIP3   OH228043   3.911   0.109   2.290  0.1069 -0.4780 -0.1579
 1283TIP3    H128044   3.876   0.041   2.348  0.2938  0.8425  1.6101
 1283TIP3    H228045   3.840   0.172   2.283 -0.3158 -1.1314 -2.3515
 1284TIP3   OH228046   0.211   1.594   1.720 -0.2071  0.7340 -0.5207
 1284TIP3    H128047   0.262   1.617   1.642  0.4418  0.4104 -0.1986
 1284TIP3    H228048   0.125   1.571   1.686  0.0292  0.7174 -1.1292
 1285TIP3   OH228049   4.650   0.005   1.756 -0.3022  0.1618 -0.1585
 1285TIP3    H128050   4.620  -0.035   1.674 -1.8653 -0.5894  0.7152
 1285TIP3    H228051   4.569   0.018   1.807  0.5061  1.6729  0.8142
 1286TIP3   OH228052   7.192   6.832   9.824  0.1843  0.0894 -0.1275
 1286TIP3    H128053   7.136   6.892   9.774 -0.6183  0.2467  0.9078
 1286TIP3    H228054   7.184   6.863   9.915  0.4902 -1.0293  0.2941
 1287TIP3   OH228055   7.387   3.488   8.942  0.0183 -0.3383 -0.8281
 1287TIP3    H128056   7.470   3.448   8.918  2.8606  1.9224  3.7706
 1287TIP3    H228057   7.392   3.577   8.908 -0.0504  0.0689  0.1713
 1288TIP3   OH228058   2.178   4.528   0.496 -0.4328 -0.1210  0.5048
 1288TIP3    H128059   2.123   4.597   0.460 -1.7098 -0.8573  0.9893
 1288TIP3    H228060   2.177   4.459   0.431  1.1853  0.4364 -0.1685
 1289TIP3   OH228061   7.030   3.688   0.229  0.1805 -0.4792  0.5381
 1289TIP3    H128062   6.988   3.645   0.304  0.9794 -0.2657  1.1146
 1289TIP3    H228063   6.999   3.779   0.233  0.1874 -0.4787  0.5716
 1290TIP3   OH228064   2.479   0.312   0.760  0.1411 -0.0306  0.0701
 1290TIP3    H128065   2.483   0.341   0.851  0.2074  0.2841 -0.0315
 1290TIP3    H228066   2.539   0.237   0.756  2.0419  1.4343 -0.2441
 1291TIP3   OH228067   0.885   1.439   2.050  0.4360  0.0532  0.3879
 1291TIP3    H128068   0.970   1.481   2.060  0.9184 -0.6453 -0.5956
 1291TIP3    H228069   0.877   1.382   2.127 -0.4179  2.1512  1.9756
 1292TIP3   OH228070   2.335   4.441   0.226 -0.7186  0.4029 -0.5875
 1292TIP3    H128071   2.300   4.523   0.192  1.5305  1.3328 -0.8453
 1292TIP3    H228072   2.367   4.395   0.148 -0.1379  0.2327 -0.2536
 1293TIP3   OH228073   5.269   5.935   1.532  0.0500  0.0744  0.0695
 1293TIP3    H128074   5.291   5.845   1.508  2.5974  0.4270  0.7861
 1293TIP3    H228075   5.354   5.976   1.551 -1.1614  2.1878  1.2811
 1294TIP3   OH228076   7.019   3.944   9.136 -0.0509 -0.2724 -0.3609
 1294TIP3    H128077   6.984   3.876   9.079 -0.0698 -0.2266 -0.4029
 1294TIP3    H228078   7.113   3.944   9.118 -0.2596  0.8795 -1.6015
 1295TIP3   OH228079   1.556   0.736   1.157  0.1680  0.2055 -0.6411
 1295TIP3    H128080   1.625   0.678   1.189 -0.3180  0.5930  1.2166
 1295TIP3    H228081   1.483   0.722   1.217  0.2914  3.2703  0.4138
 1296TIP3   OH228082   4.346   3.633   1.363 -0.2409 -0.1086  0.3043
 1296TIP3    H128083   4.425   3.589   1.332  0.2034 -1.1790  2.7223
 1296TIP3    H228084   4.379   3.704   1.419 -0.9907  0.2510  0.2974
 1297TIP3   OH228085   5.585   1.501   0.404  0.0164 -0.2093 -0.0841
 1297TIP3    H128086   5.592   1.422   0.458  0.2405  0.3623  0.7354
 1297TIP3    H228087   5.522   1.477   0.336  1.8223 -1.8893 -1.2799
 1298TIP3   OH228088   2.286   6.520   7.077  0.2510  0.5710 -0.2981
 1298TIP3    H128089   2.296   6.430   7.109  0.1203  1.0990  1.3183
 1298TIP3    H228090   2.194   6.527   7.052 -0.4126  0.9802  2.0621
 1299TIP3   OH228091   2.149   2.515   0.438  0.3799  0.0477  0.7693
 1299TIP3    H128092   2.098   2.495   0.516 -1.8830  0.2867 -0.5567
 1299TIP3    H228093   2.111   2.596   0.405  1.2344 -0.0853 -0.6043
 1300TIP3   OH228094   6.090   6.028   0.838  0.3293  0.1984  0.0467
 1300TIP3    H128095   6.129   5.952   0.796 -0.1685 -1.7665  2.8115
 1300TIP3    H228096   5.997   6.005   0.845  0.0686  1.3311  0.3826
 1301TIP3   OH228097   4.973   6.416   7.909  0.3816 -0.0610  0.5186
 1301TIP3    H128098   5.041   6.467   7.954  1.9814 -1.5517 -0.0723
 1301TIP3    H228099   4.961   6.339   7.965  0.4337 -0.6258 -0.2321
 1302TIP3   OH228100   1.473   3.040   0.550 -0.1554  0.9572 -0.2902
 1302TIP3    H128101   1.519   3.124   0.548 -1.3349  1.6189 -1.1373
 1302TIP3    H228102   1.477   3.012   0.641  1.1986  1.3949 -0.2022
 1303TIP3   OH228103   3.579   4.118   1.234 -0.3746 -0.0548  0.1632
 1303TIP3    H128104   3.530   4.043   1.268  0.8272 -0.1339  1.8254
 1303TIP3    H228105   3.631   4.148   1.308  0.3178  1.4907 -0.9048
 1304TIP3   OH228106   0.152   5.862   1.159  0.5819 -0.0110 -0.2775
 1304TIP3    H128107   0.142   5.932   1.095 -0.8975 -0.2207 -0.2995
 1304TIP3    H228108   0.063   5.833   1.179  1.0986 -1.1385  0.5680
 1305TIP3   OH228109   4.400   0.450   1.391 -0.5790 -0.3511  0.5433
 1305TIP3    H128110   4.392   0.545   1.390 -0.2763 -0.3248 -0.0985
 1305TIP3    H228111   4.438   0.430   1.476  0.0252  0.1663  0.4036
 1306TIP3   OH228112   3.016   3.444   0.484 -0.0933 -0.5242 -0.6746
 1306TIP3    H128113   3.015   3.537   0.460  2.8535 -0.4410 -0.7929
 1306TIP3    H228114   3.054   3.401   0.408  1.6171 -1.3731  0.6147
 1307TIP3   OH228115   3.742   6.349   0.516  0.7523 -0.6106 -0.2158
 1307TIP3    H128116   3.804   6.280   0.541  1.0529 -0.3255 -0.1548
 1307TIP3    H228117   3.798   6.425   0.499  0.2094  0.7238  3.2805
 1308TIP3   OH228118   6.357   1.774   0.302 -0.1556 -0.8065  0.4000
 1308TIP3    H128119   6.281   1.833   0.301  0.0323 -0.5663 -0.2862
 1308TIP3    H228120   6.419   1.816   0.362  0.7285  0.6837 -1.4551
 1309TIP3   OH228121   4.951   3.068   9.324 -0.3730 -0.3443  0.1274
 1309TIP3    H128122   5.029   3.052   9.271 -0.0313 -0.5073  0.6690
 1309TIP3    H228123   4.943   2.990   9.378 -0.2526  0.1497  0.8807
 1310TIP3   OH228124   5.189   6.527   9.181 -0.0655 -0.3390  0.4810
 1310TIP3    H128125   5.263   6.573   9.220 -1.2578  1.3115  0.8907
 1310TIP3    H228126   5.190   6.441   9.222  0.6383  0.2404  1.7210
 1311TIP3   OH228127   5.707   3.449   0.005  0.6542 -0.2249 -0.4304
 1311TIP3    H128128   5.698   3.525   0.063  0.3091 -0.7046  0.1553
 1311TIP3    H228129   5.663   3.475  -0.076 -2.7612 -1.0624  0.9702
 1312TIP3   OH228130   2.652   7.020   8.263 -0.2134 -0.0056 -0.1710
 1312TIP3    H128131   2.587   6.961   8.226 -0.3552  0.3133 -0.4318
 1312TIP3    H228132   2.722   7.023   8.198 -0.3970  0.4416 -0.3532
 1313TIP3   OH228133   2.273   6.712   7.312  0.0852 -0.2172 -0.4951
 1313TIP3    H128134   2.331   6.683   7.241  0.2632 -2.8316  0.6191
 1313TIP3    H228135   2.203   6.647   7.314 -1.0462  0.9750  0.4297
 1314TIP3   OH228136   4.108   0.710   9.347 -0.4254 -0.3053 -0.9579
 1314TIP3    H128137   4.165   0.735   9.274 -0.7142  0.9943 -0.7650
 1314TIP3    H228138   4.160   0.729   9.425 -0.1034 -1.7317 -0.7919
 1315TIP3   OH228139   2.901   3.229   7.763 -0.6255  0.1380 -0.6795
 1315TIP3    H128140   2.849   3.149   7.766 -0.6491  0.1434 -0.9482
 1315TIP3    H228141   2.968   3.216   7.831 -1.9424  0.8226  0.8033
 1316TIP3   OH228142   4.389   0.899   8.364 -0.3997  0.6590 -0.3089
 1316TIP3    H128143   4.404   0.842   8.289  0.6570 -0.3365  0.6171
 1316TIP3    H228144   4.327   0.851   8.419  1.3485 -0.1906  1.0209
 1317TIP3   OH228145   7.480   4.273   0.890  0.5474 -0.8459 -0.2393
 1317TIP3    H128146   7.443   4.271   0.979  1.7179  0.5943  0.3218
 1317TIP3    H228147   7.406   4.297   0.834  0.3783  1.2486  0.7735
 1318TIP3   OH228148   1.991   5.352   1.425  0.4653  0.3080  0.6652
 1318TIP3    H128149   1.925   5.372   1.491 -0.1304 -0.0915  0.1978
 1318TIP3    H228150   2.073   5.386   1.462  0.4580 -1.3241  2.3511
 1319TIP3   OH228151   0.986   3.644   8.567  0.2076 -0.7491  0.0638
 1319TIP3    H128152   0.901   3.652   8.523  0.8837 -0.1090 -1.1787
 1319TIP3    H228153   1.010   3.735   8.587  1.4722 -0.7395 -1.3493
 1320TIP3   OH228154   4.444   0.846   9.727 -0.1568 -0.1845  0.1660
 1320TIP3    H128155   4.538   0.839   9.743 -0.4672 -0.7493  2.0350
 1320TIP3    H228156   4.405   0.846   9.815 -1.7841  2.1896 -0.4641
 1321TIP3   OH228157   4.797   2.640   8.233  0.7112  0.3865 -0.6585
 1321TIP3    H128158   4.733   2.569   8.230  0.7918  0.2336  0.6181
 1321TIP3    H228159   4.808   2.667   8.142  0.3121 -0.9058 -1.1092
 1322TIP3   OH228160   1.567   6.572   2.220 -0.4898 -0.3567  0.0629
 1322TIP3    H128161   1.492   6.614   2.263  0.4358  0.5284  0.8700
 1322TIP3    H228162   1.643   6.624   2.248  0.4188 -1.1729 -0.8094
 1323TIP3   OH228163   4.092   4.063   7.969  0.0109 -0.0660  0.5085
 1323TIP3    H128164   4.045   4.106   7.898  0.2674 -2.7530 -1.4539
 1323TIP3    H228165   4.025   4.047   8.035 -0.9810 -0.2762 -0.5032
 1324TIP3   OH228166   3.992   2.690   0.321 -0.0836 -0.6556  0.5052
 1324TIP3    H128167   4.020   2.642   0.399  3.2030 -0.6902 -0.5216
 1324TIP3    H228168   3.990   2.624   0.252  3.2243  0.2494 -0.6466
 1325TIP3   OH228169   7.297   1.704   8.772 -0.1876  0.4399  0.3114
 1325TIP3    H128170   7.243   1.712   8.694  0.0646 -0.3664  0.0394
 1325TIP3    H228171   7.344   1.621   8.760 -0.6631 -0.0581  1.6334
 1326TIP3   OH228172   0.651   5.332   7.584  0.1462 -0.2552  0.1911
 1326TIP3    H128173   0.573   5.333   7.529 -0.4791 -1.6738  0.9852
 1326TIP3    H228174   0.638   5.257   7.643  2.5489 -1.1644 -0.2941
 1327TIP3   OH228175   2.843   3.679   1.825 -0.9107  0.0884  0.4203
 1327TIP3    H128176   2.783   3.738   1.779  0.2012  0.9405 -0.0183
 1327TIP3    H228177   2.792   3.642   1.896 -2.0414  0.5093 -0.1466
 1328TIP3   OH228178   2.931   6.921   0.022  0.0834 -0.5007  0.3576
 1328TIP3    H128179   2.955   6.919  -0.071 -0.7293  2.0082  0.0032
 1328TIP3    H228180   2.994   6.981   0.062 -0.2191 -0.7285  1.1965
 1329TIP3   OH228181   7.504   0.122   8.664  0.3619  0.5737  0.0587
 1329TIP3    H128182   7.485   0.031   8.684  1.6017 -0.3951 -2.7000
 1329TIP3    H228183   7.424   0.155   8.625  0.5117  0.0803 -0.6745
 1330TIP3   OH228184   1.683   3.966   7.197  0.1877  0.9244  0.4725
 1330TIP3    H128185   1.706   4.003   7.112  0.9026 -0.7279 -0.0941
 1330TIP3    H228186   1.601   3.918   7.182  0.7389 -0.0614  0.4770
 1331TIP3   OH228187   1.020   3.241   8.430  0.2998 -0.7749  0.0357
 1331TIP3    H128188   0.928   3.247   8.402  0.3602 -1.2488 -0.2637
 1331TIP3    H228189   1.025   3.158   8.478  0.7699 -1.1661 -0.6820
 1332TIP3   OH228190   3.009   0.645   2.065  0.3925 -0.1307 -0.2814
 1332TIP3    H128191   2.944   0.616   2.001  0.8200 -0.9734 -0.3413
 1332TIP3    H228192   3.091   0.649   2.016  0.1421  2.5684 -0.6558
 1333TIP3   OH228193   7.537   5.227   2.518  0.3435  0.5706  0.1266
 1333TIP3    H128194   7.515   5.156   2.578 -0.5293  0.9127  0.2356
 1333TIP3    H228195   7.605   5.276   2.562  0.4168  0.2368  0.3885
 1334TIP3   OH228196   2.678   7.489   9.979 -0.1676  0.5731  0.1710
 1334TIP3    H128197   2.751   7.526  10.029 -1.1399  0.4310  1.7521
 1334TIP3    H228198   2.604   7.492  10.039 -2.0173  2.5429 -2.0044
 1335TIP3   OH228199   0.532   1.796   7.467 -0.2005 -0.1528 -0.6176
 1335TIP3    H128200   0.616   1.805   7.421 -1.4103  1.3530 -2.7088
 1335TIP3    H228201   0.488   1.725   7.422  0.0691 -1.2451  0.7704
 1336TIP3   OH228202   5.608   3.110   8.366 -0.3448 -0.0563  0.1962
 1336TIP3    H128203   5.620   3.115   8.461  1.0050  1.0115 -0.0054
 1336TIP3    H228204   5.677   3.165   8.330 -0.5038 -0.8743 -1.4409
 1337TIP3   OH228205   4.015   5.025   1.494  0.1375 -0.1318  0.2512
 1337TIP3    H128206   4.058   4.943   1.474  0.4703 -0.0132  0.4718
 1337TIP3    H228207   4.008   5.071   1.410  0.2399 -0.2454  0.1823
 1338TIP3   OH228208   3.082   2.720   2.539  0.2095 -0.0698 -0.0008
 1338TIP3    H128209   3.171   2.741   2.566 -0.0292 -0.8813  1.5375
 1338TIP3    H228210   3.092   2.658   2.466  0.8976 -0.1414  0.1521
 1339TIP3   OH228211   0.436   3.629   9.774 -0.4931  0.0185 -0.3582
 1339TIP3    H128212   0.401   3.713   9.746  1.7740  0.2742 -2.7926
 1339TIP3    H228213   0.467   3.587   9.694  1.7638 -1.5237  1.1870
 1340TIP3   OH228214   6.433   6.737   9.283  0.1757  0.3041  0.1062
 1340TIP3    H128215   6.467   6.804   9.223  0.2110  0.1761 -0.0164
 1340TIP3    H228216   6.446   6.775   9.370 -0.7313  0.8927  0.0049
 1341TIP3   OH228217   2.962   6.403   9.182 -0.5669  0.2635  0.1660
 1341TIP3    H128218   3.015   6.482   9.185  0.9683 -0.6855 -0.7558
 1341TIP3    H228219   2.995   6.355   9.105 -0.4254 -1.9692  1.5411
 1342TIP3   OH228220   1.421   1.550   0.760 -0.4687 -0.0394  0.2364
 1342TIP3    H128221   1.345   1.578   0.709  0.4658  1.0513 -0.6364
 1342TIP3    H228222   1.461   1.632   0.790 -0.2514 -0.6268  1.6165
 1343TIP3   OH228223   7.548   4.188   0.558  0.1615  0.3568  0.1769
 1343TIP3    H128224   7.581   4.156   0.474  0.5019 -0.3037  0.5569
 1343TIP3    H228225   7.624   4.185   0.616 -0.5451 -1.2275  1.0843
 1344TIP3   OH228226   1.515   1.430   7.154  0.0042 -0.0361 -0.4712
 1344TIP3    H128227   1.495   1.338   7.173 -0.6837  0.3775  0.9005
 1344TIP3    H228228   1.596   1.426   7.102  0.0659 -1.4114 -0.3148
 1345TIP3   OH228229   7.567   5.840   8.604  1.1196  0.5978 -0.3866
 1345TIP3    H128230   7.627   5.768   8.619 -0.0904 -0.5042 -0.6570
 1345TIP3    H228231   7.591   5.875   8.518  1.4218  0.2228 -0.4556
 1346TIP3   OH228232   2.571   6.464   0.745 -0.0106 -0.4728  0.1376
 1346TIP3    H128233   2.519   6.533   0.704  0.8696  2.1726  3.0054
 1346TIP3    H228234   2.533   6.454   0.833  0.1411 -3.4822 -0.0242
 1347TIP3   OH228235   6.268   3.377   0.250  0.1730 -0.5181  0.1951
 1347TIP3    H128236   6.302   3.465   0.266 -1.2648 -0.2532  2.1291
 1347TIP3    H228237   6.346   3.321   0.251  0.8926  0.4666  1.1804
 1348TIP3   OH228238   0.568   5.111   9.903  0.0090  0.2092 -0.9192
 1348TIP3    H128239   0.660   5.109   9.877 -0.0232  0.3631 -1.0520
 1348TIP3    H228240   0.522   5.063   9.833  0.1541 -1.1263 -0.1161
 1349TIP3   OH228241   7.470   4.169   9.518  0.0890  0.4587  0.3751
 1349TIP3    H128242   7.400   4.140   9.576 -1.0439  2.9116  0.3965
 1349TIP3    H228243   7.548   4.124   9.549 -1.2029 -1.3287  1.2180
 1350TIP3   OH228244   5.490   5.648   9.201 -0.3471  0.1431 -0.2092
 1350TIP3    H128245   5.467   5.741   9.197 -0.8239 -0.0312 -2.1531
 1350TIP3    H228246   5.504   5.622   9.110  0.8375 -1.4451  0.3781
 1351TIP3   OH228247   5.676   3.505   8.218 -0.2367  0.2738  0.0360
 1351TIP3    H128248   5.680   3.445   8.144  1.6720 -0.5488  0.7204
 1351TIP3    H228249   5.767   3.510   8.249 -1.1394 -0.5964  3.2071
 1352TIP3   OH228250   3.408   0.332   1.586  0.4835 -0.0035 -0.2079
 1352TIP3    H128251   3.408   0.240   1.560  1.0435 -0.4085  1.1531
 1352TIP3    H228252   3.489   0.367   1.550 -0.0151  0.1428 -1.2485
 1353TIP3   OH228253   4.454   3.187   9.996 -0.0797  0.2048 -0.6582
 1353TIP3    H128254   4.516   3.198  10.067 -2.4831  0.6104  1.5344
 1353TIP3    H228255   4.465   3.265   9.942  1.4149  0.1558 -0.4621
 1354TIP3   OH228256   4.193   6.414   8.792 -0.0621  0.1740  0.3210
 1354TIP3    H128257   4.194   6.494   8.739  0.8846  0.4426  0.7231
 1354TIP3    H228258   4.283   6.405   8.824 -0.5285 -0.1798  1.5993
 1355TIP3   OH228259   7.454   0.221   9.559 -0.1897  0.0772  0.4514
 1355TIP3    H128260   7.493   0.198   9.643  0.1835 -0.5963  0.0977
 1355TIP3    H228261   7.518   0.279   9.517 -0.0880 -0.1030  0.3585
 1356TIP3   OH228262   4.016   3.547   9.893 -0.1302  0.0629 -0.0004
 1356TIP3    H128263   4.025   3.569   9.986  2.0667 -0.7344  0.0395
 1356TIP3    H228264   4.027   3.631   9.847 -0.7199  0.3773  0.4199
 1357TIP3   OH228265   2.636   4.956   0.388 -0.4434 -1.0269  0.2470
 1357TIP3    H128266   2.645   4.901   0.310  0.8472 -2.1843  1.1589
 1357TIP3    H228267   2.546   4.988   0.385 -1.7144 -4.2348  0.2983
 1358TIP3   OH228268   3.062   4.009   7.825  0.6077  0.3350  0.2942
 1358TIP3    H128269   3.010   3.931   7.810 -1.7211  1.7354  0.5743
 1358TIP3    H228270   3.030   4.045   7.908  1.9856  1.3012  0.4505
 1359TIP3   OH228271   2.509   5.385   2.003 -0.1185 -0.4551  0.4775
 1359TIP3    H128272   2.514   5.472   1.963  1.6948  0.4657  2.5081
 1359TIP3    H228273   2.508   5.325   1.928 -0.6518  1.2512 -0.9694
 1360TIP3   OH228274   5.607   0.746   8.259 -0.9659  0.0942  0.5568
 1360TIP3    H128275   5.628   0.679   8.324  1.1189  0.5583  0.4182
 1360TIP3    H228276   5.584   0.823   8.311  0.5853  0.4319  0.7663
 1361TIP3   OH228277   6.632   6.672   1.188  0.5052 -0.6474  0.0932
 1361TIP3    H128278   6.576   6.745   1.163  2.6882  1.3727  0.8507
 1361TIP3    H228279   6.653   6.687   1.280  1.9006 -1.5933 -0.0387
 1362TIP3   OH228280   1.682   4.967   7.997  0.3374  0.3522 -0.7781
 1362TIP3    H128281   1.624   4.893   7.980  0.1961  0.3953 -0.4853
 1362TIP3    H228282   1.666   5.027   7.924  0.7054 -0.0581 -1.2026
 1363TIP3   OH228283   7.602   1.752   2.006 -0.1848 -0.4795  0.0539
 1363TIP3    H128284   7.611   1.691   1.933  0.3783 -0.7341  0.3278
 1363TIP3    H228285   7.512   1.740   2.036 -0.7187  0.2923 -1.1675
 1364TIP3   OH228286   2.827   1.559   0.195 -0.6468  0.5277 -0.2485
 1364TIP3    H128287   2.881   1.638   0.195  0.9558 -0.5292 -0.7112
 1364TIP3    H228288   2.790   1.556   0.107 -0.2566  0.4652 -0.4109
 1365TIP3   OH228289   4.132   1.637   1.385  0.6286  0.4811 -0.2155
 1365TIP3    H128290   4.133   1.580   1.461  1.7237 -0.2845 -0.7673
 1365TIP3    H228291   4.218   1.679   1.386  1.2533 -0.6458 -1.7892
 1366TIP3   OH228292   4.317   4.981   0.112  0.3958 -0.0238 -0.4005
 1366TIP3    H128293   4.329   5.047   0.180  0.5687 -0.7915  0.3404
 1366TIP3    H228294   4.230   4.998   0.077  0.5244  0.7289 -0.3741
 1367TIP3   OH228295   6.986   7.577   1.297 -0.4637  0.1808  0.1888
 1367TIP3    H128296   6.910   7.539   1.253  0.0011  0.4013 -0.8573
 1367TIP3    H228297   7.014   7.510   1.359 -2.4108  0.7027  1.7359
 1368TIP3   OH228298   4.689   4.646   1.765  0.2504 -0.0525  0.1617
 1368TIP3    H128299   4.723   4.556   1.758 -0.6576 -0.5657  1.6865
 1368TIP3    H228300   4.659   4.652   1.856  0.2624  1.8010  0.0668
 1369TIP3   OH228301   6.160   0.055   9.638  0.0411  0.1241 -0.2592
 1369TIP3    H128302   6.117   0.007   9.709  1.6193  0.6671  1.1304
 1369TIP3    H228303   6.218  -0.010   9.598  0.9533  0.4147  0.5549
 1370TIP3   OH228304   5.608   6.891   8.501  0.3175 -0.2412 -0.5650
 1370TIP3    H128305   5.631   6.849   8.584  0.3522 -0.9094 -0.9000
 1370TIP3    H228306   5.686   6.880   8.446 -1.1510 -3.9450 -2.2746
 1371TIP3   OH228307   2.795   5.884   7.510  0.4278  0.0114 -0.3229
 1371TIP3    H128308   2.832   5.965   7.477 -0.4418  1.7029  2.5006
 1371TIP3    H228309   2.705   5.883   7.477  0.4460  0.1860 -0.3772
 1372TIP3   OH228310   2.548   5.240   8.609 -0.3480  0.1091  0.0341
 1372TIP3    H128311   2.495   5.192   8.545  0.6569  0.2282 -0.8992
 1372TIP3    H228312   2.485   5.299   8.651 -1.4580 -1.4645  0.6849
 1373TIP3   OH228313   6.366   3.466   0.674 -0.0296  0.4711  0.0854
 1373TIP3    H128314   6.384   3.456   0.767  0.5129 -0.0502 -0.0682
 1373TIP3    H228315   6.273   3.446   0.665  0.2703 -1.1381  0.2977
 1374TIP3   OH228316   2.186   3.659   1.113  0.2842  0.0853  0.1704
 1374TIP3    H128317   2.102   3.641   1.071  0.0644 -0.8143  0.9597
 1374TIP3    H228318   2.237   3.578   1.100  0.0897 -0.3556  1.8755
 1375TIP3   OH228319   3.980   7.614   7.890  0.3042  0.5531  0.0666
 1375TIP3    H128320   4.042   7.609   7.963 -0.6010  0.1682  0.8129
 1375TIP3    H228321   3.912   7.674   7.919  0.9331  1.9671 -1.2373
 1376TIP3   OH228322   2.851   3.060   8.887  0.1213  0.3769 -0.0112
 1376TIP3    H128323   2.858   2.973   8.848  2.7294  0.0585  0.9692
 1376TIP3    H228324   2.758   3.071   8.905 -0.4129 -1.7265 -1.1951
 1377TIP3   OH228325   1.739   5.179   1.626  0.1297 -0.3026 -0.1281
 1377TIP3    H128326   1.796   5.256   1.632 -0.3536 -0.0686  3.1746
 1377TIP3    H228327   1.735   5.160   1.532  1.3599  2.8429 -0.9547
 1378TIP3   OH228328   3.210   0.261   2.736 -0.6277  0.2396  0.3507
 1378TIP3    H128329   3.127   0.254   2.782 -1.0551 -1.6077 -0.5728
 1378TIP3    H228330   3.194   0.325   2.666 -1.4596 -0.4535 -0.1176
 1379TIP3   OH228331   7.409   0.695   1.242 -0.5311  0.0824  0.5020
 1379TIP3    H128332   7.496   0.657   1.261 -0.5424 -2.1303 -3.0296
 1379TIP3    H228333   7.426   0.788   1.230  1.6735 -0.4430 -1.1613
 1380TIP3   OH228334   0.102   0.886   8.268  0.1135  0.0591  0.0624
 1380TIP3    H128335   0.174   0.937   8.305 -0.7936  0.8435  0.8226
 1380TIP3    H228336   0.135   0.854   8.185  1.3972  0.2546  0.4749
 1381TIP3   OH228337   5.516   4.850   7.459 -0.4101 -0.6231  0.4383
 1381TIP3    H128338   5.509   4.940   7.490 -1.3832 -0.9330  1.1881
 1381TIP3    H228339   5.436   4.835   7.410 -1.2278 -1.6659  1.9982
 1382TIP3   OH228340   3.600   5.857   7.948  0.1111  0.2833  0.4966
 1382TIP3    H128341   3.628   5.845   8.039  0.6124 -1.6546  0.1483
 1382TIP3    H228342   3.512   5.819   7.944  1.1145 -2.1912 -0.3216
 1383TIP3   OH228343   6.240   6.348   0.086  0.4342  0.1927 -0.0945
 1383TIP3    H128344   6.321   6.377   0.044  1.6170 -0.2694  1.7394
 1383TIP3    H228345   6.237   6.253   0.071 -0.7768  0.4587 -1.7470
 1384TIP3   OH228346   4.463   0.047   9.000  0.2959 -0.4351 -0.2226
 1384TIP3    H128347   4.451  -0.019   8.932  2.2340 -1.5075  0.3987
 1384TIP3    H228348   4.390   0.033   9.060 -0.0256 -1.1607 -0.7704
 1385TIP3   OH228349   0.327   2.875   8.647 -0.0874  0.4519  0.2274
 1385TIP3    H128350   0.240   2.890   8.609  0.6187  2.0489 -0.8786
 1385TIP3    H228351   0.349   2.957   8.690  0.7402 -0.0431  0.7805
 1386TIP3   OH228352   6.357   2.877   1.299  0.2330 -0.2678 -0.1279
 1386TIP3    H128353   6.310   2.802   1.335 -1.9602  0.8202 -0.5803
 1386TIP3    H228354   6.342   2.872   1.204  0.0386  0.7334 -0.1639
 1387TIP3   OH228355   3.878   5.782   0.219  0.2025  0.2492 -0.0646
 1387TIP3    H128356   3.905   5.803   0.308  2.1593  0.9665 -0.7727
 1387TIP3    H228357   3.797   5.832   0.206  0.0052  0.2885  1.2186
 1388TIP3   OH228358   1.045   0.022   8.926 -0.1014  0.0183  0.2514
 1388TIP3    H128359   1.011   0.021   9.016 -2.3163  0.4756 -0.5251
 1388TIP3    H228360   1.021   0.108   8.892 -0.2386 -0.5346 -1.1111
 1389TIP3   OH228361   4.271   4.932   9.629  0.5006 -0.3075 -0.1000
 1389TIP3    H128362   4.237   4.995   9.566  1.5838  3.4714  2.7025
 1389TIP3    H228363   4.312   4.864   9.576 -3.7813 -0.6708 -3.4070
 1390TIP3   OH228364   0.520   5.177   0.224 -0.3106 -0.7576  0.3821
 1390TIP3    H128365   0.496   5.248   0.284 -1.6511 -0.6453 -0.2580
 1390TIP3    H228366   0.573   5.118   0.277 -0.6938 -0.1909  1.4231
 1391TIP3   OH228367   4.416   1.737   8.125 -0.0891 -0.1612 -0.0766
 1391TIP3    H128368   4.423   1.659   8.179  1.7726 -0.0989 -0.1738
 1391TIP3    H228369   4.480   1.724   8.055 -1.2801  0.4991 -1.3311
 1392TIP3   OH228370   0.284   7.007   1.322 -0.3070  0.1302  0.5204
 1392TIP3    H128371   0.249   6.922   1.295  0.1991 -0.6836  2.2963
 1392TIP3    H228372   0.220   7.041   1.384 -0.4413  1.0006 -0.0857
 1393TIP3   OH228373   4.413   3.752   7.704  0.6627  0.3050 -0.2309
 1393TIP3    H128374   4.437   3.799   7.784 -0.7115  0.9461 -0.1719
 1393TIP3    H228375   4.318   3.760   7.699  0.2408 -2.9248  0.0488
 1394TIP3   OH228376   4.789   0.565   1.669  0.4839 -1.0130  0.0263
 1394TIP3    H128377   4.707   0.610   1.690  0.8105 -0.7626  0.7870
 1394TIP3    H228378   4.764   0.474   1.655 -0.0757 -0.7485 -0.7944
 1395TIP3   OH228379   5.504   6.527   2.408 -0.2976  1.0502  0.3581
 1395TIP3    H128380   5.592   6.523   2.371 -0.6934  1.1607 -0.6304
 1395TIP3    H228381   5.501   6.456   2.472  0.6121  1.2599  0.6466
 1396TIP3   OH228382   3.814   0.098   8.054  0.5247 -0.0502 -0.4530
 1396TIP3    H128383   3.814   0.181   8.103  0.1391  0.9824 -2.1088
 1396TIP3    H228384   3.723   0.068   8.058  0.8624 -0.9653  1.0065
 1397TIP3   OH228385   5.356   7.060   9.600  0.2396  0.1225 -0.4128
 1397TIP3    H128386   5.385   7.003   9.529 -1.7911 -2.0590  0.3622
 1397TIP3    H228387   5.261   7.067   9.589  0.0698  0.9598  1.2024
 1398TIP3   OH228388   2.609   2.862   1.168  0.0865 -0.1553 -0.7500
 1398TIP3    H128389   2.576   2.773   1.156  0.9963 -0.5706 -0.2254
 1398TIP3    H228390   2.549   2.901   1.233  1.9416 -1.6968  2.0856
 1399TIP3   OH228391   6.714   1.425   1.717 -0.0886  0.2595 -0.7876
 1399TIP3    H128392   6.678   1.461   1.798  0.1772 -0.1186 -0.4980
 1399TIP3    H228393   6.803   1.461   1.712 -0.0406  0.1350 -0.8193
 1400TIP3   OH228394   0.441   1.444   0.132  0.3331 -0.7890  0.7251
 1400TIP3    H128395   0.463   1.522   0.184  0.4563  0.3056 -0.8771
 1400TIP3    H228396   0.521   1.423   0.085 -0.0680 -1.0738  0.1490
 1401TIP3   OH228397   0.269   2.684   0.411  0.4079  0.4290  0.0529
 1401TIP3    H128398   0.182   2.714   0.386 -0.0683 -0.8491  0.1020
 1401TIP3    H228399   0.297   2.744   0.480 -0.6133  0.5826  0.3425
 1402TIP3   OH228400   0.701   2.014   8.704 -0.6168  0.2674  0.1453
 1402TIP3    H128401   0.748   2.064   8.637  0.1384 -0.1872  0.3118
 1402TIP3    H228402   0.659   1.943   8.655 -0.0257 -0.0928  0.1348
 1403TIP3   OH228403   5.773   3.739   7.973  0.0636  0.2477  0.3028
 1403TIP3    H128404   5.718   3.684   7.917  0.4158  2.1920 -2.1306
 1403TIP3    H228405   5.845   3.682   7.999 -1.1668 -1.2863  0.5110
 1404TIP3   OH228406   6.756   1.928   0.989 -0.5354  0.6777  0.2499
 1404TIP3    H128407   6.751   1.836   1.011 -0.0985  0.2745 -1.1969
 1404TIP3    H228408   6.738   1.931   0.895 -1.5989  2.1869  0.4690
 1405TIP3   OH228409   7.327   5.761   2.128 -0.3004 -0.2507 -0.4830
 1405TIP3    H128410   7.341   5.846   2.085 -0.7118 -1.0586 -2.3087
 1405TIP3    H228411   7.415   5.723   2.135  0.2074  1.1484  2.3408
 1406TIP3   OH228412   0.333   3.053   9.136 -0.4310 -0.1715  0.6055
 1406TIP3    H128413   0.312   3.094   9.220  2.0862 -0.6308  1.5554
 1406TIP3    H228414   0.370   3.123   9.083  2.9449 -0.8099  1.8772
 1407TIP3   OH228415   6.572   2.778   9.429  0.3453  0.1467 -0.5009
 1407TIP3    H128416   6.495   2.724   9.448 -0.4642  0.0876 -3.4026
 1407TIP3    H228417   6.547   2.866   9.456 -1.0448  0.2352 -1.9060
 1408TIP3   OH228418   3.462   4.051   8.419 -0.1068 -0.2297 -0.2249
 1408TIP3    H128419   3.401   4.063   8.347  0.1549 -0.9774 -0.5730
 1408TIP3    H228420   3.490   4.140   8.442 -2.5114  0.3078  0.9940
 1409TIP3   OH228421   0.760   0.711   2.581 -0.2638  0.3505  0.4143
 1409TIP3    H128422   0.696   0.736   2.647 -1.3060 -0.8172 -0.1171
 1409TIP3    H228423   0.738   0.621   2.558 -1.5249  1.3958 -3.2821
 1410TIP3   OH228424   3.953   0.777   8.379  0.1969  0.2000 -0.6672
 1410TIP3    H128425   4.028   0.773   8.438  0.1180 -0.4371 -0.6082
 1410TIP3    H228426   3.991   0.767   8.291  0.1836 -0.0664 -0.6410
 1411TIP3   OH228427   4.772   2.357   1.100 -0.0142 -0.4302  0.0183
 1411TIP3    H128428   4.834   2.382   1.169  0.8336  0.0336 -0.8792
 1411TIP3    H228429   4.817   2.379   1.019 -1.2740 -0.3106 -0.6745
 1412TIP3   OH228430   0.925   7.564   0.407  1.1369 -0.0689  0.3791
 1412TIP3    H128431   0.987   7.568   0.480  1.2707  0.7332  0.2352
 1412TIP3    H228432   0.937   7.476   0.370  1.8568 -0.0918  0.6438
 1413TIP3   OH228433   1.702   3.193   1.872  0.4534  0.5282  0.1727
 1413TIP3    H128434   1.790   3.207   1.906  0.1109  1.2501  0.8095
 1413TIP3    H228435   1.702   3.236   1.786  0.4822  1.2729  0.5392
 1414TIP3   OH228436   1.398   3.233   1.187 -0.3436  0.4624 -0.8650
 1414TIP3    H128437   1.305   3.218   1.168 -0.8733  1.6997  0.5169
 1414TIP3    H228438   1.438   3.250   1.102 -1.3863 -0.0975 -1.4869
 1415TIP3   OH228439   4.791   5.619   0.181  0.2633 -0.1026 -0.2512
 1415TIP3    H128440   4.886   5.620   0.166  0.5116 -0.2261  1.1503
 1415TIP3    H228441   4.762   5.536   0.142  1.5574 -2.5644  3.4061
 1416TIP3   OH228442   1.798   7.186   9.226 -0.1247 -0.4762 -0.2366
 1416TIP3    H128443   1.872   7.133   9.253 -0.0332 -0.1214  0.2280
 1416TIP3    H228444   1.835   7.274   9.214 -0.1880 -0.6055 -1.4139
 1417TIP3   OH228445   2.071   5.586   0.143  0.5408 -0.2642  0.4615
 1417TIP3    H128446   2.019   5.658   0.177  2.0912  1.6679 -1.0094
 1417TIP3    H228447   2.151   5.586   0.196  2.2679  1.7501 -1.9133
 1418TIP3   OH228448   5.189   7.475   1.317 -0.2153 -0.1015 -0.2629
 1418TIP3    H128449   5.236   7.521   1.386  3.3962 -0.0099 -2.5195
 1418TIP3    H228450   5.191   7.383   1.344  1.5659 -0.1284 -0.3662
 1419TIP3   OH228451   5.218   7.639   8.045  0.1342  0.1158 -0.3695
 1419TIP3    H128452   5.224   7.734   8.060 -0.8613 -0.0392  1.2917
 1419TIP3    H228453   5.309   7.609   8.045  0.4391  0.9945 -0.3508
 1420TIP3   OH228454   4.895   5.036   9.949 -0.2979 -0.3906  0.2197
 1420TIP3    H128455   4.987   5.028   9.975  0.5218  1.3287 -1.8464
 1420TIP3    H228456   4.879   4.958   9.895  0.4299  0.0020 -0.6005
 1421TIP3   OH228457   4.841   1.894   8.044 -0.4559 -0.0643 -0.2110
 1421TIP3    H128458   4.932   1.871   8.022 -0.4052 -0.5998  0.5344
 1421TIP3    H228459   4.840   1.896   8.140 -1.3488 -0.5236 -0.2083
 1422TIP3   OH228460   0.673   6.910   8.353 -0.5323 -0.2293  0.3291
 1422TIP3    H128461   0.613   6.982   8.329 -1.6826 -1.3705 -0.3638
 1422TIP3    H228462   0.623   6.858   8.415 -0.2289 -1.1573 -0.1915
 1423TIP3   OH228463   1.689   1.480   8.033  0.0055  0.0610 -0.7715
 1423TIP3    H128464   1.724   1.512   7.949 -1.0078  1.3575 -0.7348
 1423TIP3    H228465   1.603   1.520   8.040 -0.4001 -0.9586  0.3724
 1424TIP3   OH228466   1.746   1.163   7.447 -0.2083 -0.1909  0.2838
 1424TIP3    H128467   1.743   1.241   7.392 -1.6122  1.0155  1.9232
 1424TIP3    H228468   1.814   1.182   7.512 -1.3837  0.2700  1.4291
 1425TIP3   OH228469   2.594   5.235   0.572 -0.2023 -0.2429  0.0671
 1425TIP3    H128470   2.517   5.179   0.565 -0.3794  0.0319 -0.2474
 1425TIP3    H228471   2.571   5.312   0.520 -0.7618  1.0180  2.0771
 1426TIP3   OH228472   0.074   6.220   2.036  0.2737  0.3601  0.2872
 1426TIP3    H128473   0.010   6.148   2.040 -1.2916  1.7088  1.0036
 1426TIP3    H228474   0.110   6.224   2.124  1.3145 -0.3393 -0.0944
 1427TIP3   OH228475   1.033   1.473   8.018  0.0771 -0.4980  0.1206
 1427TIP3    H128476   0.998   1.446   7.933 -0.2325 -0.3539  0.2037
 1427TIP3    H228477   1.049   1.567   8.009 -1.1201 -0.2362  0.6255
 1428TIP3   OH228478   2.399   3.585   8.103  0.3231 -0.4507  0.0815
 1428TIP3    H128479   2.349   3.652   8.150  0.2184 -0.4178 -0.0756
 1428TIP3    H228480   2.402   3.511   8.163 -0.3946 -0.6579 -0.1247
 1429TIP3   OH228481   5.445   1.494   0.697  0.3851 -0.4003 -0.3836
 1429TIP3    H128482   5.451   1.416   0.643  2.7752 -0.0114 -0.8256
 1429TIP3    H228483   5.482   1.564   0.643  1.6387  0.2641  1.2193
 1430TIP3   OH228484   0.521   0.828   8.272 -0.1079 -0.0157 -0.0853
 1430TIP3    H128485   0.498   0.900   8.213 -0.1736  1.4735  1.6740
 1430TIP3    H228486   0.614   0.841   8.290 -0.2018 -0.1438  0.5182
 1431TIP3   OH228487   3.033   6.144   6.573  0.1723  0.2348  0.7806
 1431TIP3    H128488   3.055   6.071   6.517 -1.2733  0.8686 -0.7081
 1431TIP3    H228489   2.937   6.150   6.568  0.2990  3.2453 -0.5940
 1432TIP3   OH228490   1.829   6.517   9.488 -0.3574  0.0096 -0.1181
 1432TIP3    H128491   1.828   6.455   9.415 -0.0305 -0.5448  0.3450
 1432TIP3    H228492   1.851   6.464   9.565 -2.4248  0.2265  0.7039
 1433TIP3   OH228493   5.784   1.518   2.080 -0.4231  0.1451  0.0844
 1433TIP3    H128494   5.810   1.506   1.988  0.1942  1.6273  0.0335
 1433TIP3    H228495   5.808   1.609   2.099 -1.8451  0.2887  1.2995
 1434TIP3   OH228496   7.287   0.113   1.280  0.1211  0.0496  0.2138
 1434TIP3    H128497   7.353   0.116   1.211  2.1934  0.4153  2.1176
 1434TIP3    H228498   7.280   0.020   1.302 -1.5457 -0.2501 -1.3025
 1435TIP3   OH228499   3.870   0.622   1.911 -0.5678 -0.3799  0.1724
 1435TIP3    H128500   3.839   0.593   1.997 -0.0552 -0.9719  0.1631
 1435TIP3    H228501   3.921   0.548   1.877  0.5603  0.4269  0.0380
 1436TIP3   OH228502   0.381   0.688   1.971  0.0841  0.2191  0.1135
 1436TIP3    H128503   0.472   0.686   1.999  0.4714 -1.2916 -1.1786
 1436TIP3    H228504   0.380   0.748   1.896  0.3244 -0.9228 -0.8249
 1437TIP3   OH228505   4.454   7.319   2.651  0.0644  0.1042  0.5844
 1437TIP3    H128506   4.455   7.346   2.559 -1.4063 -0.5498  0.3509
 1437TIP3    H228507   4.420   7.395   2.698 -0.4230  0.0002  0.4093
 1438TIP3   OH228508   0.851   4.879   7.466 -0.3554  0.5137  0.2412
 1438TIP3    H128509   0.830   4.972   7.474 -1.4285  0.1709  1.9351
 1438TIP3    H228510   0.940   4.871   7.500 -0.9133  0.6919  1.8186
 1439TIP3   OH228511   0.435   0.690   9.753 -0.3126 -0.1185  0.3550
 1439TIP3    H128512   0.409   0.778   9.781 -0.7680 -0.4135  0.8876
 1439TIP3    H228513   0.366   0.662   9.693  0.0174  0.0254 -0.0935
 1440TIP3   OH228514   1.995   0.901   1.223 -0.0511  0.0837  0.2510
 1440TIP3    H128515   2.031   0.832   1.279  0.2501 -0.0615 -0.1137
 1440TIP3    H228516   1.974   0.972   1.283  0.3227 -0.0469  0.5399
 1441TIP3   OH228517   4.475   4.439   8.184 -0.4752  0.0658 -0.0255
 1441TIP3    H128518   4.425   4.507   8.230  1.3518  0.9807  0.7444
 1441TIP3    H228519   4.410   4.373   8.160 -1.8068  0.4320  2.2635
 1442TIP3   OH228520   1.026   5.797   0.865  0.6022 -0.5751  0.4191
 1442TIP3    H128521   1.005   5.841   0.947  1.9580 -0.0634  0.5186
 1442TIP3    H228522   1.053   5.868   0.806  2.8531 -1.1957  0.5853
 1443TIP3   OH228523   2.218   3.215   9.035  0.3262 -0.5808 -0.4080
 1443TIP3    H128524   2.189   3.145   9.093 -1.6417 -0.3582 -1.0677
 1443TIP3    H228525   2.250   3.170   8.957 -0.9055 -0.7757 -0.8171
 1444TIP3   OH228526   1.233   1.634   1.750 -0.0912  0.7253  0.2730
 1444TIP3    H128527   1.288   1.694   1.699  1.8317 -1.5370 -0.5096
 1444TIP3    H228528   1.296   1.579   1.797 -1.7249 -0.9876  0.5442
 1445TIP3   OH228529   3.871   5.167   8.408  0.4556 -0.2432  0.6797
 1445TIP3    H128530   3.919   5.088   8.383 -0.6049 -0.7501  0.1422
 1445TIP3    H228531   3.804   5.135   8.469 -0.6998  0.0342 -0.4128
 1446TIP3   OH228532   7.618   5.253   9.095 -0.0036 -0.2387 -0.0656
 1446TIP3    H128533   7.687   5.264   9.161  0.6454 -3.0419 -0.1222
 1446TIP3    H228534   7.569   5.176   9.124  0.0359 -1.3311 -2.5646
 1447TIP3   OH228535   2.438   0.477   8.787  0.1779  0.5126 -0.5606
 1447TIP3    H128536   2.467   0.555   8.739 -0.8775  0.7504 -0.8568
 1447TIP3    H228537   2.496   0.472   8.863 -0.1011  1.9447 -0.2201
 1448TIP3   OH228538   4.862   6.363   8.900 -0.2986  0.3615  0.4732
 1448TIP3    H128539   4.889   6.347   8.991 -0.5361 -0.3346  0.4243
 1448TIP3    H228540   4.936   6.407   8.860  0.6083 -1.1396  0.4500
 1449TIP3   OH228541   0.086   3.578   8.999  0.9988  0.3819  0.3249
 1449TIP3    H128542   0.013   3.636   9.017 -0.0141 -0.0185 -2.0995
 1449TIP3    H228543   0.161   3.637   8.985  0.6775  0.9105  0.8186
 1450TIP3   OH228544   0.561   6.275   1.793 -0.0870 -0.0190  0.0383
 1450TIP3    H128545   0.489   6.265   1.855  0.7567 -0.4983  0.9583
 1450TIP3    H228546   0.523   6.250   1.709 -0.1120 -3.8354  1.0267
 1451TIP3   OH228547   6.175   6.257   8.522  0.3849  0.2061  0.5390
 1451TIP3    H128548   6.082   6.255   8.498  0.1838 -1.1706  1.3699
 1451TIP3    H228549   6.220   6.222   8.446  0.0781 -0.5476  0.6930
 1452TIP3   OH228550   2.095   6.584   1.015  0.3213 -0.3193  0.3477
 1452TIP3    H128551   2.146   6.645   0.961  1.3971 -1.2656  0.2557
 1452TIP3    H228552   2.054   6.525   0.951 -1.1689  0.6184  0.4034
 1453TIP3   OH228553   1.118   3.018   8.887 -0.1980 -0.0025  0.5323
 1453TIP3    H128554   1.209   3.015   8.916 -0.0910  0.5060  0.2584
 1453TIP3    H228555   1.067   2.992   8.964  0.1931 -0.6194  0.5864
 1454TIP3   OH228556   0.916   2.697   7.445 -0.2622 -0.3357  0.0095
 1454TIP3    H128557   0.982   2.629   7.430  1.1197  0.8979  0.2528
 1454TIP3    H228558   0.872   2.707   7.361  0.8641 -0.1702 -0.5791
 1455TIP3   OH228559   0.398   2.598   1.075  0.1635 -0.6985  0.0980
 1455TIP3    H128560   0.482   2.641   1.093 -0.0970 -0.5915  1.1235
 1455TIP3    H228561   0.333   2.664   1.098 -0.2369 -0.0087 -2.6434
 1456TIP3   OH228562   5.892   2.484   7.652  0.2337  0.3523  0.2650
 1456TIP3    H128563   5.913   2.391   7.663  0.3390  0.4200  0.6602
 1456TIP3    H228564   5.813   2.497   7.703  0.0402  0.4133 -0.0500
 1457TIP3   OH228565   7.137   7.341   8.743 -0.0087  0.6511 -0.1165
 1457TIP3    H128566   7.183   7.343   8.827 -0.3297  0.6811  0.0607
 1457TIP3    H228567   7.064   7.403   8.754  0.9108  1.9529 -0.9855
 1458TIP3   OH228568   0.884   0.547   8.348 -0.0992 -0.1792  0.0749
 1458TIP3    H128569   0.857   0.638   8.359 -0.4228 -0.3352  0.5793
 1458TIP3    H228570   0.841   0.500   8.419 -2.1285 -1.2125 -1.7243
 1459TIP3   OH228571   0.804   1.478   0.828  0.9957 -0.0624  0.5743
 1459TIP3    H128572   0.853   1.403   0.859 -1.1885 -0.7113  2.8546
 1459TIP3    H228573   0.728   1.441   0.782  1.1474  0.8287 -0.4488
 1460TIP3   OH228574   2.285   0.179   1.076 -0.4488 -0.3665 -0.1416
 1460TIP3    H128575   2.201   0.181   1.123 -0.9567 -0.1696 -1.0395
 1460TIP3    H228576   2.275   0.108   1.013  0.3629 -0.8653  0.2828
 1461TIP3   OH228577   2.690   2.430   1.286 -0.0471 -0.1034 -0.1756
 1461TIP3    H128578   2.772   2.386   1.262 -1.4911 -2.4130 -1.2574
 1461TIP3    H228579   2.646   2.368   1.344 -1.4796  0.5939 -0.4829
 1462TIP3   OH228580   0.992   5.607   2.271  0.2178  0.0145  0.2771
 1462TIP3    H128581   0.942   5.587   2.192  1.3061 -0.9283 -0.2073
 1462TIP3    H228582   0.966   5.696   2.294 -1.7205 -0.4578  0.1059
 1463TIP3   OH228583   0.497   0.196   2.258  0.4074  0.0479  0.0190
 1463TIP3    H128584   0.557   0.126   2.230  0.0657 -0.5655  0.7835
 1463TIP3    H228585   0.533   0.226   2.342 -1.1110 -1.3201  1.2310
 1464TIP3   OH228586   2.309   6.968   8.481 -0.5426 -0.2497  0.3444
 1464TIP3    H128587   2.289   6.941   8.391  0.4956 -1.1746  0.3680
 1464TIP3    H228588   2.391   7.017   8.473 -0.5439 -0.1802  0.7595
 1465TIP3   OH228589   6.852   6.578   9.465  0.0661 -0.2632 -0.3134
 1465TIP3    H128590   6.802   6.640   9.411 -0.8592 -1.2342 -0.6002
 1465TIP3    H228591   6.888   6.632   9.536  1.3758  1.0477 -1.8993
 1466TIP3   OH228592   6.324   5.743   0.176  0.0435  0.0689 -0.2731
 1466TIP3    H128593   6.372   5.795   0.111 -0.0576  0.2908 -0.1703
 1466TIP3    H228594   6.233   5.772   0.168  0.3970  1.9880  1.7389
 1467TIP3   OH228595   6.962   3.508   1.887  0.3887  0.0936 -0.3783
 1467TIP3    H128596   6.959   3.543   1.798  1.8999  1.0396 -0.0826
 1467TIP3    H228597   7.035   3.447   1.887  0.7599  0.5307  0.3591
 1468TIP3   OH228598   0.984   2.108   9.580  0.4369  0.0585  0.1707
 1468TIP3    H128599   1.067   2.110   9.531 -0.1546  0.6090 -0.8432
 1468TIP3    H228600   1.006   2.065   9.663  2.0639  1.4577  0.5217
 1469TIP3   OH228601   1.440   4.766   8.913  0.2624  0.6167 -0.0466
 1469TIP3    H128602   1.406   4.690   8.961  1.9739  0.6997  1.4116
 1469TIP3    H228603   1.406   4.842   8.961 -0.7191  0.7941 -0.9798
 1470TIP3   OH228604   2.149   2.010   1.347 -0.4642  0.0992 -0.9924
 1470TIP3    H128605   2.205   1.962   1.286 -2.4513 -0.7669 -2.2498
 1470TIP3    H228606   2.063   1.969   1.338 -1.5501  1.9480  0.1617
 1471TIP3   OH228607   3.117   1.565   7.385  0.5703 -0.3904 -0.0564
 1471TIP3    H128608   3.116   1.500   7.455 -0.3052 -1.1514 -0.7470
 1471TIP3    H228609   3.208   1.596   7.382  0.9627 -1.4599  0.3956
 1472TIP3   OH228610   1.641   5.044   9.583  0.1945 -0.1552 -0.3261
 1472TIP3    H128611   1.667   5.025   9.493 -1.8239  1.7833 -1.4243
 1472TIP3    H228612   1.566   5.103   9.574  1.7052  2.4862  2.6553
 1473TIP3   OH228613   1.778   0.335   8.138 -0.3668 -0.1724 -0.0371
 1473TIP3    H128614   1.767   0.271   8.067  0.7853 -0.7847  0.3095
 1473TIP3    H228615   1.787   0.419   8.093 -0.3180 -0.4596 -0.5783
 1474TIP3   OH228616   5.218   7.610   9.257 -0.0883 -0.5730  0.4975
 1474TIP3    H128617   5.304   7.628   9.221 -0.6935 -0.2028 -0.8491
 1474TIP3    H228618   5.233   7.596   9.350  1.5963 -1.9318  0.0714
 1475TIP3   OH228619   7.329   5.207   8.014 -0.0325  0.4579 -0.2702
 1475TIP3    H128620   7.308   5.139   8.078 -1.2451  2.3422  1.4460
 1475TIP3    H228621   7.251   5.262   8.011  1.8498  3.3910  0.5733
 1476TIP3   OH228622   4.200   2.727   7.803 -0.2331 -0.6673 -0.3338
 1476TIP3    H128623   4.211   2.779   7.882  0.5146 -1.5468  0.1595
 1476TIP3    H228624   4.203   2.791   7.732 -0.4389  0.0825  0.3156
 1477TIP3   OH228625   1.236   0.451   2.583 -0.5546 -0.4822  0.1172
 1477TIP3    H128626   1.276   0.475   2.667 -1.1714  1.3502 -0.0588
 1477TIP3    H228627   1.170   0.386   2.605  0.9160 -1.8573  0.6994
 1478TIP3   OH228628   2.523   6.256   1.059 -0.0462 -0.4390  0.0902
 1478TIP3    H128629   2.476   6.334   1.028  0.0235 -0.8646 -1.1480
 1478TIP3    H228630   2.597   6.291   1.109 -1.0376  0.2558  1.1269
 1479TIP3   OH228631   7.588   2.596   2.244  0.5267  0.3827  0.5973
 1479TIP3    H128632   7.527   2.524   2.264  0.4343  0.4556  0.5824
 1479TIP3    H228633   7.595   2.644   2.326 -0.3228  1.0317  0.3081
 1480TIP3   OH228634   4.012   1.651   7.468  0.1877 -0.2963  0.1536
 1480TIP3    H128635   4.068   1.707   7.414  0.2927 -0.2377  0.3240
 1480TIP3    H228636   3.923   1.673   7.442  0.1188  1.3960  1.6318
 1481TIP3   OH228637   3.145   1.413   9.801  0.5013 -0.1737 -0.1218
 1481TIP3    H128638   3.194   1.417   9.719  0.4672 -2.3057 -0.3015
 1481TIP3    H228639   3.190   1.347   9.853 -1.0314 -0.8221  0.4672
 1482TIP3   OH228640   1.633   4.886   9.304 -0.4074 -0.0868 -0.5257
 1482TIP3    H128641   1.600   4.808   9.350  1.3159 -0.6196 -0.1183
 1482TIP3    H228642   1.691   4.851   9.237  0.7574  0.8630 -0.0294
 1483TIP3   OH228643   0.418   7.399   8.697 -0.4174  0.2041  0.1872
 1483TIP3    H128644   0.373   7.353   8.767 -2.9598  2.1131 -0.0439
 1483TIP3    H228645   0.431   7.333   8.629 -2.9261 -0.5162  0.2973
 1484TIP3   OH228646   3.685   6.424   1.250 -0.4934  0.1941 -0.5016
 1484TIP3    H128647   3.690   6.364   1.175 -0.8727 -0.8843  0.3058
 1484TIP3    H228648   3.645   6.503   1.214 -0.6326 -0.2874 -1.4497
 1485TIP3   OH228649   7.010   1.784   3.014 -0.3363  0.1536 -0.9359
 1485TIP3    H128650   6.938   1.848   3.017  1.0682  1.7354  0.9081
 1485TIP3    H228651   7.089   1.837   3.019  0.8953 -1.7415  0.9229
 1486TIP3   OH228652   0.130   2.692   2.504 -0.5525  0.2720  0.0096
 1486TIP3    H128653   0.148   2.766   2.445 -1.5696  0.4191 -0.1392
 1486TIP3    H228654   0.215   2.667   2.538 -0.1472  1.2801 -0.2297
 1487TIP3   OH228655   5.869   0.072   1.339  0.3602  0.0236 -0.5107
 1487TIP3    H128656   5.821   0.003   1.386 -0.7382  1.0019 -0.1456
 1487TIP3    H228657   5.944   0.027   1.301  0.3555 -1.1357  0.7576
 1488TIP3   OH228658   5.612   3.927   0.871 -0.3520 -0.1437  0.0408
 1488TIP3    H128659   5.650   3.843   0.896  0.9663  0.5511  0.5003
 1488TIP3    H228660   5.687   3.986   0.864 -1.3210  1.2415  0.7317
 1489TIP3   OH228661   4.234   0.444   9.972 -0.9533 -0.4820 -0.1615
 1489TIP3    H128662   4.166   0.502  10.005  0.3263  0.1416  1.5441
 1489TIP3    H228663   4.252   0.385  10.045  0.9909  0.0088 -0.1873
 1490TIP3   OH228664   2.759   4.852   8.320  0.3364  0.0213 -0.3246
 1490TIP3    H128665   2.827   4.878   8.382  1.0563 -0.3397 -0.9562
 1490TIP3    H228666   2.701   4.795   8.371  1.3299 -0.8703 -0.1588
 1491TIP3   OH228667   6.293   1.026   1.079 -0.4669 -0.2525  0.3775
 1491TIP3    H128668   6.273   1.013   1.171  0.6044  0.1908  0.6787
 1491TIP3    H228669   6.211   1.060   1.042 -0.3093  1.6212  1.6074
 1492TIP3   OH228670   4.484   2.441   0.838  0.1436  0.1958 -0.0786
 1492TIP3    H128671   4.532   2.505   0.891  0.2287 -0.7122  0.9775
 1492TIP3    H228672   4.529   2.441   0.754  0.5356  1.0524  0.1209
 1493TIP3   OH228673   5.342   2.796   9.955  0.2857  0.4206 -0.3733
 1493TIP3    H128674   5.250   2.788   9.980  0.6751 -2.4699  0.5244
 1493TIP3    H228675   5.384   2.839  10.029 -0.4131  2.6830 -1.1995
 1494TIP3   OH228676   1.311   5.279   0.852  0.2738  0.0685 -0.0096
 1494TIP3    H128677   1.318   5.185   0.838 -0.9218 -0.0072 -0.1664
 1494TIP3    H228678   1.300   5.315   0.764  1.0760  0.3981  0.0166
 1495TIP3   OH228679   3.178   0.330   7.684  0.2458  0.2846  0.7169
 1495TIP3    H128680   3.125   0.406   7.705  0.3039  0.7860 -0.8431
 1495TIP3    H228681   3.243   0.325   7.754 -1.6491 -0.2073  2.5483
 1496TIP3   OH228682   2.337   2.753   0.823  0.2106  0.3880 -0.0290
 1496TIP3    H128683   2.348   2.738   0.729  1.1500 -1.9359  0.3855
 1496TIP3    H228684   2.243   2.742   0.837  0.2139 -0.4648 -0.5488
 1497TIP3   OH228685   2.799   6.773   7.703 -0.2985  0.0263 -0.1141
 1497TIP3    H128686   2.764   6.712   7.638  1.6472 -0.7181 -0.5135
 1497TIP3    H228687   2.750   6.854   7.687  0.6014  0.1175 -3.0773
 1498TIP3   OH228688   1.541   4.809   9.858 -0.3655  0.5326  0.4662
 1498TIP3    H128689   1.599   4.847   9.924 -0.6410  0.5166  0.7204
 1498TIP3    H228690   1.466   4.868   9.855  0.5154  1.6196 -1.2539
 1499TIP3   OH228691   3.588   3.155   8.601  0.2499  0.8626 -0.0540
 1499TIP3    H128692   3.502   3.171   8.641  0.0976 -0.3352  0.1308
 1499TIP3    H228693   3.567   3.110   8.518  0.7061  0.2034  0.1817
 1500TIP3   OH228694   7.524   1.441   7.624  0.2020  0.0320 -0.5703
 1500TIP3    H128695   7.464   1.516   7.633 -1.4004 -1.1203 -1.2457
 1500TIP3    H228696   7.584   1.468   7.554 -2.2342 -0.4041 -2.9913
 1501TIP3   OH228697   1.811   6.991   1.853 -0.0366 -0.4430  0.5168
 1501TIP3    H128698   1.785   7.043   1.777  1.0243  1.5836  1.4581
 1501TIP3    H228699   1.809   6.901   1.821 -1.8572  0.1185 -1.2291
 1502TIP3   OH228700   6.091   0.675   1.627 -0.1132 -0.9987  0.2850
 1502TIP3    H128701   6.100   0.584   1.655 -1.9109 -1.6814 -1.2042
 1502TIP3    H228702   6.074   0.671   1.533 -0.3319  0.8610  0.1992
 1503TIP3   OH228703   2.103   6.545   7.432  0.0297 -0.9710 -0.1477
 1503TIP3    H128704   2.089   6.495   7.512  0.3813 -1.8963 -0.6582
 1503TIP3    H228705   2.034   6.515   7.373 -0.5304  0.0622 -0.0421
 1504TIP3   OH228706   4.958   5.707   9.425  0.3162 -0.0234 -0.3405
 1504TIP3    H128707   5.025   5.731   9.361 -0.1874  0.1885 -0.8036
 1504TIP3    H228708   4.923   5.624   9.393 -1.0884  0.8773 -1.3187
 1505TIP3   OH228709   7.622   5.237   9.953 -0.4693 -0.0240  0.0739
 1505TIP3    H128710   7.541   5.225   9.903 -0.5139  1.6848 -0.3125
 1505TIP3    H228711   7.681   5.284   9.894  0.5432 -0.5546  0.6221
 1506TIP3   OH228712   4.366   2.021   1.236 -0.1357 -0.6584  0.8999
 1506TIP3    H128713   4.376   2.108   1.197 -3.0515 -0.3341  0.6349
 1506TIP3    H228714   4.419   1.963   1.181 -0.2412  0.5476 -0.5403
 1507TIP3   OH228715   6.299   6.660   0.582  0.5105  0.1920  0.0202
 1507TIP3    H128716   6.252   6.630   0.504 -0.7547  0.7761  0.5197
 1507TIP3    H228717   6.388   6.628   0.571  0.2803  0.0241 -1.5253
 1508TIP3   OH228718   6.756   1.808   2.209 -0.3599 -0.1790 -0.6895
 1508TIP3    H128719   6.670   1.810   2.167 -0.1238 -1.0454 -1.2527
 1508TIP3    H228720   6.785   1.899   2.210 -1.8540  0.3222  0.7474
 1509TIP3   OH228721   1.086   6.264   1.036 -0.6464  0.2633  0.0340
 1509TIP3    H128722   1.092   6.291   1.128 -0.9207 -0.9745  0.4300
 1509TIP3    H228723   1.172   6.228   1.016 -0.1556  1.7102 -0.6122
 1510TIP3   OH228724   2.111   6.293   6.866  0.5122 -0.1121 -0.2252
 1510TIP3    H128725   2.067   6.279   6.782 -1.1497  2.5096  0.1035
 1510TIP3    H228726   2.071   6.372   6.901  1.8065 -0.6198  2.6479
 1511TIP3   OH228727   5.525   4.648   1.540  0.6489  0.1729 -0.2236
 1511TIP3    H128728   5.611   4.636   1.581  0.0530  0.5663  1.1859
 1511TIP3    H228729   5.471   4.578   1.577 -0.2265  1.2667  0.6431
 1512TIP3   OH228730   3.539   4.602   7.730 -0.1847 -0.8419 -0.5612
 1512TIP3    H128731   3.577   4.520   7.762  0.0224 -0.3093  0.5977
 1512TIP3    H228732   3.456   4.576   7.691 -0.5266 -1.5073  0.5720
 1513TIP3   OH228733   6.626   3.492   9.495 -0.1873  0.8693 -0.0479
 1513TIP3    H128734   6.543   3.481   9.541 -0.4437 -1.8144 -0.9776
 1513TIP3    H228735   6.690   3.446   9.548  0.1784  0.6610 -0.6549
 1514TIP3   OH228736   2.505   5.648   1.817  0.1393  0.1225  0.6360
 1514TIP3    H128737   2.465   5.707   1.754 -0.6847 -1.4892 -0.4156
 1514TIP3    H228738   2.600   5.658   1.803 -0.0192  0.2797 -0.3916
 1515TIP3   OH228739   1.204   1.046   0.198  0.8107  0.2634  0.2272
 1515TIP3    H128740   1.179   1.113   0.135  1.5048  1.7570  1.4645
 1515TIP3    H228741   1.291   1.017   0.170 -0.1056 -1.3240 -1.2008
 1516TIP3   OH228742   4.038   3.334   0.806  0.3875 -0.7787 -0.4075
 1516TIP3    H128743   4.021   3.427   0.787  0.2974 -0.5681  0.6620
 1516TIP3    H228744   3.963   3.288   0.768 -0.9006 -0.1659  1.2557
 1517TIP3   OH228745   0.221   3.620   0.633  0.0581 -0.0787 -0.5722
 1517TIP3    H128746   0.314   3.635   0.650 -0.2113  0.2723  0.6739
 1517TIP3    H228747   0.188   3.704   0.601 -1.0007  1.7776  4.4398
 1518TIP3   OH228748   1.011   3.207   1.715 -0.2565  0.3020  0.8015
 1518TIP3    H128749   1.048   3.246   1.636 -0.6477  1.2106  1.0636
 1518TIP3    H228750   0.957   3.135   1.683  0.3266  0.0722  0.3059
 1519TIP3   OH228751   2.404   1.176   1.333 -0.0847  0.1246  0.0608
 1519TIP3    H128752   2.388   1.217   1.248  1.2336 -1.1442 -0.8504
 1519TIP3    H228753   2.362   1.090   1.326  0.9170 -0.3930  0.2913
 1520TIP3   OH228754   4.891   5.592   0.855 -0.5043  0.6985 -0.6229
 1520TIP3    H128755   4.926   5.649   0.924  0.0422 -0.4075  0.0502
 1520TIP3    H228756   4.966   5.578   0.797 -0.5522  0.4495 -0.6258
 1521TIP3   OH228757   5.108   5.883   7.693 -0.3469 -0.3065 -0.5196
 1521TIP3    H128758   5.095   5.788   7.691  0.2327 -0.4266  0.5575
 1521TIP3    H228759   5.203   5.894   7.704 -0.2928  0.4179 -1.6208
 1522TIP3   OH228760   1.281   5.574   1.389  0.5393  0.5511 -0.2966
 1522TIP3    H128761   1.261   5.559   1.297 -0.6706  0.1010  0.0251
 1522TIP3    H228762   1.213   5.633   1.420  0.3834 -0.0377  0.5311
 1523TIP3   OH228763   3.106   5.985   3.371  0.1425  0.0958  0.0233
 1523TIP3    H128764   3.039   6.047   3.342  0.2190  0.7825  1.2533
 1523TIP3    H228765   3.056   5.906   3.395 -0.1543  0.3232  0.1686
 1524TIP3   OH228766   5.726   4.343   7.300  0.1190  0.3154  0.1475
 1524TIP3    H128767   5.685   4.383   7.223  1.6794  0.1249 -0.8344
 1524TIP3    H228768   5.717   4.409   7.369 -1.5769  0.3701 -0.0897
 1525TIP3   OH228769   3.522   2.468   6.835 -0.3181 -0.2616 -0.6521
 1525TIP3    H128770   3.531   2.543   6.776  0.0629 -0.2864 -0.6287
 1525TIP3    H228771   3.428   2.459   6.848 -0.3491  0.4867 -0.2958
 1526TIP3   OH228772   1.602   4.743   0.245  0.1151  0.0465  0.2638
 1526TIP3    H128773   1.555   4.682   0.303 -3.0792 -0.9989 -3.0209
 1526TIP3    H228774   1.581   4.830   0.280  0.9288 -0.5386  2.3824
 1527TIP3   OH228775   1.077   1.830   1.663  0.1535 -0.0862  0.1589
 1527TIP3    H128776   1.088   1.745   1.706  0.1069  0.2630  0.8720
 1527TIP3    H228777   1.164   1.851   1.630  0.5465  0.3411  1.4152
 1528TIP3   OH228778   1.062   7.115   6.758 -0.1169  0.6013  0.3729
 1528TIP3    H128779   1.106   7.048   6.810 -0.3245 -0.2817 -0.5709
 1528TIP3    H228780   1.007   7.162   6.821 -0.0994 -0.2243  1.0142
 1529TIP3   OH228781   5.340   3.267   1.458 -0.5788 -0.5726 -0.8598
 1529TIP3    H128782   5.336   3.172   1.450 -2.2329 -0.6704  0.5921
 1529TIP3    H228783   5.423   3.284   1.502 -0.4012 -1.3745 -0.8730
 1530TIP3   OH228784   6.055   3.895   7.715  0.7027 -0.2288  0.2073
 1530TIP3    H128785   6.020   3.911   7.803 -2.0043  1.2558 -0.9932
 1530TIP3    H228786   6.000   3.826   7.679  0.9528  0.0528 -0.7469
 1531TIP3   OH228787   4.647   3.458   0.972  0.5670  0.0406  0.1252
 1531TIP3    H128788   4.741   3.454   0.991  1.2446 -0.0439 -2.7522
 1531TIP3    H228789   4.635   3.543   0.929  0.1615 -1.4476 -2.9650
 1532TIP3   OH228790   4.121   0.322   9.506  0.2222  0.2991 -0.1548
 1532TIP3    H128791   4.111   0.343   9.599  0.1014 -1.1236  0.1802
 1532TIP3    H228792   4.188   0.383   9.475  0.0577  0.9962  0.7842
 1533TIP3   OH228793   7.108   6.584   8.963 -0.6232 -0.1073 -0.0433
 1533TIP3    H128794   7.065   6.500   8.975 -1.3798  0.1763 -0.6542
 1533TIP3    H228795   7.126   6.616   9.052 -1.6012 -0.2767  0.2217
 1534TIP3   OH228796   7.381   4.003   7.652  0.0585  0.0880 -0.3039
 1534TIP3    H128797   7.381   3.909   7.670  0.3237  0.4705  2.1710
 1534TIP3    H228798   7.289   4.026   7.640 -0.2631 -0.1889  1.3369
 1535TIP3   OH228799   2.477   6.345   1.375 -0.2102  0.1234  0.2674
 1535TIP3    H128800   2.390   6.305   1.374  0.2295 -0.9303 -1.2863
 1535TIP3    H228801   2.504   6.342   1.466 -2.2660  1.5915  0.9835
 1536TIP3   OH228802   7.541   0.793   7.381 -0.4568 -0.3570 -0.2910
 1536TIP3    H128803   7.564   0.706   7.416  0.7544  0.0715  0.0309
 1536TIP3    H228804   7.601   0.807   7.309 -0.5537  0.2801 -0.2541
 1537TIP3   OH228805   3.082   6.790   7.457 -0.3872  0.2727  0.1081
 1537TIP3    H128806   3.087   6.820   7.366 -0.5725  0.3534  0.1261
 1537TIP3    H228807   3.165   6.744   7.470  0.3236  1.5776  0.3675
 1538TIP3   OH228808   3.517   4.694   0.195  0.3475  0.3428 -0.0648
 1538TIP3    H128809   3.457   4.681   0.122  0.6482 -0.2636 -0.2121
 1538TIP3    H228810   3.501   4.619   0.253  1.4965 -0.2558 -0.4856
 1539TIP3   OH228811   7.493   3.020   0.429 -0.5240 -0.8319  0.7121
 1539TIP3    H128812   7.433   3.000   0.501  1.9255 -2.1200  2.5229
 1539TIP3    H228813   7.522   3.109   0.446 -1.3855 -0.4340  0.1826
 1540TIP3   OH228814   0.456   1.345   8.892  0.0520 -0.4018  0.6317
 1540TIP3    H128815   0.456   1.430   8.935 -2.2355  1.4681 -2.6279
 1540TIP3    H228816   0.384   1.297   8.933 -0.6149  0.4478  0.4894
 1541TIP3   OH228817   3.798   7.282   9.261  0.1658 -0.5831 -0.7988
 1541TIP3    H128818   3.798   7.374   9.287  1.0323 -0.5474 -0.8997
 1541TIP3    H228819   3.754   7.282   9.176 -0.0985 -0.3051 -0.6663
 1542TIP3   OH228820   2.514   2.599   1.159 -0.2798  0.5103 -0.1316
 1542TIP3    H128821   2.576   2.540   1.201  0.0619  0.3198 -0.8827
 1542TIP3    H228822   2.492   2.556   1.076  0.0453  1.4781 -0.7377
 1543TIP3   OH228823   3.734   5.983   2.698 -0.0327 -0.1599  0.3296
 1543TIP3    H128824   3.814   6.033   2.677 -0.0048 -0.0596  0.6789
 1543TIP3    H228825   3.665   6.049   2.700  0.0870 -0.0544  1.2983
 1544TIP3   OH228826   0.472   3.473   0.183  0.0371  0.2685 -0.0996
 1544TIP3    H128827   0.459   3.388   0.226 -2.3201  0.9840  0.7512
 1544TIP3    H228828   0.524   3.524   0.245  0.2305 -0.0865  0.0308
 1545TIP3   OH228829   2.942   2.787   0.801 -0.3025  0.3708 -0.4966
 1545TIP3    H128830   2.946   2.696   0.830 -0.9159  0.7183  0.7516
 1545TIP3    H228831   3.004   2.834   0.857  0.1557  0.7055 -1.2576
 1546TIP3   OH228832   2.731   1.552   1.979 -0.0619  0.1334 -0.3958
 1546TIP3    H128833   2.820   1.578   1.956 -0.2232  0.8943 -0.1948
 1546TIP3    H228834   2.733   1.539   2.074 -0.1866  0.2540 -0.3753
 1547TIP3   OH228835   3.786   5.985   9.807  0.0364  0.3118  0.0572
 1547TIP3    H128836   3.752   5.896   9.809 -1.2392  0.7031  3.2981
 1547TIP3    H228837   3.726   6.032   9.750 -2.0834 -0.0822  1.8030
 1548TIP3   OH228838   2.682   0.225   9.535  0.4405 -0.0112  0.1502
 1548TIP3    H128839   2.650   0.298   9.482 -0.0042 -0.7714 -0.6688
 1548TIP3    H228840   2.647   0.147   9.491  0.5596 -0.6979  1.2368
 1549TIP3   OH228841   0.640   1.270   8.708 -0.5339 -0.5716 -0.2156
 1549TIP3    H128842   0.718   1.258   8.762  0.9274  0.6821 -1.9271
 1549TIP3    H228843   0.577   1.313   8.765  0.4656 -0.5099  0.8697
 1550TIP3   OH228844   3.649   7.266   7.881 -0.5914 -0.0547 -0.4471
 1550TIP3    H128845   3.679   7.209   7.952 -3.0397 -1.7103 -0.6159
 1550TIP3    H228846   3.693   7.231   7.803 -0.6619 -0.5432 -0.2744
 1551TIP3   OH228847   5.799   1.814   1.285 -0.6097  0.2059 -0.7606
 1551TIP3    H128848   5.768   1.886   1.341 -1.3415 -1.1366  0.6232
 1551TIP3    H228849   5.742   1.818   1.208 -1.2050  0.5852 -0.3126
 1552TIP3   OH228850   7.288   0.493   9.652 -0.4122  0.3313  0.2304
 1552TIP3    H128851   7.376   0.517   9.621 -0.4666 -2.2642 -2.2399
 1552TIP3    H228852   7.301   0.412   9.701 -1.1207  1.5073  2.5164
 1553TIP3   OH228853   6.905   2.087   9.045 -0.1053 -0.0848  0.8648
 1553TIP3    H128854   6.949   2.084   8.959  0.8836  0.7521  1.3169
 1553TIP3    H228855   6.947   2.160   9.090 -0.8589 -0.3023  1.9424
 1554TIP3   OH228856   7.497   5.009   0.469  0.5916  0.2053  0.2883
 1554TIP3    H128857   7.475   4.916   0.462  0.5125  0.3423 -2.1192
 1554TIP3    H228858   7.554   5.026   0.394  0.3976  2.1476  0.5290
 1555TIP3   OH228859   1.423   6.390   0.285  0.2542  0.5430  0.2999
 1555TIP3    H128860   1.513   6.408   0.311 -0.2221  0.9300  1.8187
 1555TIP3    H228861   1.430   6.338   0.205  1.7899  1.5724 -0.2664
 1556TIP3   OH228862   0.256   0.419   9.061 -0.2860  0.4961 -0.4204
 1556TIP3    H128863   0.202   0.373   9.125  0.8168 -0.6836 -0.2889
 1556TIP3    H228864   0.215   0.399   8.977 -0.2599 -0.1150 -0.2949
 1557TIP3   OH228865   0.622   6.893   9.533  0.4375 -0.1329  0.4852
 1557TIP3    H128866   0.579   6.944   9.601 -0.2652  0.1468 -0.1473
 1557TIP3    H228867   0.645   6.958   9.466 -2.0866 -0.7996 -1.1748
 1558TIP3   OH228868   6.163   2.097   9.086  0.9576 -0.0284  0.1908
 1558TIP3    H128869   6.069   2.114   9.076  0.9566 -0.7900 -1.3652
 1558TIP3    H228870   6.168   2.030   9.154  0.6031  1.9191  2.2729
 1559TIP3   OH228871   2.454   6.299   9.168  0.0653 -0.1514  0.3533
 1559TIP3    H128872   2.452   6.246   9.248  1.8365 -2.1398 -0.7878
 1559TIP3    H228873   2.532   6.353   9.177  0.1873 -0.2736  0.0532
 1560TIP3   OH228874   1.456   7.670   2.147  0.0033 -0.0639  0.4467
 1560TIP3    H128875   1.519   7.603   2.120  0.5662 -0.4255  2.5520
 1560TIP3    H228876   1.496   7.713   2.222 -0.5164  2.4325 -0.5946
 1561TIP3   OH228877   4.755   4.622   8.622 -0.1482 -0.3963 -0.1604
 1561TIP3    H128878   4.716   4.549   8.669 -2.5431  1.2308  0.5662
 1561TIP3    H228879   4.700   4.633   8.544 -0.0416  0.8043 -0.0931
 1562TIP3   OH228880   0.663   6.186   0.520  0.1807 -0.0579  0.3116
 1562TIP3    H128881   0.653   6.198   0.614 -0.4072 -2.5257  0.6419
 1562TIP3    H228882   0.676   6.091   0.509  0.5949  0.2052 -2.0600
 1563TIP3   OH228883   3.692   4.362   7.777  0.2238  0.8472 -0.8246
 1563TIP3    H128884   3.682   4.307   7.855  2.2473 -1.0717 -1.7981
 1563TIP3    H228885   3.629   4.327   7.714 -0.2206  1.2937 -0.6370
 1564TIP3   OH228886   6.561   4.967   8.340  0.0193 -0.2454  0.2815
 1564TIP3    H128887   6.544   5.060   8.358 -0.5658 -0.2224 -0.3903
 1564TIP3    H228888   6.512   4.921   8.408 -0.5062 -0.0954  0.0041
 1565TIP3   OH228889   1.858   1.234   1.012 -0.1616 -0.6340 -0.7986
 1565TIP3    H128890   1.802   1.162   1.041 -1.0371 -0.8919 -2.9428
 1565TIP3    H228891   1.947   1.204   1.030 -0.5914 -0.0412  3.0834
 1566TIP3   OH228892   0.483   4.301   7.851 -0.0679  0.1071  0.1096
 1566TIP3    H128893   0.414   4.244   7.885 -1.7183  1.7209 -0.3661
 1566TIP3    H228894   0.477   4.381   7.904  2.1415 -0.0671  0.7178
 1567TIP3   OH228895   3.419   2.212   1.025 -0.3869 -0.2372  0.0770
 1567TIP3    H128896   3.412   2.155   1.102  2.2648 -0.5176  0.2174
 1567TIP3    H228897   3.349   2.276   1.036 -0.7765 -0.9408  2.1591
 1568TIP3   OH228898   3.293   1.482   0.402 -0.4331  0.0285 -0.4699
 1568TIP3    H128899   3.300   1.416   0.333 -0.5228  0.0648 -0.5133
 1568TIP3    H228900   3.376   1.474   0.451 -0.8288 -0.7558  0.1020
 1569TIP3   OH228901   5.001   2.828   8.602  0.1765 -0.2217 -0.3124
 1569TIP3    H128902   5.054   2.762   8.559  0.0973 -0.2760 -0.3266
 1569TIP3    H228903   4.927   2.842   8.543 -0.3492 -0.8742  0.1709
 1570TIP3   OH228904   4.470   7.252   7.581  0.4257  0.2478  0.1931
 1570TIP3    H128905   4.436   7.162   7.588  0.6847  0.2742  2.9023
 1570TIP3    H228906   4.552   7.250   7.630  0.6735  1.8781 -0.1040
 1571TIP3   OH228907   3.181   7.462   9.054 -0.4854  0.1639 -0.6082
 1571TIP3    H128908   3.129   7.414   8.990  0.8558  0.4639 -2.0080
 1571TIP3    H228909   3.239   7.397   9.092 -2.2553 -0.3030  1.4399
 1572TIP3   OH228910   0.053   5.762   9.500  0.3476  0.1808  0.2417
 1572TIP3    H128911   0.111   5.794   9.431  0.3598 -1.6850 -0.6622
 1572TIP3    H228912  -0.021   5.823   9.499  1.4880  1.6313  0.3144
 1573TIP3   OH228913   3.398   7.089   1.372  0.2010  0.1959 -0.2568
 1573TIP3    H128914   3.348   7.016   1.409 -0.4735 -0.2939 -1.9894
 1573TIP3    H228915   3.489   7.069   1.393 -0.0016 -1.0046 -0.4158
 1574TIP3   OH228916   1.642   3.367   0.500  0.3979 -0.6898 -0.2491
 1574TIP3    H128917   1.722   3.404   0.463  0.3308  0.2511  0.5339
 1574TIP3    H228918   1.616   3.428   0.568 -0.3489 -1.5941  0.2979
 1575TIP3   OH228919   5.785   1.401   9.354  0.8132 -0.3346  0.1504
 1575TIP3    H128920   5.715   1.466   9.360  0.6348 -0.5967  1.0116
 1575TIP3    H228921   5.824   1.416   9.268 -2.7953 -2.7501 -2.1481
 1576TIP3   OH228922   5.373   5.614   0.244  0.1944 -0.2033 -0.2264
 1576TIP3    H128923   5.349   5.557   0.317 -1.8774  2.2090  1.1438
 1576TIP3    H228924   5.294   5.617   0.189  0.0641  1.6785  0.0080
 1577TIP3   OH228925   7.195   1.130   8.778  0.1069 -0.1376  0.3139
 1577TIP3    H128926   7.154   1.070   8.715 -1.1273  0.2350  0.7362
 1577TIP3    H228927   7.122   1.180   8.814  1.2221  3.0210 -1.4182
 1578TIP3   OH228928   4.479   5.991   8.946 -0.3157 -0.7114 -0.0444
 1578TIP3    H128929   4.573   6.012   8.951 -0.2421 -0.8751 -0.6614
 1578TIP3    H228930   4.459   5.953   9.032 -0.6192  2.4114  1.4178
 1579TIP3   OH228931   4.356   6.078   7.739  0.6935 -0.1187  0.4738
 1579TIP3    H128932   4.356   6.173   7.730 -0.4820 -0.0767  0.7348
 1579TIP3    H228933   4.411   6.047   7.667 -0.2563  0.6852 -0.6345
 1580TIP3   OH228934   4.916   1.955   2.094  0.1436  0.0716  1.0435
 1580TIP3    H128935   4.908   2.044   2.127 -2.7917  1.5621 -2.8770
 1580TIP3    H228936   4.981   1.961   2.023 -0.5088 -0.7195  0.3514
 1581TIP3   OH228937   2.535   4.578   0.823  0.1759  0.4648 -0.6102
 1581TIP3    H128938   2.455   4.560   0.774  0.2321 -1.1106 -0.1524
 1581TIP3    H228939   2.515   4.659   0.872 -1.2162 -0.0148 -0.3341
 1582TIP3   OH228940   4.944   1.968   0.362  0.0366  0.3164 -0.0948
 1582TIP3    H128941   4.859   2.007   0.342 -1.0772 -1.1882  1.4103
 1582TIP3    H228942   4.926   1.875   0.372  1.7985  0.0206  0.6973
 1583TIP3   OH228943   3.304   3.749   1.656  0.2198 -0.1602 -0.1339
 1583TIP3    H128944   3.331   3.713   1.571 -0.0015 -0.2039 -0.1842
 1583TIP3    H228945   3.338   3.838   1.656  0.2282 -0.1641 -0.2626
 1584TIP3   OH228946   2.102   4.593   2.171 -0.4512  0.0179  0.2079
 1584TIP3    H128947   2.114   4.507   2.131  1.1148  0.9763 -1.5766
 1584TIP3    H228948   2.188   4.617   2.204 -0.3661  1.6468 -1.0253
 1585TIP3   OH228949   4.703   4.316   8.280 -0.3292  0.7279  0.0437
 1585TIP3    H128950   4.722   4.272   8.197  0.4728  0.2320  0.4791
 1585TIP3    H228951   4.616   4.354   8.268 -1.2677 -1.3584 -0.2271
 1586TIP3   OH228952   7.167   2.921   9.672 -0.4920  0.1922  0.0480
 1586TIP3    H128953   7.115   2.896   9.749  0.6895  2.2014  1.6307
 1586TIP3    H228954   7.112   2.986   9.627 -0.5150  0.2330  0.1336
 1587TIP3   OH228955   6.096   3.370   0.915  0.2705  0.3126  0.5838
 1587TIP3    H128956   6.087   3.361   0.820 -0.2689 -0.3643  0.6883
 1587TIP3    H228957   6.160   3.304   0.940 -0.4746 -0.3340  0.8278
 1588TIP3   OH228958   3.783   7.530   9.246 -0.3850 -0.1228  0.3540
 1588TIP3    H128959   3.703   7.569   9.282  0.3313  1.5950  0.1830
 1588TIP3    H228960   3.805   7.587   9.172  0.9038 -0.6912  0.2873
 1589TIP3   OH228961   5.579   2.711   8.961  0.2150 -0.3824  0.4421
 1589TIP3    H128962   5.609   2.685   9.048 -2.7310 -1.7434  1.1947
 1589TIP3    H228963   5.516   2.643   8.937 -2.2470  2.1575 -0.8639
 1590TIP3   OH228964   3.015   1.484   8.823  0.0701  0.1973  0.3835
 1590TIP3    H128965   3.097   1.440   8.846 -0.4099  0.2470  2.3642
 1590TIP3    H228966   3.034   1.577   8.833  0.9955  0.6093 -3.5125
 1591TIP3   OH228967   2.270   2.885   1.062  0.0357  0.3606  0.2983
 1591TIP3    H128968   2.255   2.837   1.144  0.2677  1.0590  0.7605
 1591TIP3    H228969   2.287   2.817   0.997 -1.1017 -0.2595  0.6163
 1592TIP3   OH228970   2.095   6.786   9.095 -0.0494  0.1448 -0.5737
 1592TIP3    H128971   2.048   6.712   9.133  0.9867 -0.1958  0.0815
 1592TIP3    H228972   2.043   6.810   9.018 -1.8870  0.4926  0.7117
 1593TIP3   OH228973   7.229   0.361   8.858 -0.3495  0.0461  0.2031
 1593TIP3    H128974   7.235   0.279   8.808 -1.0417  0.6496 -0.9035
 1593TIP3    H228975   7.315   0.401   8.849 -0.6688  0.4751 -1.1016
 1594TIP3   OH228976   6.042   4.067   0.287 -0.0611 -0.7190 -0.3082
 1594TIP3    H128977   6.131   4.034   0.294  0.7839  1.4694 -0.2211
 1594TIP3    H228978   6.029   4.120   0.366 -0.8664  0.2963 -1.0958
 1595TIP3   OH228979   3.510   7.010   9.118 -0.2466 -0.6060 -0.0855
 1595TIP3    H128980   3.435   6.955   9.097  0.3910 -0.9784 -1.4474
 1595TIP3    H228981   3.571   6.952   9.163  0.6208 -1.1803 -1.9216
 1596TIP3   OH228982   2.669   6.994   1.343  0.0798 -0.1974 -0.1926
 1596TIP3    H128983   2.624   6.910   1.331 -0.0668 -0.0911 -0.3828
 1596TIP3    H228984   2.669   7.007   1.438 -0.1762 -0.2617 -0.1821
 1597TIP3   OH228985   4.509   3.502   8.543  0.0857 -0.1229  0.0061
 1597TIP3    H128986   4.541   3.507   8.453  0.0217  0.3247  0.0052
 1597TIP3    H228987   4.452   3.425   8.544 -1.0399  0.6700 -0.7037
 1598TIP3   OH228988   4.932   0.684   8.488  0.0350 -0.1200 -0.1027
 1598TIP3    H128989   4.908   0.774   8.470 -0.1673 -0.0350  0.5731
 1598TIP3    H228990   5.001   0.690   8.555  0.3856 -0.4450 -0.4279
 1599TIP3   OH228991   0.086   7.045   8.878  0.4943  0.2051 -0.0159
 1599TIP3    H128992   0.037   6.972   8.916  1.1170  0.2329  0.8834
 1599TIP3    H228993   0.150   7.068   8.945  2.8144 -0.8590 -1.7385
 1600TIP3   OH228994   5.929   4.912   0.371 -0.0330 -0.5915  0.6491
 1600TIP3    H128995   5.913   4.843   0.435 -2.0684 -0.0439  0.8261
 1600TIP3    H228996   5.993   4.969   0.411  0.8499 -1.7755  0.9657
 1601TIP3   OH228997   1.531   6.680   9.529  0.3786 -0.3837 -0.7177
 1601TIP3    H128998   1.624   6.702   9.517  0.2610  0.8792  0.4341
 1601TIP3    H228999   1.490   6.762   9.554 -0.7685 -1.2369  0.3259
 1602TIP3   OH229000   2.420   2.617   7.935 -0.3642 -0.2911 -0.7590
 1602TIP3    H129001   2.394   2.526   7.952 -0.6311  0.1710  1.6047
 1602TIP3    H229002   2.353   2.669   7.978  1.7605  0.9778  1.2142
 1603TIP3   OH229003   6.931   3.249   1.482  0.3875 -0.0464  0.0014
 1603TIP3    H129004   7.003   3.213   1.430  1.2517 -0.8161  1.6445
 1603TIP3    H229005   6.914   3.182   1.548 -0.0950  1.2159  1.2177
 1604TIP3   OH229006   3.324   4.049   9.155 -0.7088  0.2338 -0.6294
 1604TIP3    H129007   3.396   4.110   9.140  0.0192 -0.4555  0.0327
 1604TIP3    H229008   3.303   4.058   9.248 -1.4981  0.4409 -0.8172
 1605TIP3   OH229009   0.636   3.570   1.176  0.2989 -0.5132  0.0006
 1605TIP3    H129010   0.619   3.478   1.156 -2.3639  0.2692 -1.8858
 1605TIP3    H229011   0.648   3.572   1.271 -3.5629 -2.3789  0.7165
 1606TIP3   OH229012   1.107   7.674   9.860 -0.1930  0.0916 -0.0896
 1606TIP3    H129013   1.040   7.616   9.825  0.2570  0.7231 -2.1226
 1606TIP3    H229014   1.064   7.721   9.931 -1.6839 -0.0201 -0.8807
 1607TIP3   OH229015   4.209   7.149   7.978 -0.4182  0.0570  0.4257
 1607TIP3    H129016   4.195   7.225   8.035 -0.2085  0.6276 -0.2687
 1607TIP3    H229017   4.302   7.128   7.988 -0.0231  1.0901 -0.8113
 1608TIP3   OH229018   1.461   1.539   9.186  0.4475 -0.2162  0.1065
 1608TIP3    H129019   1.454   1.444   9.189 -1.0997 -0.1953 -1.3263
 1608TIP3    H229020   1.502   1.563   9.269 -0.7382 -1.9904  1.2745
 1609TIP3   OH229021   5.387   1.777   8.373 -0.5050  0.2139  0.3909
 1609TIP3    H129022   5.410   1.813   8.287  1.7291  1.6172  1.4815
 1609TIP3    H229023   5.324   1.707   8.354 -0.3877  0.7442 -2.3265
 1610TIP3   OH229024   5.458   6.160   0.793  0.6622 -0.1302 -0.1039
 1610TIP3    H129025   5.506   6.242   0.787 -0.7670  0.6568 -1.6731
 1610TIP3    H229026   5.440   6.149   0.886 -0.8352  2.4075 -0.0176
 1611TIP3   OH229027   6.823   3.000   0.549  0.2529  0.4911  0.5399
 1611TIP3    H129028   6.875   2.936   0.598  0.5304 -0.0263 -0.4004
 1611TIP3    H229029   6.780   3.053   0.617 -1.5914 -1.9470  1.4334
 1612TIP3   OH229030   4.164   3.845   9.488 -0.1354  0.3501  0.3960
 1612TIP3    H129031   4.210   3.922   9.454  2.4987 -0.6968  1.2813
 1612TIP3    H229032   4.154   3.787   9.413  1.1567  0.1163  0.3716
 1613TIP3   OH229033   6.385   3.667   0.153 -0.0014  0.1203 -0.7037
 1613TIP3    H129034   6.466   3.632   0.190 -0.5186 -0.1298  0.2045
 1613TIP3    H229035   6.409   3.756   0.125  0.2216  0.6032  0.9308
 1614TIP3   OH229036   2.069   6.154   8.711 -0.1518 -0.0235  0.2028
 1614TIP3    H129037   2.048   6.159   8.618  1.3767  1.6886 -0.1068
 1614TIP3    H229038   2.093   6.063   8.726 -1.2410 -0.5134 -0.8718
 1615TIP3   OH229039   3.188   5.407   3.288 -0.1963 -0.0871 -0.3427
 1615TIP3    H129040   3.276   5.375   3.265  0.0636 -0.9889  1.7147
 1615TIP3    H229041   3.202   5.498   3.314  0.2683 -0.4236  0.6323
 1616TIP3   OH229042   3.242   2.821   9.930 -0.0577 -0.3010 -0.7530
 1616TIP3    H129043   3.159   2.776   9.944 -0.4327  0.5439 -0.1456
 1616TIP3    H229044   3.221   2.914   9.943  1.0745 -0.1167 -0.0857
 1617TIP3   OH229045   1.743   1.896   2.882 -0.1578  0.1169 -0.5666
 1617TIP3    H129046   1.690   1.826   2.844 -0.0755 -1.0275  1.3266
 1617TIP3    H229047   1.806   1.918   2.813 -1.5562 -0.1211 -1.9928
 1618TIP3   OH229048   5.817   1.291   1.013 -0.5080  0.2711  0.0889
 1618TIP3    H129049   5.805   1.364   0.953  2.9433  0.0657 -1.0874
 1618TIP3    H229050   5.778   1.216   0.969 -2.1809  0.9735  0.3261
 1619TIP3   OH229051   0.815   4.689   1.096  0.3935 -0.4138 -0.4080
 1619TIP3    H129052   0.733   4.711   1.141  0.9879  0.8181  0.1144
 1619TIP3    H229053   0.862   4.634   1.159  1.0421  0.9624  0.3425
 1620TIP3   OH229054   0.337   3.717   1.841 -0.8370 -0.2539 -0.3046
 1620TIP3    H129055   0.267   3.782   1.831 -0.7720 -0.3107 -1.1957
 1620TIP3    H229056   0.414   3.768   1.866 -0.3178  0.2968 -2.7613
 1621TIP3   OH229057   7.512   7.012   8.665 -0.0244 -0.5391 -0.3191
 1621TIP3    H129058   7.567   7.012   8.744  1.1630  1.4644 -1.0737
 1621TIP3    H229059   7.446   6.945   8.682  0.8284 -0.8958  1.9302
 1622TIP3   OH229060   5.299   3.382   8.066 -0.2198  0.2487  0.0118
 1622TIP3    H129061   5.260   3.379   7.979  0.3683  1.9408 -0.3328
 1622TIP3    H229062   5.381   3.333   8.058  0.0317  0.7553 -0.4866
 1623TIP3   OH229063   3.588   7.504   1.813  0.2299 -0.2992  0.0238
 1623TIP3    H129064   3.639   7.461   1.881 -0.8321 -1.4856  0.1135
 1623TIP3    H229065   3.500   7.467   1.822 -0.0875 -0.0094 -1.5749
 1624TIP3   OH229066   6.684   4.572   9.881  0.6736 -0.3665 -0.4066
 1624TIP3    H129067   6.604   4.610   9.917  1.7379 -0.8698  2.9096
 1624TIP3    H229068   6.743   4.647   9.869  0.6808 -0.3003  0.0319
 1625TIP3   OH229069   1.415   0.242   7.378  0.0767  0.3766 -0.0121
 1625TIP3    H129070   1.502   0.255   7.341  0.0160  1.3972  0.1785
 1625TIP3    H229071   1.356   0.237   7.303  0.2863 -0.3209 -0.1415
 1626TIP3   OH229072   6.326   7.507   9.650 -0.7490  0.0732 -0.5118
 1626TIP3    H129073   6.410   7.526   9.608  0.2116 -0.0415  1.2719
 1626TIP3    H229074   6.316   7.413   9.641 -0.4317  0.0161 -0.2888
 1627TIP3   OH229075   7.152   3.734   8.273  0.3579 -0.4581 -0.2967
 1627TIP3    H129076   7.200   3.664   8.230 -1.8532 -1.4026 -1.4036
 1627TIP3    H229077   7.085   3.689   8.325 -0.8818  0.7798 -0.7513
 1628TIP3   OH229078   7.044   0.669   9.088  0.4004  0.1041  0.1373
 1628TIP3    H129079   7.016   0.666   8.996  1.6993  0.3064 -0.2898
 1628TIP3    H229080   7.081   0.582   9.104  0.3626  0.1380  0.4140
 1629TIP3   OH229081   2.300   5.098   1.324 -0.1090  0.1975 -0.0876
 1629TIP3    H129082   2.296   5.034   1.395 -2.6241  1.5004  1.1130
 1629TIP3    H229083   2.286   5.182   1.368  3.1698  1.6776 -1.5641
 1630TIP3   OH229084   0.503   6.029   9.545 -0.0782 -0.0621 -0.1455
 1630TIP3    H129085   0.592   6.017   9.513  0.2531  0.0957  0.6816
 1630TIP3    H229086   0.480   6.118   9.522  0.2235  0.1077  0.2014
 1631TIP3   OH229087   7.661   1.304   0.444 -0.2072 -0.0496 -0.4997
 1631TIP3    H129088   7.697   1.270   0.362  1.8304  0.8067 -0.0044
 1631TIP3    H229089   7.608   1.379   0.418  0.1130 -0.0168 -1.0630
 1632TIP3   OH229090   7.678   6.303   1.431  0.5261 -0.7081 -0.4035
 1632TIP3    H129091   7.609   6.237   1.437 -0.7732  0.6886  1.5038
 1632TIP3    H229092   7.742   6.266   1.370 -2.2126 -1.7721 -2.8866
 1633TIP3   OH229093   7.607   7.660   9.121 -0.1171 -0.6114  0.5889
 1633TIP3    H129094   7.556   7.721   9.067 -0.4151 -0.1258  1.4100
 1633TIP3    H229095   7.607   7.578   9.070 -0.9446 -0.3543  0.1521
 1634TIP3   OH229096   2.029   0.914   0.075 -0.3833 -0.0661  0.2429
 1634TIP3    H129097   1.985   0.836   0.109 -0.4040 -0.1340  0.0646
 1634TIP3    H229098   1.997   0.986   0.130  0.4635 -0.3295  1.1134
 1635TIP3   OH229099   7.084   5.233   9.842  0.3865 -0.7688 -0.2608
 1635TIP3    H129100   7.044   5.151   9.814 -1.8533 -0.9753  2.9963
 1635TIP3    H229101   7.016   5.299   9.832  0.9360 -0.0477  0.5248
 1636TIP3   OH229102   7.094   4.067   1.886 -0.6659  0.5326 -0.0509
 1636TIP3    H129103   7.096   4.163   1.879 -1.9620  0.4988 -1.5289
 1636TIP3    H229104   7.001   4.045   1.884 -0.4132 -0.8967 -3.2395
 1637TIP3   OH229105   1.449   3.910   0.355 -0.3408 -0.2908  0.2326
 1637TIP3    H129106   1.408   3.828   0.328 -0.7617 -0.5232  1.5168
 1637TIP3    H229107   1.382   3.954   0.408  0.9819 -0.6440  2.3333
 1638TIP3   OH229108   1.761   4.757   8.473 -0.6167 -0.4462 -0.3226
 1638TIP3    H129109   1.699   4.790   8.408  0.3567 -1.9130 -2.0981
 1638TIP3    H229110   1.840   4.809   8.460 -0.3920 -0.7974 -0.3766
 1639TIP3   OH229111   2.752   3.803   0.536 -0.1066 -0.1142 -0.2073
 1639TIP3    H129112   2.732   3.763   0.620  0.7447 -0.5479 -0.2070
 1639TIP3    H229113   2.737   3.733   0.472  0.1463 -0.0554 -0.3309
 1640TIP3   OH229114   2.049   0.098   9.360 -0.2847  0.0501 -0.0693
 1640TIP3    H129115   2.048   0.117   9.453  0.7155  1.1956 -0.2625
 1640TIP3    H229116   2.142   0.090   9.338 -0.3894  1.4594 -1.2399
 1641TIP3   OH229117   3.350   2.775   2.523 -0.2428  0.2136  0.4338
 1641TIP3    H129118   3.315   2.843   2.465 -1.0669  1.3336  2.1425
 1641TIP3    H229119   3.398   2.716   2.465 -1.1011  1.2072 -1.3762
 1642TIP3   OH229120   5.813   4.094   1.226  0.1856 -0.6964 -0.3092
 1642TIP3    H129121   5.858   4.036   1.288  0.8776  1.4145  1.2886
 1642TIP3    H229122   5.723   4.099   1.259 -0.2549 -1.8535 -1.2441
 1643TIP3   OH229123   2.238   2.084   8.074 -0.0491 -0.1488 -0.1649
 1643TIP3    H129124   2.176   2.011   8.069  2.1664 -2.1060 -1.0761
 1643TIP3    H229125   2.243   2.118   7.985 -0.8325  0.9844  0.1931
 1644TIP3   OH229126   7.494   0.960   1.162  0.0006 -0.1293 -0.4783
 1644TIP3    H129127   7.408   0.990   1.132  0.2855 -0.8666 -2.1663
 1644TIP3    H229128   7.514   1.015   1.238 -1.1711  1.2486 -1.1259
 1645TIP3   OH229129   1.454   0.359   0.892  0.0239 -0.3242  0.0250
 1645TIP3    H129130   1.385   0.336   0.955  0.3213 -2.6224 -0.3999
 1645TIP3    H229131   1.407   0.397   0.818 -1.0432 -3.0563 -0.8234
 1646TIP3   OH229132   2.756   7.049   7.369 -0.6178  0.1586 -0.0069
 1646TIP3    H129133   2.740   6.965   7.327  1.3398 -0.4048  0.3243
 1646TIP3    H229134   2.747   7.032   7.462 -0.3429  0.3456  0.0544
 1647TIP3   OH229135   4.734   0.726   9.348 -0.0267  0.6759 -0.8638
 1647TIP3    H129136   4.771   0.713   9.260 -0.2158  1.0523 -1.0033
 1647TIP3    H229137   4.656   0.671   9.350  0.2312  0.3158 -0.7700
 1648TIP3   OH229138   4.685   5.114   0.110 -0.1428  0.0093 -0.0975
 1648TIP3    H129139   4.761   5.079   0.065 -0.8267 -0.6019 -0.7966
 1648TIP3    H229140   4.620   5.127   0.042 -0.4710  1.1254  0.3920
 1649TIP3   OH229141   0.044   5.776   7.219 -0.3570  0.4410 -0.5284
 1649TIP3    H129142   0.045   5.841   7.149  0.6027  0.3404 -0.6211
 1649TIP3    H229143   0.011   5.824   7.295  0.2184  1.0164 -0.6285
 1650TIP3   OH229144   2.934   4.879   0.928  0.1910  0.1608 -0.0871
 1650TIP3    H129145   2.909   4.970   0.945 -0.9340 -0.2513  0.5694
 1650TIP3    H229146   2.869   4.827   0.976  0.5875 -0.9939 -0.7666
 1651TIP3   OH229147   0.143   0.820   8.633  0.5428  0.2573 -0.3750
 1651TIP3    H129148   0.236   0.829   8.612  0.7054 -0.9081 -0.2292
 1651TIP3    H229149   0.123   0.729   8.612  0.0425 -0.2215  1.8946
 1652TIP3   OH229150   5.767   1.709   0.752  0.0838  0.4869 -0.1853
 1652TIP3    H129151   5.845   1.704   0.807  0.4027 -1.7657 -0.7657
 1652TIP3    H229152   5.717   1.782   0.789  0.5052 -0.6002  2.8183
 1653TIP3   OH229153   0.579   3.894   1.779 -0.1030 -0.3592  0.0316
 1653TIP3    H129154   0.618   3.979   1.759  0.8417 -0.5381  1.0063
 1653TIP3    H229155   0.524   3.874   1.703  0.3048  0.7426 -0.5739
 1654TIP3   OH229156   0.840   1.206   0.267  0.4382 -0.4073  0.0101
 1654TIP3    H129157   0.753   1.181   0.236 -0.4539  1.7885  0.4874
 1654TIP3    H229158   0.843   1.176   0.358 -0.5260  0.9410  0.5162
 1655TIP3   OH229159   4.880   7.551   8.332  0.1283 -0.3066 -0.2928
 1655TIP3    H129160   4.861   7.495   8.256 -0.4177  1.8766 -1.8737
 1655TIP3    H229161   4.796   7.558   8.378  0.7329 -2.6733  1.3841
 1656TIP3   OH229162   0.985   0.259   1.205 -0.0678 -0.5054  0.1814
 1656TIP3    H129163   0.927   0.302   1.142 -2.4720 -2.5738  0.8090
 1656TIP3    H229164   1.073   0.273   1.171 -1.0137  1.4660 -1.6864
 1657TIP3   OH229165   2.250   3.288   1.376 -0.2016 -0.0501  0.0706
 1657TIP3    H129166   2.316   3.287   1.445  0.9781 -2.5346 -0.9260
 1657TIP3    H229167   2.167   3.297   1.422  0.6182 -0.4158  1.7070
 1658TIP3   OH229168   7.544   6.970   8.413  0.0337 -0.3387  0.0498
 1658TIP3    H129169   7.476   7.031   8.384  0.4439 -0.0893 -0.3992
 1658TIP3    H229170   7.553   6.987   8.507 -0.6509 -0.5081  0.1562
 1659TIP3   OH229171   3.736   4.493   1.464  0.2005  0.0599 -0.0634
 1659TIP3    H129172   3.796   4.532   1.401 -0.1962  0.0079 -0.4786
 1659TIP3    H229173   3.792   4.450   1.528  0.5930 -0.4177 -0.7275
 1660TIP3   OH229174   0.358   3.151   7.067 -0.0542 -0.8521  0.2109
 1660TIP3    H129175   0.418   3.117   7.132  0.8375  1.5376  0.7577
 1660TIP3    H229176   0.409   3.216   7.019 -1.5839 -0.3292 -0.7944
 1661TIP3   OH229177   7.367   6.591   8.881 -0.2956 -0.1552  0.3338
 1661TIP3    H129178   7.272   6.599   8.890 -0.4192 -0.5999 -0.4352
 1661TIP3    H229179   7.396   6.549   8.962 -0.7680 -0.1288  0.5193
 1662TIP3   OH229180   4.640   4.557   2.153 -0.2251 -0.0866 -0.1667
 1662TIP3    H129181   4.733   4.568   2.173 -0.0003 -0.0597 -1.1503
 1662TIP3    H229182   4.621   4.626   2.089 -0.6036 -0.8843 -0.9402
 1663TIP3   OH229183   6.071   0.414   8.357  0.5812 -0.0960 -0.1919
 1663TIP3    H129184   6.122   0.337   8.383 -1.9829 -1.9690 -0.3508
 1663TIP3    H229185   6.027   0.388   8.276 -2.1504  0.6060  0.9488
 1664TIP3   OH229186   0.751   1.445   9.401  0.1418  0.3065 -0.3383
 1664TIP3    H129187   0.718   1.509   9.465 -1.6126  0.6025 -1.4906
 1664TIP3    H229188   0.698   1.459   9.323  1.3129 -0.9918 -1.4156
 1665TIP3   OH229189   3.251   6.149   1.645 -0.1617 -0.1388  0.2388
 1665TIP3    H129190   3.209   6.235   1.638 -0.9457 -0.4543  1.0291
 1665TIP3    H229191   3.344   6.167   1.629 -0.1395  1.0416  1.5672
 1666TIP3   OH229192   4.199   1.067   9.229  0.1734  0.1320  0.0052
 1666TIP3    H129193   4.179   1.110   9.147  0.5158  0.7705  0.2539
 1666TIP3    H229194   4.151   1.116   9.295  0.1695 -0.1675  0.2315
 1667TIP3   OH229195   1.034   3.972   7.413 -1.0781 -0.0661  0.0869
 1667TIP3    H129196   1.023   3.877   7.408 -1.6569 -0.0714  1.1328
 1667TIP3    H229197   0.947   4.005   7.436 -0.7653  0.6693  0.2429
 1668TIP3   OH229198   3.229   6.429   7.100  0.2630 -0.6434  0.2176
 1668TIP3    H129199   3.288   6.426   7.024  0.8358  0.1658  0.6073
 1668TIP3    H229200   3.145   6.396   7.067  0.4419 -0.0920 -0.8311
 1669TIP3   OH229201   1.771   5.528   7.311 -0.4705  0.1111  0.3138
 1669TIP3    H129202   1.823   5.608   7.315  0.6521 -0.6290  1.1183
 1669TIP3    H229203   1.804   5.482   7.234 -1.5599  0.6915 -0.5270
 1670TIP3   OH229204   2.393   7.441   1.515 -0.0589 -0.2462  0.2999
 1670TIP3    H129205   2.371   7.404   1.601  1.4190  0.4114  0.9969
 1670TIP3    H229206   2.407   7.534   1.532  1.9352 -0.3979 -0.2827
 1671TIP3   OH229207   0.075   5.036   1.258 -0.4394  0.5831  0.2675
 1671TIP3    H129208   0.138   5.070   1.322  0.4104 -1.9576  0.9383
 1671TIP3    H229209   0.026   4.969   1.306  1.1888 -2.4538 -1.9433
 1672TIP3   OH229210   3.802   7.059   1.077 -0.4991  0.4138  0.1815
 1672TIP3    H129211   3.868   6.991   1.088 -2.0677 -1.1707  0.1413
 1672TIP3    H229212   3.718   7.014   1.088 -1.6305  2.1415 -0.8327
 1673TIP3   OH229213   2.052   6.040   1.223  0.0323  0.1282  0.3690
 1673TIP3    H129214   2.069   6.091   1.144  0.1522  0.3735  0.5509
 1673TIP3    H229215   2.085   6.094   1.294 -1.4470  0.5900  0.7390
 1674TIP3   OH229216   2.751   3.022   0.565 -0.6415  0.3169  0.9554
 1674TIP3    H129217   2.790   3.024   0.478 -1.5635 -0.8051  0.4755
 1674TIP3    H229218   2.770   3.108   0.603 -1.5761  1.4450 -0.9695
 1675TIP3   OH229219   5.278   1.151   7.532  0.3021 -0.6132 -0.2739
 1675TIP3    H129220   5.220   1.169   7.458  1.0758 -0.8943 -0.9518
 1675TIP3    H229221   5.329   1.074   7.505  1.0555 -0.3168  0.2770
 1676TIP3   OH229222   2.531   4.145   2.088 -0.2644 -0.7709  0.3577
 1676TIP3    H129223   2.484   4.122   2.168  0.4637 -1.2343  0.6644
 1676TIP3    H229224   2.608   4.193   2.118 -0.6593  0.2199 -0.1556
 1677TIP3   OH229225   0.905   6.652   9.539  0.4834  0.5125 -0.1331
 1677TIP3    H129226   0.977   6.635   9.478  0.8641 -1.0178  0.6998
 1677TIP3    H229227   0.907   6.747   9.552 -0.0581  0.9976 -3.0013
 1678TIP3   OH229228   0.296   5.854   8.303  0.3665  0.2129  0.5747
 1678TIP3    H129229   0.224   5.846   8.365 -0.2795 -0.5035 -0.2544
 1678TIP3    H229230   0.324   5.764   8.286  3.4114  0.4863  3.0560
 1679TIP3   OH229231   2.916   2.216   2.254  0.7686 -0.0432  0.5767
 1679TIP3    H129232   2.867   2.188   2.332 -0.2495  0.9658  0.3229
 1679TIP3    H229233   3.007   2.193   2.274  0.1804 -2.5178  0.8166
 1680TIP3   OH229234   3.800   0.359   1.379 -0.2440  0.6046  0.1630
 1680TIP3    H129235   3.829   0.322   1.296 -0.3246  0.2551  0.2862
 1680TIP3    H229236   3.810   0.287   1.441  0.8416  1.1734  0.6811
 1681TIP3   OH229237   1.057   6.497   0.160 -0.1607 -0.7698  0.7416
 1681TIP3    H129238   1.131   6.459   0.112 -0.1534  1.3356 -1.0746
 1681TIP3    H229239   0.980   6.454   0.123 -0.0764  0.0058 -0.3848
 1682TIP3   OH229240   1.243   3.428   1.813 -0.2969  0.1713  0.1863
 1682TIP3    H129241   1.289   3.511   1.823 -2.4240  1.7662 -2.0458
 1682TIP3    H229242   1.278   3.391   1.731 -1.2321  0.1986 -0.2336
 1683TIP3   OH229243   7.474   4.248   8.415  0.4669  0.1213 -0.3491
 1683TIP3    H129244   7.443   4.332   8.448 -4.4368 -0.2757 -2.9920
 1683TIP3    H229245   7.524   4.269   8.337  0.4623  0.6201 -0.2193
 1684TIP3   OH229246   0.128   2.964   9.485  0.1579 -0.5290  0.9383
 1684TIP3    H129247   0.173   3.035   9.439 -3.6458  1.9034  0.5816
 1684TIP3    H229248   0.131   2.891   9.424 -0.9199  1.2349 -1.4072
 1685TIP3   OH229249   7.505   2.360   1.198 -0.0392 -0.1779 -0.6099
 1685TIP3    H129250   7.587   2.395   1.233  0.4634 -2.6441  0.9248
 1685TIP3    H229251   7.524   2.342   1.106  1.0198 -0.2784 -0.3797
 1686TIP3   OH229252   5.786   7.037   9.629  0.0222  0.2303 -0.0382
 1686TIP3    H129253   5.715   6.979   9.600 -0.1946  1.1099 -1.3735
 1686TIP3    H229254   5.864   6.982   9.626 -0.2575 -0.1461 -0.7933
 1687TIP3   OH229255   7.020   2.628   9.560 -0.1308  0.3194  0.2713
 1687TIP3    H129256   7.083   2.699   9.553  1.1860 -0.6948  1.2371
 1687TIP3    H229257   7.009   2.596   9.470  0.6374  0.6075  0.0646
 1688TIP3   OH229258   5.655   6.809   0.559  0.2251  0.1206 -0.1871
 1688TIP3    H129259   5.667   6.789   0.652  0.1442  1.1970  0.0657
 1688TIP3    H229260   5.712   6.884   0.544  0.4357 -0.2139 -1.0775
 1689TIP3   OH229261   1.036   6.238   0.041 -0.0853 -0.7184 -0.0567
 1689TIP3    H129262   1.050   6.178  -0.033 -0.0758  1.4810 -1.9509
 1689TIP3    H229263   0.944   6.263   0.033  0.4798  1.2760 -0.7534
 1690TIP3   OH229264   3.167   2.133   7.759  0.0959 -0.5398  0.2575
 1690TIP3    H129265   3.145   2.202   7.821 -0.7616 -0.9857  0.4681
 1690TIP3    H229266   3.259   2.111   7.778 -0.2582 -0.9357  1.6375
 1691TIP3   OH229267   5.774   1.314   8.363 -0.1895 -0.5281  0.2877
 1691TIP3    H129268   5.821   1.322   8.280 -0.2553 -1.5447  0.1418
 1691TIP3    H229269   5.832   1.263   8.419 -1.4978 -2.7171 -0.2360
 1692TIP3   OH229270   3.108   5.678   8.249  0.4332 -0.0493 -0.3328
 1692TIP3    H129271   3.153   5.754   8.211  0.4961  0.1050  0.0512
 1692TIP3    H229272   3.179   5.620   8.278  0.4154  0.7562  1.4173
 1693TIP3   OH229273   4.931   7.380   1.405 -0.5175  0.1501 -0.1386
 1693TIP3    H129274   4.994   7.452   1.398 -1.6567  1.0592 -1.8040
 1693TIP3    H229275   4.920   7.349   1.316 -1.8158 -0.5067  0.2285
 1694TIP3   OH229276   0.484   1.463   2.336  0.0519  0.4512  0.0975
 1694TIP3    H129277   0.485   1.505   2.250  1.6465 -1.6197 -0.9744
 1694TIP3    H229278   0.506   1.534   2.397 -2.0938  2.1803 -1.0060
 1695TIP3   OH229279   4.708   0.272   1.651  0.0675  0.0652 -0.3381
 1695TIP3    H129280   4.692   0.184   1.685  0.2688 -0.3482 -1.2685
 1695TIP3    H229281   4.623   0.302   1.618  0.3274 -0.4830 -1.5662
 1696TIP3   OH229282   4.725   6.598   9.995 -0.1286 -0.4922 -0.3843
 1696TIP3    H129283   4.632   6.583   9.978 -0.3036 -0.1429  0.2253
 1696TIP3    H229284   4.734   6.693  10.000  0.6464 -0.4028 -2.4542
 1697TIP3   OH229285   5.125   1.789   2.236 -0.6512 -0.1954  0.2464
 1697TIP3    H129286   5.131   1.766   2.143 -1.3839  2.3592 -0.5011
 1697TIP3    H229287   5.058   1.857   2.240 -2.0781 -1.5889  2.9619
 1698TIP3   OH229288   7.195   3.858   1.758 -0.2028  0.3227  0.3514
 1698TIP3    H129289   7.167   3.933   1.811 -0.2907  0.5025  0.0492
 1698TIP3    H229290   7.271   3.889   1.709 -0.4987  0.3495 -0.0994
 1699TIP3   OH229291   5.314   6.983   8.383 -0.3762  0.5328  0.5139
 1699TIP3    H129292   5.376   6.930   8.433 -0.2376  0.8312  0.6674
 1699TIP3    H229293   5.232   6.934   8.387  0.0881 -0.3580 -0.5413
 1700TIP3   OH229294   0.379   5.301   7.627  0.7296 -0.2916 -0.0105
 1700TIP3    H129295   0.286   5.308   7.608  0.4116  0.3367  1.6347
 1700TIP3    H229296   0.416   5.254   7.551 -0.5229  1.3794 -1.7445
 1701TIP3   OH229297   4.671   7.665   8.021  0.3553 -0.5362  0.0852
 1701TIP3    H129298   4.708   7.751   8.004  0.0081 -0.1576  1.1689
 1701TIP3    H229299   4.653   7.664   8.115 -1.3150 -1.1165 -0.1922
 1702TIP3   OH229300   3.092   5.011   2.056  0.2915 -0.6211 -0.0190
 1702TIP3    H129301   3.099   5.103   2.082  1.9661 -0.2517 -1.5891
 1702TIP3    H229302   3.182   4.984   2.039 -0.2721 -2.2621 -0.6110
 1703TIP3   OH229303   0.327   1.157   8.719  0.7468  0.1143 -0.6824
 1703TIP3    H129304   0.344   1.065   8.697  2.1376  0.6092 -1.8032
 1703TIP3    H229305   0.384   1.175   8.794  1.2005  0.3236 -1.0763
 1704TIP3   OH229306   4.079   4.473   1.875  0.3784 -0.1456  0.4800
 1704TIP3    H129307   4.165   4.479   1.917 -0.6562  0.0458  2.7661
 1704TIP3    H229308   4.072   4.382   1.848  1.5471 -0.0084 -0.3466
 1705TIP3   OH229309   0.860   1.005   7.794  0.5043  0.0762  0.6782
 1705TIP3    H129310   0.854   1.068   7.722 -0.4782 -1.5719 -0.7662
 1705TIP3    H229311   0.770   0.992   7.822  0.7774 -0.1162  1.5048
 1706TIP3   OH229312   5.939   0.562   7.843 -0.0507 -0.1213  0.0758
 1706TIP3    H129313   5.918   0.481   7.890  2.5761 -0.1064  1.4845
 1706TIP3    H229314   5.991   0.533   7.767 -0.8513  0.1361 -0.5866
 1707TIP3   OH229315   0.809   7.557   1.431 -0.2589 -0.1802  0.5188
 1707TIP3    H129316   0.759   7.479   1.406  0.1909  0.4134 -2.7313
 1707TIP3    H229317   0.897   7.541   1.396 -0.5235  2.2860 -1.5754
 1708TIP3   OH229318   2.030   3.418   6.956  0.0768  0.3499  0.1030
 1708TIP3    H129319   2.009   3.429   7.049  1.1646  0.2769  0.3763
 1708TIP3    H229320   2.111   3.469   6.945  0.0281  0.2400 -0.7706
 1709TIP3   OH229321   0.768   3.310   0.872 -0.5287  0.1580 -0.0773
 1709TIP3    H129322   0.825   3.326   0.797  1.1267 -1.5189  0.7348
 1709TIP3    H229323   0.725   3.227   0.852 -0.7278  0.1295  0.4527
 1710TIP3   OH229324   4.722   4.310   9.650 -0.1454  0.3600  0.1045
 1710TIP3    H129325   4.772   4.325   9.730  1.0527  0.9312 -0.7316
 1710TIP3    H229326   4.725   4.215   9.637  1.5811  0.4576 -0.4469
 1711TIP3   OH229327   3.794   2.913   6.726  0.5226 -0.4855  0.1128
 1711TIP3    H129328   3.861   2.929   6.793  0.9693 -0.9333 -0.2192
 1711TIP3    H229329   3.743   2.994   6.724 -0.5070 -1.0049  2.1177
 1712TIP3   OH229330   3.440   6.806   8.178  0.2605 -0.2823  0.2584
 1712TIP3    H129331   3.439   6.824   8.084 -0.2252  0.9404  0.4844
 1712TIP3    H229332   3.401   6.718   8.185  0.2358 -0.3572 -0.6730
 1713TIP3   OH229333   2.808   6.758   7.989 -0.1224  0.2861  0.5352
 1713TIP3    H129334   2.793   6.760   7.894  1.5184 -0.6325  0.2218
 1713TIP3    H229335   2.862   6.835   8.006  0.5303 -0.1623  0.5268
 1714TIP3   OH229336   1.224   3.958   0.555  0.5524  0.0255  0.2311
 1714TIP3    H129337   1.256   3.932   0.642 -1.3406  1.7659  1.5369
 1714TIP3    H229338   1.157   3.893   0.535  1.0327 -0.4143 -0.0029
 1715TIP3   OH229339   6.549   6.121   9.692  0.1980  0.3961  0.3023
 1715TIP3    H129340   6.490   6.101   9.765  1.7857 -0.3488  1.4419
 1715TIP3    H229341   6.520   6.063   9.621 -0.9909  0.7074  0.5107
 1716TIP3   OH229342   4.579   1.248   9.279 -0.0656  0.0212 -0.5102
 1716TIP3    H129343   4.625   1.167   9.299  1.0497  0.7508 -0.0261
 1716TIP3    H229344   4.518   1.225   9.210  0.3074 -1.2053 -0.4475
 1717TIP3   OH229345   5.841   4.831   9.968 -0.3989  0.4028 -0.3848
 1717TIP3    H129346   5.807   4.875   9.889  0.2249 -1.7702 -1.9558
 1717TIP3    H229347   5.777   4.762   9.986 -0.0961  0.3470  0.5400
 1718TIP3   OH229348   2.160   5.947   7.690  0.2367 -0.0128 -0.1627
 1718TIP3    H129349   2.148   6.015   7.756 -1.4272  1.3626 -1.7711
 1718TIP3    H229350   2.071   5.924   7.662  0.8127 -2.0348 -0.5008
 1719TIP3   OH229351   7.602   6.977   1.591  0.0757  0.3321  0.2718
 1719TIP3    H129352   7.689   6.973   1.553 -0.0848  2.3961 -0.4629
 1719TIP3    H229353   7.605   6.918   1.666  1.6198 -0.7822 -0.6126
 1720TIP3   OH229354   0.297   6.908   0.620 -0.2636  0.4763 -0.2319
 1720TIP3    H129355   0.249   6.844   0.568  0.3698 -0.4561  0.2839
 1720TIP3    H229356   0.386   6.904   0.586 -0.5235  2.2415 -1.2353
 1721TIP3   OH229357   2.779   2.594   9.108 -0.5005  0.0937 -0.1478
 1721TIP3    H129358   2.832   2.561   9.181  1.1009 -0.5149 -1.5161
 1721TIP3    H229359   2.748   2.680   9.138  0.4434  0.0333  1.0918
 1722TIP3   OH229360   2.624   5.337   9.782  0.2217 -0.2205  0.0042
 1722TIP3    H129361   2.688   5.319   9.713  0.4034  1.4844 -0.3060
 1722TIP3    H229362   2.676   5.344   9.862  0.6837  2.5275 -0.4499
 1723TIP3   OH229363   5.973   3.531   8.262 -0.5678 -0.4167  0.3340
 1723TIP3    H129364   6.003   3.608   8.214 -1.7378  1.1109  1.9432
 1723TIP3    H229365   6.045   3.469   8.255  0.8400  1.1971 -0.1401
 1724TIP3   OH229366   7.645   3.745   1.401  0.6920 -0.2715 -0.0839
 1724TIP3    H129367   7.629   3.700   1.483 -3.0316  1.9789  0.6370
 1724TIP3    H229368   7.652   3.675   1.336  2.2245 -2.0204  1.8349
 1725TIP3   OH229369   4.952   5.265   8.001  0.8387 -0.2027 -0.2822
 1725TIP3    H129370   4.990   5.247   7.915  0.0540  1.0597 -0.9237
 1725TIP3    H229371   4.865   5.225   7.997 -0.2647  2.1282 -1.1092
 1726TIP3   OH229372   7.573   4.901   9.035 -0.3031 -0.3455  0.2379
 1726TIP3    H129373   7.515   4.851   8.978 -0.4217  0.0195  0.0398
 1726TIP3    H229374   7.516   4.934   9.105 -0.8436  2.0377 -1.2293
 1727TIP3   OH229375   2.487   6.684   9.932 -0.2721 -0.3716  0.0322
 1727TIP3    H129376   2.488   6.591   9.954  1.5349  0.1860  2.8299
 1727TIP3    H229377   2.549   6.693   9.859 -0.9608 -1.3816 -0.7085
 1728TIP3   OH229378   6.490   7.339   7.862  0.2055  0.2060  0.5786
 1728TIP3    H129379   6.539   7.418   7.887 -1.5772  1.3355  0.7053
 1728TIP3    H229380   6.399   7.369   7.854 -0.7191 -2.0533  1.7116
 1729TIP3   OH229381   5.920   0.937   9.615  0.1574 -0.0589 -0.1218
 1729TIP3    H129382   5.888   0.933   9.705  0.0402 -0.5891 -0.1859
 1729TIP3    H229383   6.014   0.951   9.624  0.3193 -1.1852  0.1022
 1730TIP3   OH229384   0.041   4.125   2.233  0.8224 -0.4694  0.6845
 1730TIP3    H129385  -0.049   4.151   2.254  0.9624  0.1181  0.5768
 1730TIP3    H229386   0.092   4.154   2.309  1.1220  0.4398  0.1555
 1731TIP3   OH229387   6.740   0.905   1.188  0.1829  0.4983  0.2886
 1731TIP3    H129388   6.799   0.866   1.122 -0.4815  0.8340 -0.5186
 1731TIP3    H229389   6.740   0.842   1.260 -0.4316 -0.7528 -0.7580
 1732TIP3   OH229390   3.599   3.474   7.866 -0.1115 -0.4961 -0.1322
 1732TIP3    H129391   3.567   3.546   7.812 -1.1757 -0.8836 -0.0361
 1732TIP3    H229392   3.572   3.395   7.819  0.3211 -0.8366  0.1847
 1733TIP3   OH229393   3.205   4.526   8.379 -0.4737 -0.4383  0.2185
 1733TIP3    H129394   3.241   4.613   8.361  1.7472 -1.3093  0.1921
 1733TIP3    H229395   3.246   4.499   8.461  0.8477 -2.4247 -1.0033
 1734TIP3   OH229396   5.691   6.618   1.378 -0.2178 -0.1982 -0.1999
 1734TIP3    H129397   5.632   6.545   1.396  0.2561 -0.5661 -0.1170
 1734TIP3    H229398   5.736   6.634   1.460 -0.2270  0.1073 -0.2523
 1735TIP3   OH229399   2.550   1.522   8.020 -0.6509  0.1232  0.3574
 1735TIP3    H129400   2.586   1.555   7.937  1.1872 -0.4942  0.8561
 1735TIP3    H229401   2.494   1.593   8.051  0.3949  1.3095 -0.3426
 1736TIP3   OH229402   2.745   0.992   8.615 -0.0693 -0.1756  0.2664
 1736TIP3    H129403   2.769   0.934   8.542  0.4229  1.6852 -1.1312
 1736TIP3    H229404   2.681   1.052   8.578 -0.1900  0.5029  1.5293
 1737TIP3   OH229405   6.226   0.862   1.333  0.0364 -0.2750 -0.2012
 1737TIP3    H129406   6.172   0.940   1.350 -0.3312 -0.7646  1.0147
 1737TIP3    H229407   6.176   0.812   1.268 -0.1315  0.1011 -0.3649
 1738TIP3   OH229408   2.671   0.142   0.127  0.1290  0.6121  0.3878
 1738TIP3    H129409   2.625   0.124   0.209 -0.2160  2.1490  0.5609
 1738TIP3    H229410   2.741   0.077   0.124 -3.0534 -3.1364 -0.8024
 1739TIP3   OH229411   6.108   5.430   0.997 -0.3133  0.6718  0.1952
 1739TIP3    H129412   6.146   5.492   0.936 -1.4606  1.0269 -0.1910
 1739TIP3    H229413   6.115   5.472   1.082 -1.5059  1.5904 -0.1196
 1740TIP3   OH229414   0.464   3.302   7.453 -0.1532 -0.2337 -0.4695
 1740TIP3    H129415   0.437   3.393   7.442  1.1811  0.1639 -0.6565
 1740TIP3    H229416   0.558   3.303   7.437 -0.3016 -1.8614 -1.7211
 1741TIP3   OH229417   4.892   0.124   0.014 -0.6123  1.4582 -0.2877
 1741TIP3    H129418   4.824   0.093   0.075  0.6932 -1.3763 -0.1101
 1741TIP3    H229419   4.851   0.115  -0.072 -1.1358  1.7173 -0.0730
 1742TIP3   OH229420   1.126   1.699   0.042 -0.2100  0.3973 -0.2803
 1742TIP3    H129421   1.137   1.740  -0.044  1.1105 -0.9860 -0.7951
 1742TIP3    H229422   1.204   1.646   0.054 -0.0266  1.0981  2.1101
 1743TIP3   OH229423   0.333   0.368   9.514  0.0761  0.0964 -0.3544
 1743TIP3    H129424   0.414   0.415   9.493 -0.5928  0.5527 -2.1790
 1743TIP3    H229425   0.355   0.313   9.589  1.6075  1.4201  0.2220
 1744TIP3   OH229426   1.637   6.327   2.137  0.1010 -0.0769  0.0857
 1744TIP3    H129427   1.616   6.415   2.168 -2.0930 -0.9071  1.1403
 1744TIP3    H229428   1.727   6.313   2.166  0.1436  1.4190  0.8031
 1745TIP3   OH229429   2.654   7.559   8.031 -0.1049  0.2566 -0.2251
 1745TIP3    H129430   2.645   7.464   8.025  0.6017  0.1539  0.2204
 1745TIP3    H229431   2.748   7.575   8.022 -0.2450  0.9345 -0.5533
 1746TIP3   OH229432   1.097   0.225   1.726 -0.4891  0.1493  0.0350
 1746TIP3    H129433   1.122   0.203   1.637 -0.8271 -0.7964  0.1624
 1746TIP3    H229434   1.023   0.285   1.716 -1.6225 -1.2585 -0.3404
 1747TIP3   OH229435   2.429   5.652   7.221 -0.0840 -0.1252 -0.2105
 1747TIP3    H129436   2.356   5.632   7.162  0.9052  0.0245 -1.5605
 1747TIP3    H229437   2.492   5.699   7.165  0.9194 -0.0265  0.9646
 1748TIP3   OH229438   6.465   3.688   9.785  1.0125 -0.3183  0.4787
 1748TIP3    H129439   6.517   3.693   9.865  0.0669  0.1260  1.0716
 1748TIP3    H229440   6.494   3.606   9.744  0.9892 -0.9257  1.6345
 1749TIP3   OH229441   0.698   2.075   9.741 -0.4305 -0.2268  0.4870
 1749TIP3    H129442   0.725   2.164   9.763 -0.3908 -0.1823  0.2533
 1749TIP3    H229443   0.780   2.030   9.717 -0.5382 -0.1379 -0.0575
 1750TIP3   OH229444   0.134   2.567   8.803 -0.1259 -0.4009 -0.3564
 1750TIP3    H129445   0.213   2.513   8.805 -1.8938 -3.1644  0.9122
 1750TIP3    H229446   0.073   2.522   8.861 -2.9601  1.0834 -1.9702
 1751TIP3   OH229447   1.472   2.829   9.716 -0.0846 -0.3677 -0.1840
 1751TIP3    H129448   1.474   2.821   9.620  0.7217 -1.6286 -0.0898
 1751TIP3    H229449   1.396   2.885   9.734 -0.9331 -1.0443 -1.4919
 1752TIP3   OH229450   5.477   3.644   1.355 -0.0275  0.7689  0.0219
 1752TIP3    H129451   5.525   3.603   1.427  0.5247  1.5436  0.1018
 1752TIP3    H229452   5.386   3.617   1.369  0.3195 -0.4283  0.0585
 1753TIP3   OH229453   3.201   2.679   8.889 -0.3602 -0.1626  0.3581
 1753TIP3    H129454   3.253   2.748   8.847 -0.2040  0.7248  1.9627
 1753TIP3    H229455   3.136   2.654   8.822  0.1222  0.9331 -0.5464
 1754TIP3   OH229456   3.125   4.155   8.769 -0.8089  0.4615 -0.0395
 1754TIP3    H129457   3.215   4.144   8.737 -1.0678  1.6540 -1.2540
 1754TIP3    H229458   3.072   4.106   8.707 -0.9989 -0.4007  0.7883
 1755TIP3   OH229459   4.698   7.176   9.821 -0.0804 -0.3492  0.0903
 1755TIP3    H129460   4.692   7.239   9.893 -1.4767  0.2092 -0.4576
 1755TIP3    H229461   4.790   7.173   9.798  0.2056  0.4097  1.0851
 1756TIP3   OH229462   3.498   4.536   9.228 -0.4822  0.0108  0.1293
 1756TIP3    H129463   3.580   4.510   9.268 -0.1335 -0.4091 -0.8095
 1756TIP3    H229464   3.517   4.619   9.185 -1.5672  1.8771  3.0291
 1757TIP3   OH229465   1.618   4.367   2.592 -0.1910 -0.3661  0.1223
 1757TIP3    H129466   1.596   4.303   2.660  0.1238  0.0806  0.6634
 1757TIP3    H229467   1.713   4.372   2.594 -0.1195 -1.1318 -1.1021
 1758TIP3   OH229468   4.008   1.246   7.933  0.0788 -0.2213  0.0265
 1758TIP3    H129469   3.953   1.254   7.855 -0.4404 -0.4692  0.3646
 1758TIP3    H229470   4.097   1.262   7.901  0.0324 -1.5362 -0.8596
 1759TIP3   OH229471   3.633   6.238   9.717 -0.0628 -0.5799 -0.1151
 1759TIP3    H129472   3.665   6.325   9.743  1.3584 -1.3933  1.0660
 1759TIP3    H229473   3.552   6.226   9.767 -0.5990  0.3023 -0.7605
 1760TIP3   OH229474   4.327   1.275   9.984 -0.4901 -0.6841  0.0370
 1760TIP3    H129475   4.373   1.229  10.054 -0.3761 -0.9905 -0.2333
 1760TIP3    H229476   4.297   1.205   9.926  0.0299 -0.3928 -0.5941
 1761TIP3   OH229477   2.437   4.659   8.940 -0.0909  0.1264 -0.5974
 1761TIP3    H129478   2.531   4.644   8.931  0.0937  1.6111 -1.3798
 1761TIP3    H229479   2.429   4.752   8.964 -1.3118 -0.2737  0.7311
 1762TIP3   OH229480   5.079   4.228   1.436 -0.3501 -0.9874 -0.0372
 1762TIP3    H129481   4.986   4.207   1.443 -0.7547  0.6350 -0.2942
 1762TIP3    H229482   5.086   4.280   1.356  0.2859  1.3595  1.4524
 1763TIP3   OH229483   7.535   0.512   1.540  0.3513  0.3516  0.6299
 1763TIP3    H129484   7.477   0.586   1.556  1.4249  0.9892  1.7531
 1763TIP3    H229485   7.478   0.445   1.502 -0.2847  2.3838 -2.3181
 1764TIP3   OH229486   5.549   3.836   8.315  0.5927  0.1876 -0.3837
 1764TIP3    H129487   5.485   3.908   8.316 -1.9421 -1.9168  0.8311
 1764TIP3    H229488   5.603   3.853   8.238 -0.1804  3.1211 -0.4064
 1765TIP3   OH229489   1.236   6.031   7.228 -0.0451 -0.2399 -0.0210
 1765TIP3    H129490   1.251   5.996   7.316 -1.2161 -0.9285 -0.0734
 1765TIP3    H229491   1.244   5.955   7.170 -1.3402 -0.1919 -0.2779
 1766TIP3   OH229492   4.100   5.633   9.419 -0.5284  0.4742  0.1917
 1766TIP3    H129493   4.119   5.646   9.512  0.1809 -1.0526  0.2903
 1766TIP3    H229494   4.040   5.704   9.397  0.7674  1.9947  1.3284
 1767TIP3   OH229495   1.449   1.162   8.702  0.0615 -0.1813  0.3683
 1767TIP3    H129496   1.368   1.177   8.750 -0.2452 -0.0466 -0.1852
 1767TIP3    H229497   1.474   1.249   8.669 -0.6119 -0.5033 -1.0902
 1768TIP3   OH229498   4.824   7.557   0.563 -0.6457 -0.2523 -0.2200
 1768TIP3    H129499   4.822   7.510   0.647 -0.5629  1.5658  0.8517
 1768TIP3    H229500   4.914   7.544   0.531 -0.3538 -0.0773  0.5063
 1769TIP3   OH229501   0.229   4.810   0.498  0.1975  0.4050  0.3037
 1769TIP3    H129502   0.215   4.896   0.456  0.2135  0.9906  1.4584
 1769TIP3    H229503   0.255   4.831   0.588  0.4414 -0.8171  0.5360
 1770TIP3   OH229504   6.646   1.332   1.481 -0.1922 -0.4732 -0.2048
 1770TIP3    H129505   6.692   1.356   1.561  0.2308  0.3819 -0.6899
 1770TIP3    H229506   6.581   1.266   1.509  0.3818 -0.6637  0.7136
 1771TIP3   OH229507   2.504   4.864   8.654  0.7200 -0.0484  0.0200
 1771TIP3    H129508   2.491   4.792   8.594  0.3039  0.2656 -0.2675
 1771TIP3    H229509   2.425   4.866   8.708 -0.2745  1.5397 -1.3954
 1772TIP3   OH229510   5.604   3.467   1.537 -0.1034  0.9533  0.8423
 1772TIP3    H129511   5.595   3.510   1.622  0.9703  0.9986  0.9429
 1772TIP3    H229512   5.686   3.500   1.502  0.0262  0.0683  0.2853
 1773TIP3   OH229513   6.327   6.319   1.484  0.2065  0.0071  0.4337
 1773TIP3    H129514   6.276   6.380   1.537  1.0227  1.4642 -0.3824
 1773TIP3    H229515   6.404   6.299   1.538  0.0205 -0.1503  0.6385
 1774TIP3   OH229516   1.755   0.320   2.284 -0.0809 -0.1631  0.7401
 1774TIP3    H129517   1.758   0.260   2.359  0.8353  0.1827  0.9972
 1774TIP3    H229518   1.742   0.406   2.322  0.7577  0.0626  0.5451
 1775TIP3   OH229519   1.576   6.847   0.404  0.6443 -1.0656  0.3256
 1775TIP3    H129520   1.499   6.813   0.358  0.5911 -0.6385  0.0913
 1775TIP3    H229521   1.573   6.807   0.490 -0.7948  0.2427  0.9345
 1776TIP3   OH229522   5.279   6.219   1.924 -0.0219 -0.1293  0.3946
 1776TIP3    H129523   5.299   6.310   1.947 -0.2687  0.3629 -1.2286
 1776TIP3    H229524   5.363   6.175   1.927  0.1142  0.1570  1.1061
 1777TIP3   OH229525   1.077   5.803   6.755  0.3598 -0.1150  0.1971
 1777TIP3    H129526   1.128   5.865   6.806  0.3743 -0.2493  0.3449
 1777TIP3    H229527   1.128   5.722   6.756  0.4653 -0.0531 -0.2125
 1778TIP3   OH229528   0.714   3.384   2.171  0.1649 -0.2239 -0.2618
 1778TIP3    H129529   0.745   3.312   2.115 -1.1253 -0.9203 -0.1178
 1778TIP3    H229530   0.635   3.415   2.127  1.0605  1.6088 -0.7000
 1779TIP3   OH229531   7.574   6.871   9.526 -0.1966  0.0604 -0.0987
 1779TIP3    H129532   7.595   6.902   9.614 -0.3271 -0.3734  0.0887
 1779TIP3    H229533   7.567   6.776   9.535 -0.1931  0.0122 -0.5823
 1780TIP3   OH229534   3.425   3.103   8.994  0.1399 -0.1135 -0.1460
 1780TIP3    H129535   3.341   3.087   8.952  0.0344 -0.2285  0.1109
 1780TIP3    H229536   3.405   3.161   9.067  0.0340 -1.4019  0.8854
 1781TIP3   OH229537   2.950   6.039   7.143 -0.0752  0.1500 -0.5276
 1781TIP3    H129538   2.943   6.038   7.047  0.0815 -0.8893 -0.5400
 1781TIP3    H229539   3.025   5.983   7.162  0.5096  1.1444  0.1718
 1782TIP3   OH229540   2.420   3.082   0.166  0.0987  0.3351  0.2156
 1782TIP3    H129541   2.453   3.080   0.077  1.8135  2.0591  0.7355
 1782TIP3    H229542   2.333   3.121   0.159 -0.0892 -0.2338 -0.7553
 1783TIP3   OH229543   6.630   4.122   8.189  1.5309 -0.0117  0.4598
 1783TIP3    H129544   6.612   4.213   8.165 -1.9205 -0.8239 -0.5730
 1783TIP3    H229545   6.632   4.123   8.285 -0.1818  0.9495  0.5230
 1784TIP3   OH229546   5.180   4.220   9.801 -0.0542  0.0851 -0.3546
 1784TIP3    H129547   5.120   4.264   9.860 -0.7141  0.8829 -1.5814
 1784TIP3    H229548   5.250   4.283   9.786  0.8248 -0.6294  0.6263
 1785TIP3   OH229549   7.577   5.936   7.360 -0.9717 -0.1074  0.4633
 1785TIP3    H129550   7.516   5.916   7.432 -0.0764  0.9345  1.5415
 1785TIP3    H229551   7.523   5.983   7.296 -1.8554 -1.3299  0.2698
 1786TIP3   OH229552   0.280   0.978   0.090 -0.3333  0.2304 -0.3936
 1786TIP3    H129553   0.339   0.908   0.066 -0.6862 -0.1720 -0.0961
 1786TIP3    H229554   0.308   1.005   0.177 -2.2307 -1.7885  0.9341
 1787TIP3   OH229555   2.327   6.869   2.223 -0.4737 -0.1041 -0.4898
 1787TIP3    H129556   2.277   6.904   2.297 -1.1204 -1.3454 -0.3160
 1787TIP3    H229557   2.262   6.851   2.156 -0.1263 -0.7102 -0.6758
 1788TIP3   OH229558   1.224   4.088   8.137 -0.1185 -0.2330  0.3090
 1788TIP3    H129559   1.307   4.041   8.150 -0.1275 -0.3665 -0.0993
 1788TIP3    H229560   1.191   4.102   8.225 -0.0750 -0.9228  0.4437
 1789TIP3   OH229561   3.020   4.887   8.413 -0.2824  0.2525  0.9837
 1789TIP3    H129562   3.025   4.983   8.422 -0.8159  0.1838  2.1070
 1789TIP3    H229563   3.001   4.856   8.501 -0.8425 -0.8486  0.4799
 1790TIP3   OH229564   0.184   1.185   1.573 -0.2683  0.1201 -0.2893
 1790TIP3    H129565   0.275   1.215   1.568 -0.2171 -0.1415 -1.0035
 1790TIP3    H229566   0.138   1.233   1.504 -0.4490 -0.4867 -0.6069
 1791TIP3   OH229567   3.755   1.933   8.229 -0.1136  0.1022 -0.4052
 1791TIP3    H129568   3.722   1.845   8.249  0.2606  0.7759  4.3855
 1791TIP3    H229569   3.680   1.979   8.191 -0.8942 -1.6746 -1.1388
 1792TIP3   OH229570   4.273   6.740   9.390 -0.2863  0.1486 -0.1016
 1792TIP3    H129571   4.202   6.680   9.370  0.0840 -0.0154 -0.9939
 1792TIP3    H229572   4.353   6.688   9.379 -0.0425 -0.1894  2.6907
 1793TIP3   OH229573   2.248   5.241   7.617 -0.0705  0.1271  0.4477
 1793TIP3    H129574   2.277   5.232   7.526 -1.8685 -1.3205 -0.0485
 1793TIP3    H229575   2.223   5.152   7.643  0.3935  0.5014  2.3823
 1794TIP3   OH229576   7.461   3.747   0.722  0.5907 -0.0371  0.0877
 1794TIP3    H129577   7.423   3.797   0.795 -1.6240 -1.7096  0.1798
 1794TIP3    H229578   7.504   3.672   0.764 -0.8458 -1.1027 -0.2634
 1795TIP3   OH229579   1.832   3.472   8.760 -0.0711 -0.3733  0.1414
 1795TIP3    H129580   1.848   3.566   8.755  2.2767 -0.7683 -1.0789
 1795TIP3    H229581   1.853   3.450   8.851  0.0076  0.1817  0.2652
 1796TIP3   OH229582   7.471   0.541   0.362  0.3327  0.1814 -0.1093
 1796TIP3    H129583   7.508   0.581   0.441  0.7329  0.4504 -0.4274
 1796TIP3    H229584   7.471   0.447   0.381  1.4464  0.1483 -0.2000
 1797TIP3   OH229585   7.496   6.688   8.512 -0.3282 -0.1742 -0.1831
 1797TIP3    H129586   7.452   6.693   8.597 -0.3510 -2.1394 -0.0377
 1797TIP3    H229587   7.527   6.777   8.496 -1.2359  0.4661  1.3872
 1798TIP3   OH229588   6.991   2.838   1.526 -0.5962  0.7743 -0.5454
 1798TIP3    H129589   7.049   2.819   1.452  2.0931  1.7544  1.1877
 1798TIP3    H229590   6.946   2.919   1.501  2.1290  2.5059 -0.2394
 1799TIP3   OH229591   4.251   7.623   2.343 -0.4797 -0.0613  0.1533
 1799TIP3    H129592   4.189   7.627   2.270  1.4256  2.7735 -1.5172
 1799TIP3    H229593   4.227   7.696   2.400 -0.4026 -0.6986  1.0275
 1800TIP3   OH229594   4.700   5.005   8.041  0.0953  0.4145 -0.3299
 1800TIP3    H129595   4.685   4.945   8.115  1.5133  1.0164  0.4868
 1800TIP3    H229596   4.647   4.969   7.970  0.9239 -1.8335  0.1172
 1801TIP3   OH229597   5.723   3.949   7.420  0.3960 -0.4722  0.3164
 1801TIP3    H129598   5.752   4.037   7.441  0.3651 -0.2022 -0.7262
 1801TIP3    H229599   5.802   3.904   7.389  0.0447 -0.1929 -1.0686
 1802TIP3   OH229600   3.876   0.886   1.878  0.2678 -0.0065  0.1996
 1802TIP3    H129601   3.899   0.794   1.870  2.0038  0.4310 -0.3132
 1802TIP3    H229602   3.856   0.898   1.971 -2.1129 -1.2936 -0.0526
 1803TIP3   OH229603   1.793   2.447   2.418 -0.4379 -0.3726 -0.1737
 1803TIP3    H129604   1.799   2.540   2.397 -0.1277 -0.7760 -1.9926
 1803TIP3    H229605   1.721   2.442   2.481 -2.3390  0.8084 -2.0973
 1804TIP3   OH229606   5.553   7.522   9.420 -0.0056 -0.0666  0.5832
 1804TIP3    H129607   5.552   7.439   9.468  0.8595 -0.2761  0.2599
 1804TIP3    H229608   5.642   7.556   9.434  0.1977 -0.0305 -0.6849
 1805TIP3   OH229609   7.215   3.428   1.849 -0.4488 -0.1291 -0.0733
 1805TIP3    H129610   7.227   3.417   1.755 -1.7499  0.1490 -0.2869
 1805TIP3    H229611   7.235   3.343   1.887  0.2355 -0.1982 -0.5760
 1806TIP3   OH229612   5.726   5.824   8.982 -0.0352  0.7315  0.5356
 1806TIP3    H129613   5.682   5.900   8.944  2.5214  1.6696 -0.7460
 1806TIP3    H229614   5.668   5.750   8.962 -1.7428  2.0543  0.3043
 1807TIP3   OH229615   1.396   0.178   9.546 -0.2875 -0.1258 -0.4628
 1807TIP3    H129616   1.347   0.226   9.479 -0.2623  0.4408 -0.0798
 1807TIP3    H229617   1.440   0.108   9.498  0.4914  0.8458 -1.1864
 1808TIP3   OH229618   5.905   3.671   9.614 -0.0979  0.1606  0.3322
 1808TIP3    H129619   5.897   3.646   9.522 -0.5243  3.0487 -0.4884
 1808TIP3    H229620   6.000   3.667   9.631  0.0641  0.3909 -0.4734
 1809TIP3   OH229621   3.954   4.561   0.852 -0.0221 -0.2528  0.1504
 1809TIP3    H129622   3.986   4.645   0.820  1.5701 -1.1016 -0.6185
 1809TIP3    H229623   4.015   4.537   0.922  1.0444 -1.8647 -1.2748
 1810TIP3   OH229624   5.400   4.287   1.157 -0.2023  0.0695 -0.1758
 1810TIP3    H129625   5.445   4.361   1.198 -1.9495  2.1256 -1.7247
 1810TIP3    H229626   5.437   4.283   1.069 -0.9086 -0.1497 -0.4717
 1811TIP3   OH229627   1.294   5.278   7.729  0.0015  0.1816 -0.0024
 1811TIP3    H129628   1.245   5.205   7.691  1.2954  0.1951 -1.7996
 1811TIP3    H229629   1.322   5.246   7.815 -0.2890 -1.0779 -0.3562
 1812TIP3   OH229630   7.121   1.869   1.496 -0.0397  0.2524  0.7121
 1812TIP3    H129631   7.129   1.962   1.475 -1.6900  0.0725 -1.0821
 1812TIP3    H229632   7.027   1.852   1.491  0.1989 -1.4563  1.3528
 1813TIP3   OH229633   4.475   7.509   7.637  0.1237  0.0157 -0.3324
 1813TIP3    H129634   4.407   7.554   7.587 -2.4492 -0.6201  2.3100
 1813TIP3    H229635   4.468   7.418   7.611 -0.0825 -0.0615 -0.0070
 1814TIP3   OH229636   0.575   2.328   1.573  0.3684  0.3190  0.0838
 1814TIP3    H129637   0.660   2.355   1.607  0.7298 -0.2524 -0.3459
 1814TIP3    H229638   0.522   2.312   1.650  0.9078 -0.1131  0.3702
 1815TIP3   OH229639   4.024   7.643   1.477  0.1825 -0.2938  0.2174
 1815TIP3    H129640   4.000   7.695   1.554  3.8824  0.2473  1.2065
 1815TIP3    H229641   3.980   7.559   1.490 -1.0168  0.5250  1.7666
 1816TIP3   OH229642   1.618   6.041   1.382  0.3096  0.5082 -0.3452
 1816TIP3    H129643   1.694   6.009   1.431 -0.8249  0.4156  1.4827
 1816TIP3    H229644   1.563   6.081   1.449 -1.0723  0.9295 -1.6849
 1817TIP3   OH229645   7.354   1.728   2.155 -0.3503 -0.3053  0.4621
 1817TIP3    H129646   7.310   1.678   2.224 -1.2007 -1.4588 -0.8755
 1817TIP3    H229647   7.314   1.698   2.074 -0.1463  1.8152 -0.4865
 1818TIP3   OH229648   7.621   3.466   1.610  0.6118  0.0931 -0.1403
 1818TIP3    H129649   7.644   3.396   1.671 -1.0944  0.9281  1.5494
 1818TIP3    H229650   7.537   3.440   1.573  0.0310  1.1516  0.3876
 1819TIP3   OH229651   0.939   2.568   1.468 -0.0219  0.6161 -0.3438
 1819TIP3    H129652   0.875   2.599   1.532  0.1282 -2.5238  1.5472
 1819TIP3    H229653   1.024   2.575   1.512  0.5313  1.4318 -1.4803
 1820TIP3   OH229654   3.863   6.198   8.104 -0.0765 -0.1378 -0.1138
 1820TIP3    H129655   3.773   6.198   8.072 -0.1937 -0.9504  0.2059
 1820TIP3    H229656   3.860   6.250   8.185 -0.3771 -0.6248  0.1956
 1821TIP3   OH229657   2.714   3.697   0.001 -0.4975 -0.4030  0.5492
 1821TIP3    H129658   2.772   3.658  -0.066 -0.9667  0.4460 -0.3781
 1821TIP3    H229659   2.628   3.662  -0.019 -0.7316  0.2638  0.3788
 1822TIP3   OH229660   3.421   2.453   7.818  0.6499  0.0185  0.5738
 1822TIP3    H129661   3.470   2.407   7.886  1.7680  1.4996  0.8336
 1822TIP3    H229662   3.334   2.465   7.854  0.8908 -0.2685  1.2566
 1823TIP3   OH229663   0.841   0.007   8.376  0.2731  0.0884 -0.1444
 1823TIP3    H129664   0.925   0.032   8.339 -0.2414  2.0665 -0.0853
 1823TIP3    H229665   0.861  -0.021   8.466  0.8462  0.6978 -0.0807
 1824TIP3   OH229666   2.946   7.122   9.169 -0.3193 -0.5775 -0.9488
 1824TIP3    H129667   2.881   7.097   9.234 -1.6088 -0.8938 -2.2885
 1824TIP3    H229668   2.981   7.205   9.201 -1.1867 -0.5445 -0.0379
 1825TIP3   OH229669   7.083   2.708   9.853  0.0551 -0.2467  0.1551
 1825TIP3    H129670   7.066   2.621   9.818 -0.5046 -0.8112  1.7466
 1825TIP3    H229671   7.000   2.736   9.891 -0.0252  1.3941 -1.0865
 1826TIP3   OH229672   2.051   0.069   1.173  0.1324 -0.4810 -0.3076
 1826TIP3    H129673   1.993  -0.006   1.166  1.0320 -1.0299 -2.7274
 1826TIP3    H229674   2.128   0.036   1.219 -1.1232  0.1268  2.4614
 1827TIP3   OH229675   6.645   6.891   0.817 -0.8893  0.5911 -0.1447
 1827TIP3    H129676   6.672   6.944   0.742 -0.2061 -0.7754 -0.9089
 1827TIP3    H229677   6.559   6.857   0.792 -0.4874 -0.1856 -0.4974
 1828TIP3   OH229678   6.371   0.602   0.301  0.0302 -0.3064 -0.0295
 1828TIP3    H129679   6.422   0.670   0.258 -1.6301 -0.5027 -2.5345
 1828TIP3    H229680   6.436   0.539   0.332  1.4908  1.5610  0.8720
 1829TIP3   OH229681   3.169   5.750   0.493 -0.4284  0.1208 -0.3493
 1829TIP3    H129682   3.101   5.693   0.457  0.0081  0.5799 -1.9628
 1829TIP3    H229683   3.242   5.743   0.431  0.7248  0.2343  0.9417
 1830TIP3   OH229684   2.706   3.674   8.565  0.4200  0.4547  0.3313
 1830TIP3    H129685   2.637   3.654   8.628 -1.2431  1.0853 -1.1848
 1830TIP3    H229686   2.786   3.644   8.606 -1.0748 -3.1488  0.9679
 1831TIP3   OH229687   2.432   5.824   0.457  0.3543  0.9634  0.0013
 1831TIP3    H129688   2.477   5.799   0.376  0.3534  0.4674  0.1511
 1831TIP3    H229689   2.347   5.858   0.427  0.0844  0.1516 -0.1647
 1832TIP3   OH229690   5.196   0.971   2.082 -0.2982  0.2751  0.0566
 1832TIP3    H129691   5.254   0.947   2.154  0.4379  0.7719 -0.3567
 1832TIP3    H229692   5.153   1.051   2.111 -0.9002 -0.1754  0.4251
 1833TIP3   OH229693   3.411   5.646   9.716  0.1688  0.7610 -0.4164
 1833TIP3    H129694   3.412   5.620   9.808  1.8660 -0.0927 -0.6296
 1833TIP3    H229695   3.332   5.606   9.680  0.7366 -0.9613  0.1626
 1834TIP3   OH229696   6.655   3.169   8.433  0.0770 -0.1849 -0.7398
 1834TIP3    H129697   6.750   3.167   8.441  0.1827  1.5195 -1.2428
 1834TIP3    H229698   6.632   3.262   8.438 -1.7299 -0.6401  1.0027
 1835TIP3   OH229699   5.069   7.026   9.543 -0.7830 -0.0512 -0.1384
 1835TIP3    H129700   5.050   6.932   9.541 -1.9431  0.1609  0.3776
 1835TIP3    H229701   5.028   7.057   9.624 -1.4621  1.1194 -0.9106
 1836TIP3   OH229702   2.857   7.665   8.359  0.2497 -0.3311 -0.0259
 1836TIP3    H129703   2.784   7.698   8.307  0.1261  0.0918  0.4148
 1836TIP3    H229704   2.830   7.677   8.450  1.6258  1.5597  0.1907
 1837TIP3   OH229705   5.185   0.633   9.174  0.3089 -0.0059  0.0862
 1837TIP3    H129706   5.132   0.554   9.172  0.1516  0.1154 -0.5415
 1837TIP3    H229707   5.272   0.602   9.201  0.4953 -0.5397 -1.0735
 1838TIP3   OH229708   7.007   6.094   2.353 -1.3388  0.0476  0.6964
 1838TIP3    H129709   6.932   6.044   2.320 -0.2283  0.9308 -3.8717
 1838TIP3    H229710   7.073   6.027   2.372 -0.6980 -0.6136 -3.0356
 1839TIP3   OH229711   5.877   4.380   1.301  0.0009 -0.1156  0.0193
 1839TIP3    H129712   5.907   4.389   1.391  0.2874  0.9374 -0.1612
 1839TIP3    H229713   5.852   4.288   1.292  2.7262 -0.9490  0.3024
 1840TIP3   OH229714   4.634   5.537   7.600  0.0539 -0.5170  0.1783
 1840TIP3    H129715   4.576   5.541   7.676 -0.4059 -1.1628 -0.1385
 1840TIP3    H229716   4.631   5.446   7.571 -2.2499  0.2558 -2.5090
 1841TIP3   OH229717   4.485   1.244   1.890  0.0011 -0.9552 -0.5908
 1841TIP3    H129718   4.459   1.275   1.977 -1.2196  0.4849 -1.4067
 1841TIP3    H229719   4.434   1.164   1.876 -1.0093 -0.3410 -0.5613
 1842TIP3   OH229720   3.547   6.256   8.043 -0.1866 -0.2968 -0.0124
 1842TIP3    H129721   3.499   6.208   8.111 -0.8662 -2.0052 -1.5917
 1842TIP3    H229722   3.492   6.333   8.026 -0.1058  0.0531  1.2004
 1843TIP3   OH229723   4.821   6.113   9.933 -0.4924 -0.4750  0.4338
 1843TIP3    H129724   4.818   6.054  10.008 -0.8101  1.5328  2.1160
 1843TIP3    H229725   4.730   6.142   9.922 -0.5807 -1.2912 -1.2375
 1844TIP3   OH229726   5.434   1.684   1.332 -0.1730  0.1105  0.3034
 1844TIP3    H129727   5.506   1.732   1.373 -1.0434  0.4553  1.4800
 1844TIP3    H229728   5.421   1.608   1.389  0.0510 -0.5910 -0.5769
 1845TIP3   OH229729   3.945   4.412   1.190  0.0770  0.6119  0.0796
 1845TIP3    H129730   3.905   4.498   1.180 -0.0348  0.5068 -0.3872
 1845TIP3    H229731   3.874   4.350   1.173  0.3836  0.4261 -0.5386
 1846TIP3   OH229732   3.429   3.685   8.357 -0.0441 -0.2757 -0.2626
 1846TIP3    H129733   3.429   3.622   8.285 -1.0974 -1.1675  0.4787
 1846TIP3    H229734   3.409   3.769   8.316 -0.0396 -0.6738 -1.0817
 1847TIP3   OH229735   3.691   7.535   7.847 -0.1135 -0.2456 -0.1588
 1847TIP3    H129736   3.676   7.448   7.884  0.1268  0.1082  0.7820
 1847TIP3    H229737   3.784   7.536   7.823 -0.0671 -0.1782  0.0226
 1848TIP3   OH229738   3.860   5.876   0.510 -0.6152  0.2198 -0.6426
 1848TIP3    H129739   3.855   5.967   0.541  0.5163 -0.0647  0.4606
 1848TIP3    H229740   3.835   5.824   0.587 -0.0385 -0.4405 -0.8991
 1849TIP3   OH229741   6.281   5.967   8.882  0.3152  0.1138  0.1520
 1849TIP3    H129742   6.286   5.949   8.976  0.5186  0.6092  0.2396
 1849TIP3    H229743   6.196   6.008   8.869  0.4202  0.3406  0.1736
 1850TIP3   OH229744   3.837   3.169   1.035 -0.4630  0.0540 -0.0596
 1850TIP3    H129745   3.867   3.234   1.098  0.3149 -0.6464  0.3139
 1850TIP3    H229746   3.755   3.204   1.001 -0.1015  1.1792  0.1940
 1851TIP3   OH229747   6.176   5.369   9.432 -0.0641 -0.1233 -0.3418
 1851TIP3    H129748   6.117   5.301   9.399  0.6352 -0.2599 -1.3646
 1851TIP3    H229749   6.261   5.326   9.438  0.5302  0.8113 -1.6257
 1852TIP3   OH229750   5.088   7.070   1.599 -0.2967  0.3057 -0.2784
 1852TIP3    H129751   5.154   7.133   1.631 -1.0204  0.6505  0.5845
 1852TIP3    H229752   5.094   6.996   1.659 -0.4352  0.1776 -0.4215
 1853TIP3   OH229753   3.948   5.338   2.805 -0.0508 -0.7645 -0.1658
 1853TIP3    H129754   3.854   5.354   2.792 -0.1057 -0.2721  0.7537
 1853TIP3    H229755   3.957   5.243   2.796 -0.9820 -1.0680  1.6145
 1854TIP3   OH229756   3.510   2.972   1.687 -0.2360  0.0280  0.2080
 1854TIP3    H129757   3.543   2.925   1.610 -0.1312 -1.6399  1.2357
 1854TIP3    H229758   3.428   3.011   1.657  0.5974  0.8107 -1.2089
 1855TIP3   OH229759   3.380   7.034   8.442  0.2309 -0.4629  0.7345
 1855TIP3    H129760   3.461   6.984   8.447 -0.2295 -1.1735  1.5170
 1855TIP3    H229761   3.312   6.972   8.472 -0.5375  0.2327  0.4718
 1856TIP3   OH229762   4.050   2.630   0.584 -0.3128  0.1793 -0.3449
 1856TIP3    H129763   4.023   2.538   0.581 -2.0003  0.5637  1.4910
 1856TIP3    H229764   4.009   2.665   0.663  1.2343  2.2405 -0.3729
 1857TIP3   OH229765   0.808   4.872   2.175  0.4142  0.0977  0.1715
 1857TIP3    H129766   0.779   4.843   2.089 -0.9857  0.8634  0.3599
 1857TIP3    H229767   0.728   4.872   2.228  1.2109 -0.1156  1.3967
 1858TIP3   OH229768   0.765   0.467   8.070 -0.0391 -0.5447  0.8190
 1858TIP3    H129769   0.798   0.478   8.159  0.9529  1.3440  0.2672
 1858TIP3    H229770   0.823   0.521   8.016 -0.9485 -1.2143 -0.9090
 1859TIP3   OH229771   4.849   1.468   8.418 -0.3429  0.2040  0.1942
 1859TIP3    H129772   4.807   1.385   8.440 -0.8148  0.6019  0.8393
 1859TIP3    H229773   4.790   1.534   8.452 -0.2739  0.8254 -0.8645
 1860TIP3   OH229774   3.674   7.224   8.989 -0.2455  0.0345 -0.2334
 1860TIP3    H129775   3.637   7.230   8.901 -1.5982  0.6706  0.3374
 1860TIP3    H229776   3.624   7.153   9.031  0.1106  0.0074  0.1532
 1861TIP3   OH229777   1.625   5.951   1.132 -0.2622  0.7104  0.3362
 1861TIP3    H129778   1.615   5.998   1.214  0.6300  1.1206  0.2167
 1861TIP3    H229779   1.571   5.872   1.142 -1.3549  1.4969  0.7323
 1862TIP3   OH229780   5.239   1.197   1.372  0.1341 -0.0948  0.8065
 1862TIP3    H129781   5.298   1.209   1.298  0.7629  0.7985  1.4328
 1862TIP3    H229782   5.194   1.281   1.381  0.0811 -0.1888  1.4466
 1863TIP3   OH229783   1.201   6.774   1.327  0.0193  0.0640  0.1696
 1863TIP3    H129784   1.152   6.837   1.274 -0.1598  0.6521  1.0085
 1863TIP3    H229785   1.176   6.794   1.417  2.0451  0.6286  0.6705
 1864TIP3   OH229786   0.902   0.212   8.645 -0.4501  0.0049 -0.2046
 1864TIP3    H129787   0.937   0.204   8.556 -0.8652 -0.8254 -0.3063
 1864TIP3    H229788   0.957   0.278   8.687  1.8861 -1.9338 -0.0248
 1865TIP3   OH229789   4.156   3.301   8.136 -0.1775 -0.0444  0.0549
 1865TIP3    H129790   4.171   3.339   8.222 -0.0482  0.7504 -0.3070
 1865TIP3    H229791   4.236   3.252   8.117  0.5261  1.2075 -0.3368
 1866TIP3   OH229792   3.138   2.868   9.084 -0.0183 -0.1868 -0.2609
 1866TIP3    H129793   3.130   2.791   9.028  0.2697 -0.4528  0.0671
 1866TIP3    H229794   3.231   2.876   9.102 -0.2088 -0.7272  1.0539
 1867TIP3   OH229795   3.692   5.075   2.133 -0.3568 -0.4548  0.2237
 1867TIP3    H129796   3.780   5.052   2.162 -0.1229  0.8217  0.5700
 1867TIP3    H229797   3.698   5.167   2.106 -1.4235 -0.5448 -0.4003
 1868TIP3   OH229798   1.511   2.220   2.279  0.0501 -0.0120 -0.0621
 1868TIP3    H129799   1.524   2.314   2.266 -0.0177  0.0128  0.0521
 1868TIP3    H229800   1.456   2.213   2.357  0.2917 -0.1552  0.0973
 1869TIP3   OH229801   3.953   7.009   7.590  0.2735  0.1487 -0.4975
 1869TIP3    H129802   3.880   7.057   7.630  0.7017 -0.5772  1.2790
 1869TIP3    H229803   3.930   6.917   7.602  0.3385 -0.1075 -2.1732
 1870TIP3   OH229804   1.510   3.385   8.331  0.0901 -0.3848  0.0751
 1870TIP3    H129805   1.519   3.295   8.363  1.5104 -1.1491 -2.2485
 1870TIP3    H229806   1.424   3.386   8.289 -0.1067 -0.4944  0.4596
 1871TIP3   OH229807   7.653   4.543   1.628  0.4604 -0.1434  0.3621
 1871TIP3    H129808   7.673   4.521   1.719  1.5341 -0.9808 -0.0563
 1871TIP3    H229809   7.738   4.564   1.589 -0.0005  0.2801 -0.4348
 1872TIP3   OH229810   6.357   7.497   1.320 -0.0778  0.1728 -0.0774
 1872TIP3    H129811   6.363   7.443   1.241 -1.8565 -0.2935  0.0463
 1872TIP3    H229812   6.336   7.434   1.390 -0.8401  0.8421  0.3112
 1873TIP3   OH229813   1.531   1.554   0.430 -0.5224 -0.0128  0.1448
 1873TIP3    H129814   1.533   1.630   0.372 -0.9553  0.0506  0.2151
 1873TIP3    H229815   1.527   1.592   0.518 -0.8473 -0.1202  0.1752
 1874TIP3   OH229816   7.354   2.863   1.055  0.0200  0.3806  0.4922
 1874TIP3    H129817   7.386   2.773   1.054 -0.0924  0.3255  1.4912
 1874TIP3    H229818   7.293   2.866   1.128 -0.4644  1.1064  0.0674
 1875TIP3   OH229819   2.542   6.240   0.612  0.6735  0.2564  0.6189
 1875TIP3    H129820   2.570   6.291   0.688  2.7769  0.5183 -0.2548
 1875TIP3    H229821   2.610   6.257   0.546 -0.4688 -0.8832 -0.9164
 1876TIP3   OH229822   4.612   7.281   0.712  0.4581  0.5302 -0.0637
 1876TIP3    H129823   4.572   7.267   0.798  0.7330 -0.7666 -0.1260
 1876TIP3    H229824   4.684   7.341   0.729 -0.8427  2.0920  0.2152
 1877TIP3   OH229825   6.843   1.805   9.622 -0.3916 -0.6833 -0.2965
 1877TIP3    H129826   6.910   1.873   9.619 -1.9372  0.8801 -1.3823
 1877TIP3    H229827   6.887   1.730   9.663  1.5396  0.7539  0.4347
 1878TIP3   OH229828   5.976   0.954   1.713 -0.1846 -0.5134 -0.3056
 1878TIP3    H129829   5.940   0.878   1.666 -1.3065 -0.4881  0.4587
 1878TIP3    H229830   6.057   0.921   1.753 -0.2536 -1.0938 -0.6274
 1879TIP3   OH229831   5.225   6.444   0.009 -0.0898 -0.2124  0.6008
 1879TIP3    H129832   5.154   6.493   0.050 -1.7104 -1.3373 -0.7127
 1879TIP3    H229833   5.182   6.387  -0.054  2.0348 -0.6096 -0.6201
 1880TIP3   OH229834   4.337   5.816   7.502  0.3245  0.5202  0.4327
 1880TIP3    H129835   4.309   5.733   7.465  0.9219  0.2113  0.6625
 1880TIP3    H229836   4.277   5.832   7.575 -0.9879  1.2333 -0.7581
 1881TIP3   OH229837   4.760   4.190   9.278 -0.1189  0.4470 -0.4713
 1881TIP3    H129838   4.714   4.110   9.303  0.5137 -0.0634 -0.9330
 1881TIP3    H229839   4.740   4.252   9.349  1.6616 -0.9770  1.3794
 1882TIP3   OH229840   7.561   5.000   1.636  1.2923 -0.2698  0.2321
 1882TIP3    H129841   7.639   4.961   1.676  1.4300  0.8679  1.1468
 1882TIP3    H229842   7.584   5.092   1.625 -0.3069  0.3594  1.6337
 1883TIP3   OH229843   1.400   1.536   6.622 -0.0844 -0.0395 -0.1458
 1883TIP3    H129844   1.470   1.515   6.683  0.5719  1.9616 -0.1467
 1883TIP3    H229845   1.444   1.549   6.538 -0.7950 -1.2181 -0.7416
 1884TIP3   OH229846   7.234   4.710   9.232  0.2723  0.3010 -0.3324
 1884TIP3    H129847   7.218   4.725   9.325  2.0539 -1.2205  0.2918
 1884TIP3    H229848   7.150   4.680   9.198 -0.2348  0.1675  0.9662
 1885TIP3   OH229849   2.580   1.807   0.892 -0.5169  0.6817 -0.2356
 1885TIP3    H129850   2.491   1.771   0.900 -0.8245  1.6090  0.7692
 1885TIP3    H229851   2.576   1.864   0.815 -0.2271 -0.7771 -1.3880
 1886TIP3   OH229852   3.712   6.426   9.182 -1.1480  0.3783 -0.2676
 1886TIP3    H129853   3.624   6.459   9.200 -1.5811 -1.6245  1.7768
 1886TIP3    H229854   3.698   6.341   9.139 -0.4252 -1.3562  2.6135
 1887TIP3   OH229855   5.185   5.565   8.138 -0.0093  0.9413  0.0484
 1887TIP3    H129856   5.259   5.533   8.189 -0.8808  0.7794  1.2546
 1887TIP3    H229857   5.176   5.502   8.067 -0.1671 -0.1189  0.9856
 1888TIP3   OH229858   3.761   1.226   8.445 -0.1313  0.6794  0.2609
 1888TIP3    H129859   3.820   1.300   8.431 -0.5156  0.9168 -0.1117
 1888TIP3    H229860   3.793   1.159   8.384  0.8886  0.1259  1.3504
 1889TIP3   OH229861   3.170   5.718   1.251  0.8328  0.4141  0.2048
 1889TIP3    H129862   3.168   5.760   1.337 -0.4555 -0.1917  0.5065
 1889TIP3    H229863   3.154   5.789   1.189 -1.0554  0.4641  0.6874
 1890TIP3   OH229864   2.099   2.411   1.807  0.3125 -0.1941  0.4301
 1890TIP3    H129865   2.120   2.464   1.884 -1.3927  1.0263  0.1114
 1890TIP3    H229866   2.165   2.435   1.742  0.8977 -0.1630  1.0226
 1891TIP3   OH229867   3.399   0.813   9.862  0.1000 -0.6570 -0.6025
 1891TIP3    H129868   3.318   0.858   9.887 -0.7351 -2.0213 -0.6906
 1891TIP3    H229869   3.444   0.798   9.945  1.0786  1.4935 -0.6862
 1892TIP3   OH229870   3.786   2.969   8.001 -0.3357 -0.0563  0.5435
 1892TIP3    H129871   3.831   2.924   7.930 -0.9206  0.5170 -0.2081
 1892TIP3    H229872   3.847   3.036   8.031  0.1560 -0.7042  1.0148
 1893TIP3   OH229873   3.048   2.292   9.367  0.0887 -0.3476  0.1783
 1893TIP3    H129874   3.005   2.368   9.329  1.4819  0.5678  0.3808
 1893TIP3    H229875   3.129   2.281   9.317  0.0202 -1.5741  0.2890
 1894TIP3   OH229876   1.123   3.342   9.048  0.0586  0.0734 -0.6626
 1894TIP3    H129877   1.196   3.343   8.986  1.4291 -0.8700  0.8387
 1894TIP3    H229878   1.151   3.403   9.117 -0.5061 -0.4202  0.0029
 1895TIP3   OH229879   5.340   2.858   2.124 -0.3373  0.2319  0.1144
 1895TIP3    H129880   5.261   2.886   2.078  1.2290  3.8108 -0.6775
 1895TIP3    H229881   5.333   2.762   2.126 -2.4881  0.0612 -3.9826
 1896TIP3   OH229882   5.315   5.247   9.186  0.0921 -0.1902 -0.1565
 1896TIP3    H129883   5.368   5.180   9.228  0.0951 -1.8366 -2.5452
 1896TIP3    H229884   5.374   5.287   9.122  0.0081  1.9861  1.0491
 1897TIP3   OH229885   3.642   1.023   0.831 -0.4924  0.1532  0.0303
 1897TIP3    H129886   3.713   0.961   0.845 -0.7032  0.0348  0.6367
 1897TIP3    H229887   3.562   0.970   0.838 -0.6737  0.4748  0.4922
 1898TIP3   OH229888   0.727   1.936   2.388 -0.3528  0.2943  0.2716
 1898TIP3    H129889   0.746   1.958   2.479  0.5917 -0.5986  0.2971
 1898TIP3    H229890   0.760   1.847   2.377  0.3816  0.7236 -1.1942
 1899TIP3   OH229891   2.599   7.623   1.329 -0.0024  0.0219  0.6187
 1899TIP3    H129892   2.612   7.707   1.285 -2.3516  0.5479  0.8025
 1899TIP3    H229893   2.518   7.633   1.378  0.0432 -2.1211  1.2594
 1900TIP3   OH229894   4.232   0.755   0.810  0.2014  0.0352  0.1605
 1900TIP3    H129895   4.247   0.809   0.733 -0.4660  0.9405  0.6502
 1900TIP3    H229896   4.286   0.794   0.879 -0.1150 -0.0509  0.4636
 1901TIP3   OH229897   0.994   5.009   0.793 -0.3645 -0.5121 -0.3083
 1901TIP3    H129898   0.993   5.100   0.763  2.6380 -0.9555 -2.1266
 1901TIP3    H229899   1.034   5.013   0.880 -0.5036 -0.1006 -0.2582
 1902TIP3   OH229900   2.520   3.724   9.727 -0.0085  0.2259  0.0002
 1902TIP3    H129901   2.426   3.711   9.715 -0.1276  0.3005  0.7638
 1902TIP3    H229902   2.561   3.660   9.669 -0.4807  1.8188 -2.1873
 1903TIP3   OH229903   2.126   1.463   2.135  0.7541  0.0471  0.2449
 1903TIP3    H129904   2.164   1.379   2.111  0.5712  0.4012 -1.4458
 1903TIP3    H229905   2.033   1.445   2.148  0.7871 -0.0873  0.2968
 1904TIP3   OH229906   0.452   1.464   1.785 -0.1627 -0.6647  0.3069
 1904TIP3    H129907   0.381   1.522   1.810  0.2075 -0.3482  0.6293
 1904TIP3    H229908   0.528   1.520   1.778 -0.4155 -0.5550 -2.5089
 1905TIP3   OH229909   2.176   5.910   0.309 -0.5226  0.7512 -0.5670
 1905TIP3    H129910   2.087   5.875   0.304 -0.4160  0.3048  0.4206
 1905TIP3    H229911   2.206   5.911   0.218 -0.6250 -1.5111 -0.6998
 1906TIP3   OH229912   0.156   4.318   8.080 -0.3646  0.4196  0.0437
 1906TIP3    H129913   0.197   4.251   8.025  1.6439  1.0514  0.6949
 1906TIP3    H229914   0.112   4.376   8.019  1.1350  0.6417 -0.8657
 1907TIP3   OH229915   2.796   5.107   7.953  0.3577 -0.1692  0.6872
 1907TIP3    H129916   2.748   5.177   7.908  1.0656  0.5474  1.0349
 1907TIP3    H229917   2.771   5.028   7.905  0.2190  0.4263 -0.2695
 1908TIP3   OH229918   4.800   1.739   1.013 -0.4805 -0.1208  0.0615
 1908TIP3    H129919   4.891   1.713   1.021 -0.9581 -1.2181  3.8151
 1908TIP3    H229920   4.770   1.700   0.930  2.0052 -1.0390 -0.4746
 1909TIP3   OH229921   2.899   5.623   7.206  0.4127 -0.1800  0.4718
 1909TIP3    H129922   2.938   5.664   7.283 -0.4830  1.6803  0.0048
 1909TIP3    H229923   2.857   5.544   7.239  2.0276 -0.6617  1.4602
 1910TIP3   OH229924   2.257   5.570   8.880  0.5290 -0.1024  0.2697
 1910TIP3    H129925   2.285   5.504   8.943 -1.8416  0.0509  1.6239
 1910TIP3    H229926   2.174   5.536   8.845 -0.2998  1.6944  0.3477
 1911TIP3   OH229927   6.154   4.266   0.442 -0.9314 -0.1928  0.1903
 1911TIP3    H129928   6.182   4.324   0.371  0.1544  0.0650  0.7903
 1911TIP3    H229929   6.232   4.259   0.499 -1.9490  0.1309  1.6935
 1912TIP3   OH229930   0.366   1.335   0.877  0.2227 -0.0599  0.0955
 1912TIP3    H129931   0.451   1.345   0.834  0.7848  1.4435  1.4421
 1912TIP3    H229932   0.318   1.414   0.853 -0.2837 -0.2615  0.4372
 1913TIP3   OH229933   7.352   6.591   1.858 -0.0237 -0.1841  0.0270
 1913TIP3    H129934   7.261   6.578   1.883 -0.8147 -0.4868 -2.7260
 1913TIP3    H229935   7.397   6.512   1.891 -1.5356 -1.9180 -1.8276
 1914TIP3   OH229936   7.613   5.049   9.671 -0.1405 -0.2402 -0.3616
 1914TIP3    H129937   7.552   5.113   9.634  0.1657 -0.6278 -1.5670
 1914TIP3    H229938   7.557   4.985   9.715 -0.6245 -0.6681 -1.5773
 1915TIP3   OH229939   1.169   1.175   1.041 -0.1537 -0.2020  0.5563
 1915TIP3    H129940   1.116   1.244   1.081 -0.0286  0.3090 -0.1309
 1915TIP3    H229941   1.215   1.134   1.114  0.6181  1.1777  0.8763
 1916TIP3   OH229942   5.899   1.144   8.547 -0.3222  0.0933 -0.1904
 1916TIP3    H129943   5.945   1.060   8.552 -0.8890 -0.1970  0.2215
 1916TIP3    H229944   5.956   1.205   8.594 -0.5713 -0.3652  0.7236
 1917TIP3   OH229945   7.353   3.230   9.349  0.0449 -0.5771  0.3631
 1917TIP3    H129946   7.369   3.236   9.254 -0.6985  0.7901  0.2938
 1917TIP3    H229947   7.414   3.163   9.379  1.4425  0.0772 -0.8384
 1918TIP3   OH229948   0.351   5.659   9.813 -0.3924 -0.2251 -0.3403
 1918TIP3    H129949   0.297   5.608   9.873  0.0957 -0.1511  0.1639
 1918TIP3    H229950   0.290   5.725   9.777 -1.4132 -2.0205 -2.1255
 1919TIP3   OH229951   0.375   0.119   0.645 -0.4072 -0.0116  0.7463
 1919TIP3    H129952   0.284   0.146   0.632 -0.8479 -0.9944  1.7205
 1919TIP3    H229953   0.419   0.199   0.675 -1.4885 -0.0642  2.6494
 1920TIP3   OH229954   1.619   1.056   9.309 -0.3510  0.0308  0.0041
 1920TIP3    H129955   1.534   1.044   9.353  0.4657 -1.1419  1.3637
 1920TIP3    H229956   1.670   0.980   9.335  0.5326 -0.2341 -2.2964
 1921TIP3   OH229957   0.681   0.474   8.528  0.3115  0.0184 -0.3919
 1921TIP3    H129958   0.629   0.490   8.607 -0.2377  0.6310 -0.8532
 1921TIP3    H229959   0.616   0.447   8.463  0.0109  3.5984 -1.8106
 1922TIP3   OH229960   4.178   6.976   9.756  0.4088  0.8513  0.0300
 1922TIP3    H129961   4.258   6.934   9.787  0.5421  0.5098 -0.7643
 1922TIP3    H229962   4.204   7.022   9.676 -0.4196 -0.1910 -0.8659
 1923TIP3   OH229963   3.502   4.722   0.785  0.0032  0.2719 -0.5257
 1923TIP3    H129964   3.582   4.715   0.837  1.6940 -1.3156 -3.1127
 1923TIP3    H229965   3.483   4.633   0.758 -2.0984  0.7558 -0.8262
 1924TIP3   OH229966   6.877   0.290   8.804  0.4587  0.3643  0.6625
 1924TIP3    H129967   6.878   0.252   8.891 -0.7362  1.4334  1.1728
 1924TIP3    H229968   6.918   0.376   8.814  1.4224  0.0064 -0.0821
 1925TIP3   OH229969   2.355   4.051   1.289  0.0746  0.1959 -0.2498
 1925TIP3    H129970   2.438   4.049   1.242  0.4841  0.5983  0.4448
 1925TIP3    H229971   2.363   4.125   1.349 -0.2369 -0.6083  0.8132
 1926TIP3   OH229972   7.126   4.345   1.570 -0.1630 -0.3706 -0.3158
 1926TIP3    H129973   7.084   4.261   1.550 -1.0799 -0.3914  1.4707
 1926TIP3    H229974   7.121   4.352   1.666  0.2026  1.5649 -0.3964
 1927TIP3   OH229975   3.409   5.475   8.870 -0.5508 -0.5214  0.0007
 1927TIP3    H129976   3.432   5.456   8.779 -0.6262 -1.4619  0.1642
 1927TIP3    H229977   3.332   5.421   8.887 -0.3180 -0.6367  0.7253
 1928TIP3   OH229978   1.406   7.163   9.439  0.2483  0.5525 -0.0804
 1928TIP3    H129979   1.445   7.198   9.359  1.6245  0.8710  0.6975
 1928TIP3    H229980   1.480   7.147   9.497 -0.3604 -2.8978 -0.0484
 1929TIP3   OH229981   6.001   5.628   1.350 -0.9450 -0.5093  0.4653
 1929TIP3    H129982   6.083   5.622   1.399 -0.5266  1.0259  0.0339
 1929TIP3    H229983   5.937   5.581   1.403  0.1484 -1.4970  0.9496
 1930TIP3   OH229984   2.501   7.309   8.638 -0.1843  0.2208  0.1504
 1930TIP3    H129985   2.560   7.359   8.693  0.0684 -1.0425  1.0829
 1930TIP3    H229986   2.461   7.245   8.698  0.9238 -1.9374 -1.2726
 1931TIP3   OH229987   0.786   3.661   9.528  0.0073 -0.3229  0.0461
 1931TIP3    H129988   0.827   3.624   9.450  1.8075  1.2406  0.1744
 1931TIP3    H229989   0.827   3.615   9.601 -0.3227 -0.5040  0.1192
 1932TIP3   OH229990   0.892   2.954   9.039 -0.0842 -0.3544 -0.4177
 1932TIP3    H129991   0.844   2.928   8.961 -0.1682 -0.5849 -0.2894
 1932TIP3    H229992   0.953   2.882   9.055  0.2037 -0.1313 -0.4941
 1933TIP3   OH229993   7.582   2.417   8.913 -0.0403  0.4089 -0.5816
 1933TIP3    H129994   7.531   2.438   8.991  0.7390  2.2915 -0.5332
 1933TIP3    H229995   7.647   2.353   8.943 -0.3271  0.4262  0.0834
 1934TIP3   OH229996   7.318   2.345   8.058  0.4107 -0.4297 -0.7706
 1934TIP3    H129997   7.286   2.431   8.086  0.8057 -0.6020  0.2586
 1934TIP3    H229998   7.241   2.289   8.060  0.1944 -0.1533 -1.2335
 1935TIP3   OH229999   3.569   4.943   0.385  0.0444 -0.0927 -0.2240
 1935TIP3    H130000   3.661   4.942   0.358  0.2108 -0.0751  0.3174
 1935TIP3    H230001   3.520   4.935   0.304  0.5461 -1.3959 -0.4355
 1936TIP3   OH230002   0.135   5.147   0.578 -0.2628  0.1772 -0.6170
 1936TIP3    H130003   0.100   5.158   0.490  0.6421  1.3189 -0.8608
 1936TIP3    H230004   0.227   5.124   0.564 -0.1484  0.2277  0.0221
 1937TIP3   OH230005   6.821   7.574   9.094  0.5138  0.3462  0.1499
 1937TIP3    H130006   6.819   7.585   9.189  0.1629 -0.1452  0.2061
 1937TIP3    H230007   6.729   7.579   9.068  0.5573 -0.0525 -0.0925
 1938TIP3   OH230008   1.310   4.203   1.743 -0.0770 -0.6790 -0.5325
 1938TIP3    H130009   1.334   4.121   1.698 -1.9275 -1.8580  0.5075
 1938TIP3    H230010   1.376   4.212   1.811 -0.1614 -1.6473 -0.2985
 1939TIP3   OH230011   3.271   4.559   8.027  0.0764 -0.2965 -0.4319
 1939TIP3    H130012   3.320   4.632   7.990  0.6129 -0.6633 -0.4609
 1939TIP3    H230013   3.214   4.598   8.093 -1.2581  0.4481 -1.9732
 1940TIP3   OH230014   6.578   1.729   8.383 -0.5918 -0.3804  0.6092
 1940TIP3    H130015   6.512   1.798   8.378 -1.7174 -1.1723  2.9740
 1940TIP3    H230016   6.612   1.736   8.473 -0.1918 -2.4036  0.6478
 1941TIP3   OH230017   4.014   1.455   7.657 -0.5477  0.0556 -0.1436
 1941TIP3    H130018   3.995   1.527   7.597 -0.2190 -0.1945 -0.5514
 1941TIP3    H230019   3.928   1.431   7.692 -0.6880  0.4994 -0.1681
 1942TIP3   OH230020   5.986   5.930   8.980  0.2555 -0.2963  0.6394
 1942TIP3    H130021   5.891   5.926   8.988  0.1576 -0.7695 -0.5300
 1942TIP3    H230022   6.010   5.848   8.938  1.3083 -0.6487  1.8561
 1943TIP3   OH230023   4.188   4.661   7.668  1.1169 -0.1524  0.2634
 1943TIP3    H130024   4.220   4.671   7.579 -3.0375  0.2875 -1.4250
 1943TIP3    H230025   4.130   4.585   7.664 -1.6362  1.6972  1.6795
 1944TIP3   OH230026   7.530   7.425   9.913  0.3807 -0.2271 -0.1089
 1944TIP3    H130027   7.573   7.391   9.991  0.1331 -0.1012  0.0847
 1944TIP3    H230028   7.589   7.495   9.882 -0.0934  0.5247  0.6461
 1945TIP3   OH230029   4.550   5.751   8.662 -0.2049  0.0978  0.2943
 1945TIP3    H130030   4.481   5.709   8.712  0.3514  1.1263  1.9887
 1945TIP3    H230031   4.546   5.843   8.686  0.5438  0.5167 -1.0343
 1946TIP3   OH230032   2.695   3.152   1.614  0.9233 -0.2127 -0.2781
 1946TIP3    H130033   2.601   3.144   1.628  0.8379 -1.6099 -1.4335
 1946TIP3    H230034   2.706   3.231   1.561  0.4648  0.1805  0.1981
 1947TIP3   OH230035   1.051   6.023   7.862  0.2067  0.1951  0.2577
 1947TIP3    H130036   1.122   6.084   7.842  0.0398  0.1106 -0.6602
 1947TIP3    H230037   1.066   5.948   7.803 -1.1712  0.5948 -0.6613
 1948TIP3   OH230038   2.186   7.322   7.317 -0.7319 -0.8734  0.7444
 1948TIP3    H130039   2.156   7.395   7.263 -0.9773 -1.9651 -0.6499
 1948TIP3    H230040   2.273   7.301   7.283  0.1874 -0.0130  2.4308
 1949TIP3   OH230041   7.452   0.671   0.730 -0.3621  0.1202  0.1163
 1949TIP3    H130042   7.493   0.734   0.791  0.3982 -0.6608  0.4407
 1949TIP3    H230043   7.386   0.722   0.684  0.2205  1.1609  0.3863
 1950TIP3   OH230044   2.514   6.375   7.707  0.1610  0.2513  0.0933
 1950TIP3    H130045   2.430   6.331   7.720 -0.5000  1.0502 -1.2238
 1950TIP3    H230046   2.500   6.430   7.630  1.6394  1.0544  0.3680
 1951TIP3   OH230047   1.892   6.833   1.314 -0.1400 -0.0118 -0.0802
 1951TIP3    H130048   1.914   6.740   1.303  1.9815  0.4888 -0.6079
 1951TIP3    H230049   1.810   6.844   1.266 -0.0541 -1.4580 -0.6237
 1952TIP3   OH230050   3.262   1.046   6.948 -0.1792  0.0407  0.0248
 1952TIP3    H130051   3.228   0.959   6.931 -0.5519 -0.5142  3.0738
 1952TIP3    H230052   3.335   1.032   7.009 -0.5610  1.8663  0.9851
 1953TIP3   OH230053   2.616   6.645   7.521 -0.1111 -0.0264 -0.1213
 1953TIP3    H130054   2.566   6.721   7.552 -1.3562 -1.4504  1.6209
 1953TIP3    H230055   2.583   6.628   7.433 -1.0587  0.4523  0.1297
 1954TIP3   OH230056   5.987   6.047   7.847  0.0550 -0.7155 -0.2994
 1954TIP3    H130057   5.929   6.099   7.792  0.7220 -0.2105 -0.5493
 1954TIP3    H230058   6.050   6.008   7.786 -0.8500 -2.4213 -0.1980
 1955TIP3   OH230059   4.850   1.541   2.088  0.3065  0.5672  0.0994
 1955TIP3    H130060   4.808   1.624   2.064 -0.1619 -0.1758 -1.7593
 1955TIP3    H230061   4.785   1.497   2.143 -0.2390  0.5928 -0.5178
 1956TIP3   OH230062   1.585   2.521   8.553 -0.4691 -0.0042  0.6607
 1956TIP3    H130063   1.499   2.510   8.513  0.7592  0.8665 -2.5765
 1956TIP3    H230064   1.592   2.615   8.569  0.6921  0.3321 -1.4357
 1957TIP3   OH230065   2.697   7.153   3.094  0.3713  0.1369  0.2099
 1957TIP3    H130066   2.695   7.225   3.157 -0.6484  0.8425 -0.5867
 1957TIP3    H230067   2.741   7.190   3.017 -2.5008  0.8664 -1.2316
 1958TIP3   OH230068   0.993   4.697   3.106  0.1265 -0.0403 -0.3820
 1958TIP3    H130069   1.005   4.762   3.175 -1.7676 -0.1668  0.1220
 1958TIP3    H230070   1.053   4.626   3.128  1.3296  0.9771 -0.2633
 1959TIP3   OH230071   3.008   5.672   7.473 -0.4125 -0.2838 -0.1158
 1959TIP3    H130072   2.927   5.722   7.476 -1.0971 -1.2552 -1.2796
 1959TIP3    H230073   3.030   5.655   7.565 -2.5898 -1.6286  0.2343
 1960TIP3   OH230074   1.106   3.583   7.903  0.3108  0.0687 -0.2257
 1960TIP3    H130075   1.098   3.662   7.957  1.2483 -0.4498  0.7114
 1960TIP3    H230076   1.119   3.616   7.814 -0.1855  0.9550  0.0178
 1961TIP3   OH230077   0.779   0.574   9.066  0.0245 -0.7924 -0.1896
 1961TIP3    H130078   0.687   0.552   9.048 -0.7110  1.3308  0.6171
 1961TIP3    H230079   0.822   0.490   9.079 -1.9085 -1.8228 -0.0877
 1962TIP3   OH230080   1.372   7.541   2.785 -0.0616 -0.0385  0.2107
 1962TIP3    H130081   1.330   7.617   2.743 -2.7445 -1.3541  0.3257
 1962TIP3    H230082   1.351   7.468   2.728  1.5551 -0.9297  0.6859
 1963TIP3   OH230083   3.640   5.337   9.838 -0.1231 -0.2463 -0.0431
 1963TIP3    H130084   3.648   5.405   9.904 -1.7300 -0.1320  0.0720
 1963TIP3    H230085   3.565   5.284   9.866 -1.2643  0.1676 -2.0462
 1964TIP3   OH230086   5.970   5.377   7.708  0.0733  0.1015 -0.3177
 1964TIP3    H130087   5.886   5.348   7.671  0.4710 -1.4571 -0.1045
 1964TIP3    H230088   6.035   5.327   7.660  0.7987  0.3747  0.3692
 1965TIP3   OH230089   2.373   3.267   8.689 -0.0768  0.0423  0.0309
 1965TIP3    H130090   2.376   3.275   8.594 -1.7227  0.6072 -0.0108
 1965TIP3    H230091   2.392   3.355   8.722 -0.7154  0.1422  0.1615
 1966TIP3   OH230092   5.139   1.134   8.071 -0.4415  0.1816  0.3872
 1966TIP3    H130093   5.128   1.159   7.979 -0.0811  0.2015  0.3479
 1966TIP3    H230094   5.190   1.205   8.110 -1.6274  0.7738  0.9072
 1967TIP3   OH230095   3.059   2.120   7.177  0.4878  0.0179 -0.1747
 1967TIP3    H130096   3.129   2.153   7.121 -1.3470  0.9612 -2.0468
 1967TIP3    H230097   3.000   2.195   7.188 -1.2578 -1.2784 -0.3731
 1968TIP3   OH230098   7.571   3.041   0.910 -0.0906 -0.1144  0.2572
 1968TIP3    H130099   7.498   3.016   0.966 -1.0525  1.5233 -0.2106
 1968TIP3    H230100   7.595   3.129   0.940 -0.3602  0.6280 -1.6026
 1969TIP3   OH230101   0.569   0.733   2.808  0.1694  0.1931 -0.0497
 1969TIP3    H130102   0.586   0.705   2.898 -0.2099 -1.3577 -0.4433
 1969TIP3    H230103   0.539   0.824   2.818 -2.2947 -0.6891  1.6594
 1970TIP3   OH230104   6.969   4.437   7.857 -0.1212 -0.4104  0.0608
 1970TIP3    H130105   6.900   4.479   7.806 -0.8574 -0.9090  0.6278
 1970TIP3    H230106   6.987   4.355   7.811 -0.4532 -0.6361  0.3196
 1971TIP3   OH230107   3.960   6.826   1.761 -0.1236  0.1975 -0.4029
 1971TIP3    H130108   3.908   6.776   1.824  0.0847  0.8227  0.2701
 1971TIP3    H230109   3.897   6.889   1.724 -0.0708  0.3064 -0.3040
 1972TIP3   OH230110   0.049   7.277   8.745  0.1302  0.0158  0.0929
 1972TIP3    H130111   0.124   7.320   8.786 -1.2451  1.2988  1.3698
 1972TIP3    H230112   0.046   7.191   8.787 -1.0671  1.1901  2.6415
 1973TIP3   OH230113   2.220   3.966   0.869 -0.5640  0.0503  0.4945
 1973TIP3    H130114   2.294   3.919   0.907  0.5179  0.7638 -0.6514
 1973TIP3    H230115   2.157   3.973   0.941  0.8614  0.2305  1.7958
 1974TIP3   OH230116   3.259   5.451   2.963 -0.5843  0.2881  0.0704
 1974TIP3    H130117   3.342   5.488   2.996  0.5147  0.1288 -2.3178
 1974TIP3    H230118   3.192   5.509   2.999  0.8622  2.8761 -1.0734
 1975TIP3   OH230119   3.163   3.813   8.377  0.3717  0.0837 -0.0217
 1975TIP3    H130120   3.175   3.719   8.392 -0.6692 -0.0400  0.1025
 1975TIP3    H230121   3.131   3.847   8.460  0.5858  0.5270 -0.1152
 1976TIP3   OH230122   4.671   0.457   1.938 -0.2537 -0.6114  0.1109
 1976TIP3    H130123   4.694   0.446   2.030 -0.0603 -2.0058 -0.0883
 1976TIP3    H230124   4.604   0.391   1.921  1.3961 -2.0274 -1.3097
 1977TIP3   OH230125   0.782   4.341   1.086 -0.9313  0.1350  0.2970
 1977TIP3    H130126   0.875   4.355   1.067 -1.0484 -1.5507 -2.0952
 1977TIP3    H230127   0.736   4.397   1.023 -1.4603 -0.8785 -0.2514
 1978TIP3   OH230128   0.840   1.550   2.842 -0.3973 -0.1098  0.1609
 1978TIP3    H130129   0.822   1.490   2.770  0.1070 -1.5310  1.1794
 1978TIP3    H230130   0.879   1.496   2.910  1.5994  1.6447  0.5284
 1979TIP3   OH230131   1.575   5.584   8.188  0.3835 -0.0674 -0.3146
 1979TIP3    H130132   1.502   5.595   8.250  0.7272  0.3243  0.0254
 1979TIP3    H230133   1.561   5.497   8.150  0.3621 -0.4627  0.5759
 1980TIP3   OH230134   0.528   0.367   8.321  0.5425  0.0176  0.1142
 1980TIP3    H130135   0.575   0.300   8.371  0.1838 -1.4362 -1.4040
 1980TIP3    H230136   0.521   0.331   8.233 -0.4820  1.6749 -0.5382
 1981TIP3   OH230137   6.330   6.669   7.975 -0.4578 -0.0666  0.2349
 1981TIP3    H130138   6.274   6.610   7.924 -0.0743  0.8289 -1.2922
 1981TIP3    H230139   6.383   6.714   7.909  1.1659  0.0334  1.5458
 1982TIP3   OH230140   2.607   0.846   0.823 -0.2695 -0.1355  0.1063
 1982TIP3    H130141   2.569   0.877   0.905 -0.1320 -0.7456  0.4147
 1982TIP3    H230142   2.682   0.793   0.851 -0.7743 -1.1278 -0.3634
 1983TIP3   OH230143   0.564   7.620   1.360 -0.1043  0.0048  0.1896
 1983TIP3    H130144   0.573   7.647   1.268 -0.0417  2.0003  0.7430
 1983TIP3    H230145   0.653   7.619   1.394 -0.1628 -0.3671  0.3436
 1984TIP3   OH230146   3.166   1.765   1.631 -0.2130  0.2109 -0.0485
 1984TIP3    H130147   3.155   1.858   1.608  0.1386  0.7387  1.7221
 1984TIP3    H230148   3.168   1.720   1.547 -1.7256  1.6379 -0.9271
 1985TIP3   OH230149   2.035   0.152   7.982 -0.3006  0.2202 -0.3984
 1985TIP3    H130150   2.095   0.108   8.041 -0.3740 -0.5850 -0.9150
 1985TIP3    H230151   1.949   0.114   8.002 -0.0516 -1.4969 -2.3291
 1986TIP3   OH230152   6.890   2.583   1.444 -0.1069 -0.2652 -0.2321
 1986TIP3    H130153   6.806   2.623   1.423 -0.4621 -1.3693 -1.0050
 1986TIP3    H230154   6.939   2.653   1.489 -0.4981  1.2008 -1.9657
 1987TIP3   OH230155   2.230   2.300   0.259  0.1883 -0.0332 -0.3490
 1987TIP3    H130156   2.181   2.377   0.289  2.9295  2.3455 -1.5686
 1987TIP3    H230157   2.210   2.294   0.166  1.5417  0.4929 -0.6921
 1988TIP3   OH230158   5.746   6.993   0.237  0.3290  0.2339 -0.0234
 1988TIP3    H130159   5.711   6.904   0.227  0.3015  0.1755  0.5729
 1988TIP3    H230160   5.668   7.049   0.242  0.3517  0.3476 -0.8774
 1989TIP3   OH230161   5.122   4.650   2.500  0.1453 -0.1535  0.0389
 1989TIP3    H130162   5.210   4.681   2.524 -0.7440  0.9890  2.0583
 1989TIP3    H230163   5.093   4.713   2.434  0.9778 -0.8016 -0.9833
 1990TIP3   OH230164   2.300   3.951   2.510 -0.1145 -0.1226 -0.0622
 1990TIP3    H130165   2.230   3.891   2.537 -0.8451  1.0877  0.8394
 1990TIP3    H230166   2.317   4.005   2.587  0.4504  0.9019 -0.8700
 1991TIP3   OH230167   1.760   2.391   8.367 -0.2111 -0.3406 -0.4298
 1991TIP3    H130168   1.697   2.424   8.431  0.0210  1.3119 -1.0096
 1991TIP3    H230169   1.709   2.378   8.287 -0.1842 -0.8255 -0.3690
 1992TIP3   OH230170   4.511   5.445   9.831  0.1454  0.4703  0.1201
 1992TIP3    H130171   4.459   5.505   9.777  2.0375  0.1229 -2.2149
 1992TIP3    H230172   4.464   5.362   9.826  0.2120  0.4832 -0.8869
 1993TIP3   OH230173   2.895   3.233   1.799 -0.1770 -0.7912  0.2671
 1993TIP3    H130174   2.883   3.223   1.894 -1.4733 -1.2570  0.0680
 1993TIP3    H230175   2.838   3.167   1.760  0.5860 -0.8177 -0.8476
 1994TIP3   OH230176   2.820   0.031   7.245 -0.2881  0.1928  0.6020
 1994TIP3    H130177   2.728   0.037   7.272 -0.6149  0.2608 -0.4804
 1994TIP3    H230178   2.817  -0.020   7.164  0.7000 -0.3244  0.8783
 1995TIP3   OH230179   0.186   6.803   2.512 -0.3442  0.9031 -0.2235
 1995TIP3    H130180   0.176   6.736   2.445 -1.1754 -1.0779  1.7910
 1995TIP3    H230181   0.098   6.839   2.524 -0.6020 -0.1150  1.1137
 1996TIP3   OH230182   1.954   2.429   3.016  0.7271 -0.3276  0.3957
 1996TIP3    H130183   1.898   2.491   3.063  1.2908  0.1864  0.4119
 1996TIP3    H230184   1.899   2.393   2.947 -1.0411 -3.1950  3.0555
 1997TIP3   OH230185   2.034   3.946   0.067  0.1711  0.2522  0.2547
 1997TIP3    H130186   2.015   3.974  -0.022 -0.9474 -1.4963 -0.1030
 1997TIP3    H230187   1.977   4.001   0.122  0.9230  1.3869 -0.0727
 1998TIP3   OH230188   6.559   7.138   1.157 -0.1334  0.3559 -0.2203
 1998TIP3    H130189   6.653   7.123   1.157 -0.2501 -0.4125 -0.4337
 1998TIP3    H230190   6.535   7.146   1.250  0.1267  0.4390 -0.1619
 1999TIP3   OH230191   2.902   2.756   0.268 -0.0955  0.0851 -0.6312
 1999TIP3    H130192   2.926   2.702   0.344  1.1999  0.3044 -0.8491
 1999TIP3    H230193   2.820   2.718   0.237 -1.4162  0.8619  1.6824
 2000TIP3   OH230194   0.812   3.237   0.081  0.3441  0.0314 -0.2467
 2000TIP3    H130195   0.805   3.240   0.176 -0.6921  1.3680 -0.3340
 2000TIP3    H230196   0.729   3.200   0.052 -0.5983  2.3517 -0.7150
 2001TIP3   OH230197   0.204   1.684   2.587 -0.0117 -0.6417  0.2970
 2001TIP3    H130198   0.292   1.647   2.591  0.1746 -0.3260 -0.5525
 2001TIP3    H230199   0.147   1.610   2.567  0.2461 -0.6419 -0.4914
 2002TIP3   OH230200   6.816   1.250   0.001  0.1754 -0.0373  0.2222
 2002TIP3    H130201   6.749   1.226   0.065  1.6955 -2.5104  1.0559
 2002TIP3    H230202   6.806   1.187  -0.070  0.6936  0.4812 -0.3237
 2003TIP3   OH230203   2.526   0.347   9.237  0.8709 -0.3869  0.1812
 2003TIP3    H130204   2.571   0.366   9.319  0.9690 -0.5139  0.1573
 2003TIP3    H230205   2.434   0.368   9.254  0.6022 -2.0078  0.8392
 2004TIP3   OH230206   0.456   7.126   8.757 -0.1694  0.1752 -0.4138
 2004TIP3    H130207   0.384   7.169   8.804  0.0079 -0.3675  0.3701
 2004TIP3    H230208   0.429   7.035   8.749  0.2410  0.0597 -0.4937
 2005TIP3   OH230209   1.289   3.018   9.777 -0.1168 -0.2833 -0.4077
 2005TIP3    H130210   1.308   3.084   9.710 -1.0365  0.5694  0.1537
 2005TIP3    H230211   1.194   3.014   9.781 -0.0751 -0.4545  0.7161
 2006TIP3   OH230212   1.104   3.128   0.142 -0.6294 -0.1587 -0.1472
 2006TIP3    H130213   1.043   3.182   0.192  0.0224 -0.9732  1.6305
 2006TIP3    H230214   1.078   3.140   0.051 -2.5651  0.5821  0.4428
 2007TIP3   OH230215   0.777   2.797   6.848 -0.0808  0.1277  0.3857
 2007TIP3    H130216   0.700   2.852   6.855 -1.2504 -1.3735 -0.0468
 2007TIP3    H230217   0.840   2.849   6.798 -0.0045  2.1692  2.4869
 2008TIP3   OH230218   2.155   5.865   8.617  0.1674 -0.0800  0.0649
 2008TIP3    H130219   2.080   5.825   8.573  0.0974  1.3110 -1.1347
 2008TIP3    H230220   2.210   5.897   8.545  0.3033  1.8108  0.9711
 2009TIP3   OH230221   5.608   3.978   0.280 -0.8471  0.0093  0.5521
 2009TIP3    H130222   5.605   4.074   0.287 -1.5473  0.5177 -3.6317
 2009TIP3    H230223   5.701   3.957   0.272 -0.6707  0.2580  1.7705
 2010TIP3   OH230224   4.207   5.504   8.628 -0.4315  0.1089  0.5192
 2010TIP3    H130225   4.278   5.535   8.685  0.7927 -1.7567  0.1108
 2010TIP3    H230226   4.141   5.573   8.632  1.5246  2.0791  0.6734
 2011TIP3   OH230227   5.259   1.623   9.518  0.0709 -0.1995  0.2708
 2011TIP3    H130228   5.168   1.609   9.491  0.3462 -0.2289 -0.6937
 2011TIP3    H230229   5.281   1.710   9.484  0.3802 -0.1629  0.5573
 2012TIP3   OH230230   2.344   7.561   0.336  0.2393  0.4039  0.7082
 2012TIP3    H130231   2.427   7.516   0.324  0.2856  0.9620 -1.4523
 2012TIP3    H230232   2.331   7.562   0.431  1.3382 -2.0834  0.9646
 2013TIP3   OH230233   6.635   4.793   9.515  0.2459 -0.1704 -0.0137
 2013TIP3    H130234   6.639   4.889   9.522  2.2844 -0.2693  0.9396
 2013TIP3    H230235   6.547   4.771   9.547 -0.7877  1.4384 -1.5790
 2014TIP3   OH230236   6.402   3.219   2.213 -0.4198 -0.3833  0.2190
 2014TIP3    H130237   6.492   3.240   2.237 -0.8713  1.0253  0.7756
 2014TIP3    H230238   6.402   3.124   2.199  1.2793 -0.3187 -0.4135
 2015TIP3   OH230239   0.946   6.302   8.641  0.4429  0.0913 -0.4964
 2015TIP3    H130240   0.852   6.314   8.652  0.3333 -0.8570 -0.3813
 2015TIP3    H230241   0.956   6.215   8.605  1.1857  0.8157 -2.1413
 2016TIP3   OH230242   6.446   4.556   9.082  0.1556 -0.4666  0.1726
 2016TIP3    H130243   6.444   4.652   9.088  1.8921 -0.4023  0.1543
 2016TIP3    H230244   6.411   4.526   9.166 -0.8341  0.1531  0.0056
 2017TIP3   OH230245   5.470   3.380   0.791  0.1629 -0.0753 -0.5742
 2017TIP3    H130246   5.566   3.371   0.789  0.1683 -2.7052  2.8737
 2017TIP3    H230247   5.438   3.301   0.747 -0.3656 -0.1218 -0.1132
 2018TIP3   OH230248   1.786   5.828   8.396 -0.5655  0.2872  0.7084
 2018TIP3    H130249   1.825   5.751   8.354  0.1649  1.0638 -0.0677
 2018TIP3    H230250   1.707   5.794   8.439 -0.3818 -0.8497  0.1890
 2019TIP3   OH230251   0.698   0.266   7.303  0.2503 -0.4258  0.4169
 2019TIP3    H130252   0.607   0.237   7.314  1.1790 -4.0666 -0.0977
 2019TIP3    H230253   0.726   0.224   7.222  2.3859  0.7475  0.4805
 2020TIP3   OH230254   6.103   0.919   2.512 -0.1292 -0.1034  0.1219
 2020TIP3    H130255   6.083   0.827   2.527  0.8293 -0.1249  1.4405
 2020TIP3    H230256   6.037   0.967   2.562 -1.5535  0.0148 -1.7321
 2021TIP3   OH230257   3.183   5.919   9.394 -0.6007 -0.0229  0.3476
 2021TIP3    H130258   3.155   5.894   9.306 -0.4533  0.1920  0.2390
 2021TIP3    H230259   3.105   5.909   9.448 -0.4711 -1.0258  0.3692
 2022TIP3   OH230260   1.318   2.237   8.699  0.4067 -0.1395 -0.0304
 2022TIP3    H130261   1.346   2.233   8.607 -0.0840 -1.7013 -0.1394
 2022TIP3    H230262   1.398   2.220   8.749  0.2185 -1.8120 -0.2612
 2023TIP3   OH230263   6.172   1.395   1.125  0.0631  0.7113  0.1532
 2023TIP3    H130264   6.084   1.420   1.155  0.5512  2.7110  0.0554
 2023TIP3    H230265   6.208   1.343   1.198 -1.0037  0.2655  0.3883
 2024TIP3   OH230266   5.033   0.494   8.960  0.3867  0.1958  0.0131
 2024TIP3    H130267   5.115   0.475   8.914  0.2898 -0.2878  0.0338
 2024TIP3    H230268   5.014   0.414   9.009 -0.6658 -0.1040 -0.8491
 2025TIP3   OH230269   5.877   4.694   0.532 -0.0580 -0.7104 -0.2600
 2025TIP3    H130270   5.807   4.658   0.586 -0.7471 -0.0152 -0.6784
 2025TIP3    H230271   5.957   4.657   0.569 -0.4105  0.6123  1.9479
 2026TIP3   OH230272   1.853   6.228   0.071  0.7713  0.3644 -0.2669
 2026TIP3    H130273   1.780   6.170   0.090  0.8819  0.6092  1.0629
 2026TIP3    H230274   1.819   6.291   0.008 -0.3081  0.7074  0.6228
 2027TIP3   OH230275   4.204   0.085   8.810 -0.0270  0.4030 -0.2694
 2027TIP3    H130276   4.169   0.116   8.893 -0.7074  0.6930 -0.6597
 2027TIP3    H230277   4.275   0.025   8.835 -0.2516  0.4525  0.5153
 2028TIP3   OH230278   0.195   4.739   1.881 -0.5307  0.7003 -0.3916
 2028TIP3    H130279   0.208   4.670   1.816  0.9394  0.1818  0.4271
 2028TIP3    H230280   0.153   4.810   1.832 -0.9433 -0.2857 -1.5216
 2029TIP3   OH230281   1.769   4.649   7.417  0.5166  0.0667 -0.1088
 2029TIP3    H130282   1.709   4.611   7.481  1.7603 -0.5368  0.7577
 2029TIP3    H230283   1.735   4.623   7.332  0.8623 -2.3756  0.4166
 2030TIP3   OH230284   5.737   6.633   1.913 -0.0077 -0.3374 -0.5483
 2030TIP3    H130285   5.700   6.548   1.935 -0.7786  0.1519  0.0886
 2030TIP3    H230286   5.812   6.642   1.972 -0.1788 -0.4001 -0.3161
 2031TIP3   OH230287   3.007   4.314   1.605 -0.2821 -0.0786 -0.1859
 2031TIP3    H130288   2.972   4.402   1.615 -1.8471 -0.7657  0.9336
 2031TIP3    H230289   3.075   4.307   1.671 -1.5379 -0.3163  1.1333
 2032TIP3   OH230290   7.463   0.468   9.185  0.7105  0.0068  0.7377
 2032TIP3    H130291   7.464   0.547   9.130  2.0544  0.6700  1.6769
 2032TIP3    H230292   7.381   0.475   9.234  0.2471  0.2007 -0.0408
 2033TIP3   OH230293   6.721   5.593   2.408  0.2726 -0.0313 -0.5291
 2033TIP3    H130294   6.672   5.651   2.349 -1.3069  1.1348  1.7554
 2033TIP3    H230295   6.787   5.650   2.448 -1.0229  0.1920  1.4326
 2034TIP3   OH230296   2.471   1.302   8.204 -0.0989  0.0220 -0.1905
 2034TIP3    H130297   2.496   1.375   8.147  0.2140 -0.8219 -1.1679
 2034TIP3    H230298   2.419   1.245   8.147 -2.3069  0.5798  1.1603
 2035TIP3   OH230299   1.790   3.348   0.800  0.2980 -0.1780  0.4376
 2035TIP3    H130300   1.874   3.387   0.776 -0.2757  0.1811 -1.0810
 2035TIP3    H230301   1.794   3.258   0.767  0.2964 -0.3535  0.8958
 2036TIP3   OH230302   4.698   6.328   8.117  0.2785 -0.0019  0.3507
 2036TIP3    H130303   4.721   6.256   8.058  1.3703  1.1125 -0.6577
 2036TIP3    H230304   4.744   6.308   8.198  0.8442 -0.2830 -0.0324
 2037TIP3   OH230305   5.922   3.454   8.518 -0.2321  0.3131  0.0449
 2037TIP3    H130306   5.827   3.458   8.535 -0.3477 -0.5426 -0.3602
 2037TIP3    H230307   5.931   3.484   8.428  0.0361  1.6714  0.5023
 2038TIP3   OH230308   5.241   6.275   8.670 -0.3590  0.4534 -0.0431
 2038TIP3    H130309   5.204   6.189   8.691 -0.3038  0.6016  0.6837
 2038TIP3    H230310   5.221   6.329   8.747  0.5929  0.7749 -0.0114
 2039TIP3   OH230311   1.527   4.903   0.873  0.0875 -0.2818 -0.1463
 2039TIP3    H130312   1.441   4.928   0.839 -0.2220 -0.1013  0.7513
 2039TIP3    H230313   1.586   4.915   0.799 -0.2018  2.1880 -0.0840
 2040TIP3   OH230314   6.588   1.332   9.457  0.4923 -0.1708  0.0722
 2040TIP3    H130315   6.522   1.267   9.481  0.8930 -0.4262  0.5142
 2040TIP3    H230316   6.540   1.413   9.444  0.1100 -0.3216  0.5376
 2041TIP3   OH230317   6.290   0.582   1.843 -0.0390 -0.1285 -0.1385
 2041TIP3    H130318   6.211   0.530   1.860 -0.3385  0.0343 -1.0237
 2041TIP3    H230319   6.331   0.539   1.769  0.2429  0.3118 -0.2380
 2042TIP3   OH230320   2.879   1.438   0.700 -0.2247  0.0232 -0.2049
 2042TIP3    H130321   2.929   1.478   0.629  2.9738 -1.1002  1.2329
 2042TIP3    H230322   2.896   1.344   0.691  1.0484 -0.0998  2.4639
 2043TIP3   OH230323   0.472   4.077   9.985  0.3807  0.1371 -0.3083
 2043TIP3    H130324   0.472   4.055  10.078 -1.1365  0.0378 -0.3061
 2043TIP3    H230325   0.483   3.992   9.941  2.6633  0.3280 -0.2613
 2044TIP3   OH230326   6.504   6.135   8.777 -0.4692  0.0504 -0.0180
 2044TIP3    H130327   6.434   6.089   8.823 -0.9311  0.5439 -0.2226
 2044TIP3    H230328   6.469   6.223   8.762 -0.0400  0.1119 -0.6703
 2045TIP3   OH230329   6.662   0.647   9.067 -0.4902  0.2069  0.5305
 2045TIP3    H130330   6.705   0.639   8.982 -1.3500 -2.7542  0.2820
 2045TIP3    H230331   6.691   0.732   9.100  3.2147 -0.3102 -0.8789
 2046TIP3   OH230332   3.202   6.435   0.121  0.2484  0.3757  0.2055
 2046TIP3    H130333   3.158   6.392   0.047  1.8335 -0.0092 -0.5470
 2046TIP3    H230334   3.194   6.528   0.103  0.3882  0.2896 -0.3088
 2047TIP3   OH230335   4.237   7.266   1.483 -0.0265 -0.1589  0.1049
 2047TIP3    H130336   4.201   7.349   1.450 -0.4127 -0.2201  0.3681
 2047TIP3    H230337   4.160   7.212   1.500  0.1861 -0.2421  0.8072
 2048TIP3   OH230338   0.616   2.833   0.924 -0.1705 -0.2813 -0.1604
 2048TIP3    H130339   0.586   2.765   0.864 -2.2459 -1.1422  1.7312
 2048TIP3    H230340   0.635   2.787   1.006  0.8585  1.0989  0.4320
 2049TIP3   OH230341   4.267   3.360   0.171  0.2332  0.2656 -0.4551
 2049TIP3    H130342   4.332   3.337   0.104  0.9272  0.9263 -0.0257
 2049TIP3    H230343   4.206   3.286   0.171  1.5631 -0.8811 -0.1541
 2050TIP3   OH230344   2.867   0.277   9.347  0.7798  0.2202 -0.3962
 2050TIP3    H130345   2.954   0.269   9.386  0.1709  0.7559  1.1365
 2050TIP3    H230346   2.810   0.228   9.406 -0.1932  1.1621 -0.5323
 2051TIP3   OH230347   1.468   5.608   1.957  0.1819  0.0819 -0.5601
 2051TIP3    H130348   1.451   5.684   1.902 -1.2953  2.1199  2.3957
 2051TIP3    H230349   1.415   5.623   2.036  1.6873 -2.8440  1.2105
 2052TIP3   OH230350   2.886   2.004   8.088  0.2233  0.1604  0.0856
 2052TIP3    H130351   2.807   1.955   8.112  2.3370 -2.1982  2.8494
 2052TIP3    H230352   2.908   1.971   8.001 -0.2945 -1.3172  0.4784
 2053TIP3   OH230353   4.709   1.615   0.786 -0.1508  0.2948 -0.1662
 2053TIP3    H130354   4.709   1.542   0.848  0.3854 -0.6614 -1.2612
 2053TIP3    H230355   4.734   1.576   0.703 -2.5579  1.2088 -1.4118
 2054TIP3   OH230356   1.254   4.740   8.685  0.0705 -0.2084  0.0756
 2054TIP3    H130357   1.322   4.749   8.752  1.3137 -1.3635 -0.9878
 2054TIP3    H230358   1.286   4.790   8.611 -0.0081 -1.1171 -0.5896
 2055TIP3   OH230359   3.064   5.672   8.544 -0.0487 -0.4361 -0.0573
 2055TIP3    H130360   3.059   5.706   8.454 -0.8782  0.3977  0.2847
 2055TIP3    H230361   3.147   5.705   8.577 -0.7836  1.2476  0.2245
 2056TIP3   OH230362   2.202   5.105   2.048  0.5343 -0.0466  0.0309
 2056TIP3    H130363   2.203   5.181   2.107 -0.0191 -1.0047  1.3195
 2056TIP3    H230364   2.111   5.099   2.018  0.9717  0.9096 -1.6111
 2057TIP3   OH230365   0.097   5.536   7.540 -0.0417 -0.5361  0.3110
 2057TIP3    H130366   0.032   5.596   7.505  1.1176 -0.3538 -1.6681
 2057TIP3    H230367   0.138   5.497   7.463  0.8439 -2.1155  1.5306
 2058TIP3   OH230368   1.722   6.364   9.856 -0.0569  0.2264 -0.2829
 2058TIP3    H130369   1.775   6.340   9.780  0.0754 -0.8493  0.1311
 2058TIP3    H230370   1.743   6.457   9.871  0.1342  0.3766 -1.3647
 2059TIP3   OH230371   3.782   0.958   8.787 -0.0014  0.5815 -0.1624
 2059TIP3    H130372   3.874   0.959   8.810 -0.3037 -1.4831  1.3987
 2059TIP3    H230373   3.737   0.934   8.868 -1.7904  0.2180 -1.2107
 2060TIP3   OH230374   3.922   1.295   1.090 -0.2738  0.0241 -0.1506
 2060TIP3    H130375   3.921   1.331   1.178  0.4634  0.7489 -0.4298
 2060TIP3    H230376   3.903   1.202   1.102 -0.0533  0.0912  0.7798
 2061TIP3   OH230377   3.183   5.110   0.784 -0.1569 -0.0923 -0.0751
 2061TIP3    H130378   3.216   5.022   0.801 -0.4879 -0.2013  0.0152
 2061TIP3    H230379   3.166   5.147   0.871 -0.5437 -0.1435 -0.1283
 2062TIP3   OH230380   5.794   5.718   8.692 -0.1350 -0.7086  0.2975
 2062TIP3    H130381   5.753   5.637   8.664  0.5270 -0.8260 -0.3949
 2062TIP3    H230382   5.841   5.696   8.772 -0.8791 -0.7259  0.7358
 2063TIP3   OH230383   0.952   2.836   7.058  0.3547  0.4643 -0.9344
 2063TIP3    H130384   0.881   2.811   7.117  1.0462  0.0845 -0.2454
 2063TIP3    H230385   0.911   2.842   6.972 -0.3105 -0.7163 -0.7166
 2064TIP3   OH230386   2.619   0.987   7.862 -0.1421  0.0074 -0.3489
 2064TIP3    H130387   2.671   1.013   7.938 -2.1763 -0.9459  1.4809
 2064TIP3    H230388   2.559   0.920   7.895 -1.4818 -0.0744 -2.6911
 2065TIP3   OH230389   2.061   4.038   9.349 -0.4853 -0.3004  0.1071
 2065TIP3    H130390   2.011   4.066   9.272  0.7694  1.5293 -0.0969
 2065TIP3    H230391   2.094   3.951   9.324  2.6777  1.5192 -2.9440
 2066TIP3   OH230392   6.522   1.018   1.395  0.1023  0.0341  0.0994
 2066TIP3    H130393   6.487   0.936   1.361  0.1222  0.6675 -1.5270
 2066TIP3    H230394   6.560   1.061   1.319  0.8098  1.1974  1.0786
 2067TIP3   OH230395   6.466   0.159   9.577  0.6644  0.5254  0.3983
 2067TIP3    H130396   6.493   0.155   9.668  0.0918 -0.0725  0.5530
 2067TIP3    H230397   6.480   0.071   9.543 -0.0624  0.4744  0.1950
 2068TIP3   OH230398   6.650   6.753   8.688  0.4299  0.5259 -0.0180
 2068TIP3    H130399   6.725   6.786   8.738  1.1001  0.0898 -0.6999
 2068TIP3    H230400   6.690   6.700   8.618 -0.3599  2.4658 -2.0401
 2069TIP3   OH230401   1.030   6.292   8.888  0.4324  0.4611 -0.0025
 2069TIP3    H130402   1.115   6.247   8.890  0.0656 -0.2415  0.8728
 2069TIP3    H230403   1.008   6.298   8.795  0.6619 -0.8799 -0.1683
 2070TIP3   OH230404   2.539   4.289   0.861  0.1724 -0.1603  0.3554
 2070TIP3    H130405   2.514   4.375   0.895 -0.2720  0.6494 -1.8854
 2070TIP3    H230406   2.605   4.307   0.795  0.3687 -1.5896  0.1145
 2071TIP3   OH230407   0.000   2.630   8.589 -0.2636 -0.3862 -0.0215
 2071TIP3    H130408   0.081   2.608   8.636  0.2743 -1.5196 -1.4040
 2071TIP3    H230409   0.005   2.579   8.508  0.2512  3.4786 -2.7324
 2072TIP3   OH230410   3.664   7.583   2.252 -0.2565  0.1177 -0.1011
 2072TIP3    H130411   3.591   7.635   2.285 -0.7278 -0.7008  0.1792
 2072TIP3    H230412   3.652   7.497   2.292  1.5577  0.3047  0.9669
 2073TIP3   OH230413   5.263   0.374   2.063 -0.6284  0.2254  0.6130
 2073TIP3    H130414   5.290   0.353   2.153  0.0374 -0.6313  0.2272
 2073TIP3    H230415   5.228   0.463   2.069 -0.1826  0.3507  1.6334
 2074TIP3   OH230416   7.248   6.114   9.235  0.0271 -0.0785  0.0222
 2074TIP3    H130417   7.298   6.160   9.303  1.6985 -0.7613 -0.7010
 2074TIP3    H230418   7.293   6.030   9.225 -0.1651  0.0186 -1.9535
 2075TIP3   OH230419   6.277   1.883   9.510  0.0227 -0.3928  0.0897
 2075TIP3    H130420   6.216   1.911   9.578  1.0722 -0.0666  0.9400
 2075TIP3    H230421   6.359   1.867   9.557  0.6894 -0.4829 -1.0585
 2076TIP3   OH230422   4.311   6.043   8.011  0.3477 -0.7580 -0.5221
 2076TIP3    H130423   4.261   6.120   8.038 -1.8200 -2.5559  1.0074
 2076TIP3    H230424   4.328   6.057   7.918 -3.6711 -0.2509 -1.3813
 2077TIP3   OH230425   7.459   3.202   9.078 -0.8352  0.2664 -0.2866
 2077TIP3    H130426   7.532   3.140   9.069 -1.6088 -0.5654 -0.9708
 2077TIP3    H230427   7.502   3.286   9.097  0.2292 -0.4729  0.7450
 2078TIP3   OH230428   7.270   1.818   0.567 -0.0438 -0.0094  0.2032
 2078TIP3    H130429   7.282   1.723   0.573  0.4763  0.0355 -0.0788
 2078TIP3    H230430   7.271   1.848   0.658 -1.4942 -0.4144  0.3871
 2079TIP3   OH230431   1.391   4.323   8.365 -0.4494  0.3919  0.4370
 2079TIP3    H130432   1.366   4.241   8.408 -0.4271 -0.7915 -1.6445
 2079TIP3    H230433   1.389   4.388   8.434 -1.5098 -1.1620  1.9609
 2080TIP3   OH230434   0.871   0.956   0.828 -0.3265  0.1350  0.4090
 2080TIP3    H130435   0.846   0.917   0.912 -0.3838 -3.2886 -1.0185
 2080TIP3    H230436   0.814   0.913   0.764 -0.4807  2.8301 -1.4111
 2081TIP3   OH230437   7.367   1.137   7.956 -0.0657  0.3952  0.2363
 2081TIP3    H130438   7.384   1.154   8.048  0.9930  0.6889  0.0000
 2081TIP3    H230439   7.280   1.175   7.940 -1.3592 -1.7316  1.6470
 2082TIP3   OH230440   0.582   1.476   9.806  1.1077 -0.0937  0.7180
 2082TIP3    H130441   0.652   1.532   9.838  0.5028  1.5589 -0.6917
 2082TIP3    H230442   0.519   1.536   9.766 -0.0622 -1.7059  0.0037
 2083TIP3   OH230443   2.968   7.273   0.076  0.0367 -0.0212 -0.5788
 2083TIP3    H130444   2.949   7.282   0.169 -1.7662 -1.2389 -0.7664
 2083TIP3    H230445   3.015   7.189   0.070 -1.2199 -0.7224 -0.8962
 2084TIP3   OH230446   0.569   4.409   0.082  0.1416 -0.8560 -0.1286
 2084TIP3    H130447   0.549   4.496   0.116  1.0054 -0.9781  0.7202
 2084TIP3    H230448   0.483   4.374   0.056 -0.0826  0.7174 -1.7072
 2085TIP3   OH230449   6.398   0.622   8.570 -0.0171  0.1745  0.2288
 2085TIP3    H130450   6.329   0.557   8.582 -0.0905 -0.0254 -1.1190
 2085TIP3    H230451   6.374   0.669   8.490  0.0627  1.8481  1.1409
 2086TIP3   OH230452   3.344   1.126   9.559 -0.0979 -0.4727 -0.7196
 2086TIP3    H130453   3.387   1.208   9.582 -1.1299  0.0667 -0.6627
 2086TIP3    H230454   3.410   1.059   9.576 -0.2356  0.0179  2.3015
 2087TIP3   OH230455   4.177   5.523   7.675 -0.0607 -0.0527 -0.3833
 2087TIP3    H130456   4.239   5.520   7.602 -1.0646 -1.0682 -1.2318
 2087TIP3    H230457   4.227   5.561   7.748  2.4459 -3.2890 -0.1909
 2088TIP3   OH230458   6.152   3.729   9.766 -0.3066  0.8754 -0.2844
 2088TIP3    H130459   6.111   3.698   9.846 -0.7583 -0.0604 -0.8580
 2088TIP3    H230460   6.244   3.742   9.788  0.1477 -1.9073 -0.2585
 2089TIP3   OH230461   1.652   0.071   1.676  0.1769 -0.2717 -0.6615
 2089TIP3    H130462   1.595   0.028   1.611 -0.9856  0.9813 -0.5072
 2089TIP3    H230463   1.657   0.008   1.748 -0.6911 -0.5745 -0.8463
 2090TIP3   OH230464   0.334   5.884   3.013 -0.1233 -0.2147 -0.7096
 2090TIP3    H130465   0.421   5.901   3.049  1.0000 -0.5199 -3.0574
 2090TIP3    H230466   0.328   5.788   3.009 -0.1051 -0.1883 -1.5396
 2091TIP3   OH230467   3.443   5.900   0.407  0.4001 -0.4558  0.4994
 2091TIP3    H130468   3.389   5.929   0.481  1.8879  0.7873  1.1558
 2091TIP3    H230469   3.433   5.805   0.407 -2.6155 -0.2519 -0.1106
 2092TIP3   OH230470   4.354   6.344   9.476 -0.1922 -0.2625  0.3003
 2092TIP3    H130471   4.426   6.376   9.531  1.5795 -1.2982 -1.2786
 2092TIP3    H230472   4.357   6.400   9.399 -0.7089 -0.6798 -0.0251
 2093TIP3   OH230473   2.103   0.489   8.594 -0.2619  0.4712  0.2801
 2093TIP3    H130474   2.163   0.472   8.521 -0.4370 -0.2067  0.2832
 2093TIP3    H230475   2.135   0.569   8.634 -1.0491  1.7138 -1.4541
 2094TIP3   OH230476   2.460   2.608   9.296  0.1065  0.1004 -0.6703
 2094TIP3    H130477   2.418   2.679   9.344 -0.4771 -0.2747 -0.6237
 2094TIP3    H230478   2.548   2.602   9.335 -0.2730 -0.0374  0.1895
 2095TIP3   OH230479   0.200   4.554   1.338  0.0915 -0.1164  0.0126
 2095TIP3    H130480   0.207   4.649   1.330  2.8139 -0.1443  0.7990
 2095TIP3    H230481   0.157   4.525   1.258  0.1551  1.7094 -0.7212
 2096TIP3   OH230482   3.051   2.648   8.643 -0.0974 -0.0040 -0.3348
 2096TIP3    H130483   3.032   2.576   8.583  0.6363 -0.9531  0.5342
 2096TIP3    H230484   3.091   2.715   8.587  0.4179 -0.7972 -0.9567
 2097TIP3   OH230485   3.850   4.673   0.578 -0.1126 -0.2985  0.0661
 2097TIP3    H130486   3.856   4.645   0.487  0.4914 -0.1054  0.0459
 2097TIP3    H230487   3.862   4.768   0.575 -0.5869 -0.2278  0.2978
 2098TIP3   OH230488   4.683   5.698   0.465 -0.2066 -0.8491  0.4231
 2098TIP3    H130489   4.720   5.616   0.498  0.1734 -1.3768 -1.2507
 2098TIP3    H230490   4.718   5.707   0.377 -0.8426  0.7478  0.2917
 2099TIP3   OH230491   1.172   6.358   8.029 -0.1008 -0.3502 -0.0882
 2099TIP3    H130492   1.138   6.356   7.939  2.5010  0.4001 -1.2103
 2099TIP3    H230493   1.199   6.449   8.042  0.2748 -0.6293  1.1534
 2100TIP3   OH230494   4.839   3.566   8.966  0.0083  0.7358 -0.0441
 2100TIP3    H130495   4.793   3.568   8.882 -1.3280 -0.7165  0.5954
 2100TIP3    H230496   4.930   3.584   8.944 -0.3900  0.8681 -1.7419
 2101TIP3   OH230497   1.202   0.909   8.837  0.0013  0.1459 -0.0885
 2101TIP3    H130498   1.279   0.931   8.889 -0.5199  0.6944  0.4633
 2101TIP3    H230499   1.204   0.813   8.829  0.2682  0.0865  0.6628
 2102TIP3   OH230500   7.428   3.740   7.720  0.5190 -1.0195  0.5683
 2102TIP3    H130501   7.364   3.685   7.675  0.3207 -2.4099  2.3919
 2102TIP3    H230502   7.478   3.679   7.774  2.4580  0.2277  0.2746
 2103TIP3   OH230503   2.239   5.561   0.526 -0.0068 -0.3115  0.5439
 2103TIP3    H130504   2.257   5.605   0.442 -1.2418  1.7235  1.2610
 2103TIP3    H230505   2.279   5.618   0.592  0.9872 -1.9149  1.3863
 2104TIP3   OH230506   1.442   1.848   3.015  0.1574  0.3354  0.7584
 2104TIP3    H130507   1.372   1.908   3.042 -0.5149 -0.9417  1.9159
 2104TIP3    H230508   1.520   1.904   3.010 -0.3834  1.2709  2.1120
 2105TIP3   OH230509   4.542   1.663   9.242 -0.2008 -0.1244 -0.2845
 2105TIP3    H130510   4.626   1.656   9.288 -0.5749 -0.3766  0.3847
 2105TIP3    H230511   4.544   1.593   9.177  0.8142  0.9736 -1.4747
 2106TIP3   OH230512   7.192   3.200   8.522 -0.0954  0.4189 -0.0067
 2106TIP3    H130513   7.239   3.220   8.441 -0.4910  0.3246 -0.2626
 2106TIP3    H230514   7.254   3.149   8.575 -0.1685 -0.3559 -0.6538
 2107TIP3   OH230515   0.469   5.924   8.521  0.1531  0.7457 -0.6144
 2107TIP3    H130516   0.551   5.890   8.486 -0.6124 -2.7240  0.5885
 2107TIP3    H230517   0.406   5.913   8.449  0.1261  0.6334 -0.5730
 2108TIP3   OH230518   2.327   3.461   7.304  0.0170  0.5243  0.0023
 2108TIP3    H130519   2.320   3.507   7.388 -1.7518 -1.6978  1.1910
 2108TIP3    H230520   2.337   3.530   7.239 -1.0056  2.4785  1.8079
 2109TIP3   OH230521   1.769   5.204   2.313 -0.1401  0.1523  0.5259
 2109TIP3    H130522   1.783   5.109   2.311 -3.7903 -0.5534  1.6061
 2109TIP3    H230523   1.757   5.228   2.221  0.9824 -0.3679  0.2228
 2110TIP3   OH230524   7.213   6.869   1.959 -0.9783 -0.3351 -0.1406
 2110TIP3    H130525   7.291   6.816   1.972 -1.7182 -1.4115  0.1188
 2110TIP3    H230526   7.141   6.811   1.984 -1.8161  0.8474  0.2673
 2111TIP3   OH230527   2.463   1.918   0.438  0.1538 -0.5410  0.1155
 2111TIP3    H130528   2.520   1.934   0.514  2.1275  0.5290 -1.4897
 2111TIP3    H230529   2.505   1.846   0.392 -0.8840 -1.0055 -0.1354
 2112TIP3   OH230530   1.711   3.320   1.613  0.4162 -0.2867 -0.0291
 2112TIP3    H130531   1.757   3.399   1.642  1.3243 -0.6168 -0.5246
 2112TIP3    H230532   1.749   3.301   1.527  0.0976 -1.1829  0.0216
 2113TIP3   OH230533   2.177   0.754   1.007  0.0295 -0.2051 -0.1801
 2113TIP3    H130534   2.136   0.668   1.006  1.3267 -0.8348 -1.2608
 2113TIP3    H230535   2.139   0.800   0.932 -0.2382 -0.0336  0.0584
 2114TIP3   OH230536   5.121   1.469   0.386 -0.3676  0.6371 -0.0361
 2114TIP3    H130537   5.124   1.486   0.292 -3.6965 -1.4167 -0.6743
 2114TIP3    H230538   5.197   1.412   0.403  0.2964  1.0755 -1.4273
 2115TIP3   OH230539   4.165   6.042   0.725  0.4990 -0.1228 -0.2548
 2115TIP3    H130540   4.225   6.114   0.707 -0.3284  0.3065 -1.3448
 2115TIP3    H230541   4.163   6.037   0.821  0.6343  1.2508 -0.1543
 2116TIP3   OH230542   6.951   0.151   1.394  0.2133 -0.1022 -0.6466
 2116TIP3    H130543   6.978   0.083   1.331 -1.3134 -1.2827 -0.1107
 2116TIP3    H230544   7.032   0.195   1.419  1.0443 -0.6492 -2.2562
 2117TIP3   OH230545   3.001   2.141   0.979  0.2714 -0.3395 -0.2569
 2117TIP3    H130546   2.973   2.069   1.035  0.4595 -1.1296 -1.1580
 2117TIP3    H230547   3.070   2.185   1.029  0.9260 -1.4574 -0.1607
 2118TIP3   OH230548   0.881   2.766   1.209  0.3137  0.7130  0.6307
 2118TIP3    H130549   0.889   2.791   1.302 -2.9401  1.1231  0.9160
 2118TIP3    H230550   0.932   2.832   1.163  0.9947  1.2409  2.0580
 2119TIP3   OH230551   7.336   3.255   8.265 -0.1625  0.0048 -0.5429
 2119TIP3    H130552   7.335   3.234   8.172  0.6773 -1.0006 -0.3417
 2119TIP3    H230553   7.389   3.186   8.305 -1.4979 -0.2834  0.8475
 2120TIP3   OH230554   3.723   2.317   9.160 -0.2594  0.5758 -0.3050
 2120TIP3    H130555   3.760   2.312   9.248  0.6544  0.5125 -0.6886
 2120TIP3    H230556   3.677   2.234   9.148  0.3540  0.2235 -0.2138
 2121TIP3   OH230557   6.885   4.615   7.641 -0.0621  0.1609  0.5220
 2121TIP3    H130558   6.952   4.573   7.586 -0.3051  0.8010 -0.2778
 2121TIP3    H230559   6.837   4.672   7.582  0.8117  2.2614  1.7077
 2122TIP3   OH230560   6.210   2.891   7.479  0.2139 -0.2441  0.0565
 2122TIP3    H130561   6.302   2.870   7.466 -0.0513 -0.1724 -2.3092
 2122TIP3    H230562   6.190   2.957   7.413 -1.3378  0.3850  1.0984
 2123TIP3   OH230563   6.019   1.384   0.658  0.2046 -0.0221  0.2414
 2123TIP3    H130564   6.049   1.473   0.681 -1.0401  0.5998 -0.4788
 2123TIP3    H230565   5.954   1.363   0.725  0.3758 -0.3335  0.3114
 2124TIP3   OH230566   0.829   0.951   9.236  0.3167 -0.0913  0.0864
 2124TIP3    H130567   0.847   0.990   9.151  0.8059  0.0019  0.2270
 2124TIP3    H230568   0.866   0.863   9.231  0.4130 -0.0603  0.2247
 2125TIP3   OH230569   7.249   1.219   1.551 -0.0505 -0.1594 -0.6092
 2125TIP3    H130570   7.159   1.200   1.524 -0.3008 -0.8494  0.6402
 2125TIP3    H230571   7.257   1.314   1.543 -1.5192  0.1510  1.0526
 2126TIP3   OH230572   4.604   2.223   7.341 -0.0106  0.4277 -0.3824
 2126TIP3    H130573   4.518   2.224   7.381 -0.0921 -2.7241 -0.2435
 2126TIP3    H230574   4.587   2.223   7.247 -0.0070  2.2498 -0.4215
 2127TIP3   OH230575   0.448   3.253   0.351  0.3294  0.4792 -0.1659
 2127TIP3    H130576   0.487   3.168   0.373 -0.0325  0.4473  0.3623
 2127TIP3    H230577   0.426   3.292   0.435  1.4776  1.5832 -0.3355
 2128TIP3   OH230578   4.109   2.866   7.323 -0.5384  0.1965  0.1107
 2128TIP3    H130579   4.110   2.882   7.417 -1.1604  0.2420  0.1120
 2128TIP3    H230580   4.181   2.919   7.289  0.4609 -0.7550  0.7042
 2129TIP3   OH230581   2.911   2.857   7.473 -0.5978  0.4975  0.3044
 2129TIP3    H130582   2.895   2.786   7.411  0.6564  0.9315 -0.5445
 2129TIP3    H230583   2.829   2.907   7.473 -1.1536 -0.3932  0.1999
 2130TIP3   OH230584   2.868   0.375   2.971  0.3043  0.2754  0.1185
 2130TIP3    H130585   2.815   0.313   3.021  0.3124 -0.6882 -1.0274
 2130TIP3    H230586   2.958   0.356   2.996  0.3736 -0.7654 -0.8061
 2131TIP3   OH230587   4.993   2.435   1.359 -0.2385 -0.6593  0.1299
 2131TIP3    H130588   4.937   2.403   1.429 -0.1749  0.2244  0.6104
 2131TIP3    H230589   5.047   2.360   1.334 -1.4727 -1.4572 -0.1961
 2132TIP3   OH230590   4.715   3.239   7.720  0.3544  0.1953 -0.1711
 2132TIP3    H130591   4.620   3.250   7.724  0.2093 -1.3090  1.8621
 2132TIP3    H230592   4.728   3.144   7.722  1.9252  0.3930  2.0131
 2133TIP3   OH230593   6.948   0.635   8.398  0.0664 -0.7688  0.5574
 2133TIP3    H130594   7.042   0.635   8.417 -0.2005  0.0821  2.0529
 2133TIP3    H230595   6.915   0.555   8.440  0.0977 -1.0159  0.1184
 2134TIP3   OH230596   1.760   2.964   7.528 -0.3832 -0.2240 -0.0736
 2134TIP3    H130597   1.678   2.920   7.506 -1.1331  0.9236  0.3230
 2134TIP3    H230598   1.821   2.937   7.459 -1.3623 -0.3469 -0.9188
 2135TIP3   OH230599   4.991   3.570   8.664  0.4437 -0.1661  0.0945
 2135TIP3    H130600   5.071   3.611   8.697  1.2934 -1.2914 -0.5349
 2135TIP3    H230601   4.935   3.644   8.641  1.2333  0.6419  0.6654
 2136TIP3   OH230602   6.926   7.470   0.616 -0.1362 -0.8049  0.5318
 2136TIP3    H130603   7.001   7.422   0.653 -0.1226 -0.1630  1.3515
 2136TIP3    H230604   6.853   7.447   0.672 -0.1437  0.0879  0.8979
 2137TIP3   OH230605   0.669   5.330   8.251 -0.3704 -0.0639 -0.4049
 2137TIP3    H130606   0.690   5.326   8.158 -1.3077 -0.6946 -0.5967
 2137TIP3    H230607   0.708   5.413   8.280 -1.1175  0.7437 -1.6213
 2138TIP3   OH230608   2.199   6.206   2.162 -0.3422 -0.5079 -0.0562
 2138TIP3    H130609   2.197   6.115   2.192 -1.8701  0.3674  2.9453
 2138TIP3    H230610   2.280   6.241   2.200 -0.2455 -0.3693 -0.3915
 2139TIP3   OH230611   1.914   3.736   8.840  0.0817  0.5711 -0.8861
 2139TIP3    H130612   1.988   3.696   8.886  0.5150  1.9084 -0.3672
 2139TIP3    H230613   1.948   3.757   8.753  0.0397  0.3741 -0.9504
 2140TIP3   OH230614   7.154   1.240   9.682 -0.3517 -0.2332  0.2601
 2140TIP3    H130615   7.139   1.317   9.627 -1.3088 -0.6037 -0.0093
 2140TIP3    H230616   7.067   1.202   9.694  0.0727 -1.0840  0.6742
 2141TIP3   OH230617   6.977   7.249   9.505 -0.0917  0.2279  0.0914
 2141TIP3    H130618   7.047   7.314   9.499  1.0906 -0.9659  0.4773
 2141TIP3    H230619   6.990   7.207   9.590 -0.6679 -0.6632 -0.2417
 2142TIP3   OH230620   4.546   3.981   1.328 -0.4447  0.9020 -0.5216
 2142TIP3    H130621   4.615   3.921   1.300 -1.8907 -0.3337 -1.5749
 2142TIP3    H230622   4.491   3.992   1.251 -1.5787  1.6478  0.3715
 2143TIP3   OH230623   0.404   2.201   0.339 -0.0480  0.3894  0.6112
 2143TIP3    H130624   0.318   2.242   0.349 -1.6328 -2.3158 -0.7871
 2143TIP3    H230625   0.404   2.129   0.403  1.2340  0.4380  0.6894
 2144TIP3   OH230626   1.001   4.012   2.184 -0.5720 -0.5622 -0.3188
 2144TIP3    H130627   1.093   4.038   2.185 -0.7658  0.2034 -1.1666
 2144TIP3    H230628   0.994   3.946   2.253  0.1744  0.8985  1.2209
 2145TIP3   OH230629   4.606   2.204   7.954  0.0233 -0.7571 -0.4193
 2145TIP3    H130630   4.698   2.177   7.944  0.7890  0.4621  2.3425
 2145TIP3    H230631   4.573   2.149   8.026 -1.3189 -0.8732 -1.0896
 2146TIP3   OH230632   3.466   1.514   8.802 -0.1875  0.1547  0.0262
 2146TIP3    H130633   3.520   1.446   8.762 -1.4796  1.0966 -3.7209
 2146TIP3    H230634   3.457   1.487   8.893  4.5897 -1.2459  0.3638
 2147TIP3   OH230635   3.561   6.029   1.848  0.0801 -0.2437 -0.1744
 2147TIP3    H130636   3.495   6.099   1.845  0.6947  0.3418 -0.1070
 2147TIP3    H230637   3.527   5.961   1.789  0.6056  1.0977 -2.0922
 2148TIP3   OH230638   0.387   1.771   0.106 -0.3950  0.1684  0.1507
 2148TIP3    H130639   0.322   1.740   0.170 -0.1335  1.0228  0.8531
 2148TIP3    H230640   0.470   1.767   0.153 -0.0860  0.0712 -0.4024
 2149TIP3   OH230641   2.424   2.967   1.350 -0.0710 -0.1536  0.4904
 2149TIP3    H130642   2.430   3.012   1.434  0.1511 -0.7697  0.8086
 2149TIP3    H230643   2.371   2.890   1.368  1.1039 -1.0074  0.3855
 2150TIP3   OH230644   5.395   3.003   7.382 -0.3360 -0.0763 -0.2552
 2150TIP3    H130645   5.487   3.018   7.360 -0.3899 -0.4645 -0.7850
 2150TIP3    H230646   5.362   3.088   7.411  0.1819  0.0691 -0.0849
 2151TIP3   OH230647   0.247   5.035   0.339 -0.4329 -0.7982  0.0509
 2151TIP3    H130648   0.179   5.037   0.271 -0.5099 -1.1246  0.1182
 2151TIP3    H230649   0.325   5.072   0.296 -0.6052 -0.5821 -0.0774
 2152TIP3   OH230650   0.276   7.637   9.613 -0.1644 -0.9157  0.1279
 2152TIP3    H130651   0.340   7.623   9.683  1.6160 -1.1362 -1.4416
 2152TIP3    H230652   0.315   7.706   9.559 -1.7136 -0.4139 -0.4098
 2153TIP3   OH230653   0.510   6.646   9.636  0.1028  0.1656 -0.1252
 2153TIP3    H130654   0.541   6.709   9.572  1.3824 -1.5240 -1.2522
 2153TIP3    H230655   0.440   6.691   9.683  1.3731  2.6020 -0.4504
 2154TIP3   OH230656   0.741   5.998   9.402  0.6950 -0.6655  0.0593
 2154TIP3    H130657   0.787   6.060   9.346 -0.2944 -0.0194 -0.0749
 2154TIP3    H230658   0.689   5.945   9.341  1.4562 -1.5680  0.1810
 2155TIP3   OH230659   6.831   2.865   9.698  0.1732  0.3315  0.4192
 2155TIP3    H130660   6.852   2.781   9.656 -1.2086 -1.0597  2.3591
 2155TIP3    H230661   6.804   2.842   9.787 -3.5753  2.4562  0.0295
 2156TIP3   OH230662   4.669   2.187   0.477 -0.1466  0.6213 -0.1945
 2156TIP3    H130663   4.731   2.168   0.548 -0.6920  3.1301  1.0859
 2156TIP3    H230664   4.639   2.101   0.447  1.1099 -0.5620  1.7254
 2157TIP3   OH230665   2.951   6.998   1.451 -0.2888  0.0584  0.3236
 2157TIP3    H130666   3.033   7.005   1.402 -0.0230 -0.3825  0.6997
 2157TIP3    H230667   2.940   6.904   1.467 -0.2846  0.2067  1.2520
 2158TIP3   OH230668   6.365   7.325   1.103 -0.2838 -0.0441  0.7785
 2158TIP3    H130669   6.387   7.369   1.020 -0.7908  0.4965  0.9255
 2158TIP3    H230670   6.422   7.248   1.105  0.8215  0.7402  0.6338
 2159TIP3   OH230671   0.619   4.523   8.607 -0.2009 -0.1148  0.2034
 2159TIP3    H130672   0.554   4.594   8.611 -0.2272 -0.1712  0.7796
 2159TIP3    H230673   0.633   4.509   8.513  1.0062  1.7611  0.0437
 2160TIP3   OH230674   2.339   3.095   6.825  0.5825 -0.1862  0.0116
 2160TIP3    H130675   2.365   3.169   6.879  1.1370 -1.1946  1.1700
 2160TIP3    H230676   2.248   3.114   6.802  0.9464  1.2200 -0.3851
 2161TIP3   OH230677   7.202   2.282   1.084 -0.1685 -0.3819  1.0012
 2161TIP3    H130678   7.161   2.259   1.001  1.6213  1.7156 -0.5851
 2161TIP3    H230679   7.165   2.367   1.106  1.8353  0.6944  0.4779
 2162TIP3   OH230680   1.651   5.283   2.073 -0.0379  0.5365 -0.6550
 2162TIP3    H130681   1.616   5.267   1.985 -1.9062  0.4266  0.0654
 2162TIP3    H230682   1.710   5.358   2.062 -2.3106  2.3208 -1.5808
 2163TIP3   OH230683   6.809   6.447   7.892 -0.2409 -0.1572 -0.1853
 2163TIP3    H130684   6.733   6.399   7.858 -0.6212  0.7860 -0.6923
 2163TIP3    H230685   6.812   6.527   7.841  0.3113  0.4269  0.7320
 2164TIP3   OH230686   2.125   6.083   9.639 -0.3718  0.1673  0.4104
 2164TIP3    H130687   2.094   6.130   9.562  0.5581 -1.8230 -1.2833
 2164TIP3    H230688   2.045   6.045   9.677 -0.7236  0.3423 -0.1425
 2165TIP3   OH230689   2.771   0.377   2.444 -0.1543 -0.0606 -0.0934
 2165TIP3    H130690   2.796   0.469   2.437 -1.7743  0.3273 -1.2380
 2165TIP3    H230691   2.742   0.366   2.534  0.7736  0.3425  0.2641
 2166TIP3   OH230692   2.354   2.320   0.710  0.0598 -0.7400 -0.2216
 2166TIP3    H130693   2.304   2.301   0.630 -0.8806 -0.5354  0.2985
 2166TIP3    H230694   2.291   2.305   0.781  0.8894 -0.9314  0.4799
 2167TIP3   OH230695   7.408   7.250   0.852  0.1717  0.1681  0.9717
 2167TIP3    H130696   7.434   7.167   0.894 -0.0665  0.6558  2.1217
 2167TIP3    H230697   7.490   7.293   0.830  0.3128  0.1701  1.4911
 2168TIP3   OH230698   4.954   6.087   9.668 -0.6140  0.1218 -0.4773
 2168TIP3    H130699   4.909   6.113   9.749 -2.8911  1.9471 -2.1812
 2168TIP3    H230700   5.045   6.116   9.681 -1.1293  1.2075  1.0657
 2169TIP3   OH230701   3.876   4.279   9.235 -0.5079 -0.0274  0.0367
 2169TIP3    H130702   3.793   4.237   9.257 -0.0933 -0.6254  0.5102
 2169TIP3    H230703   3.852   4.363   9.196 -1.4856 -1.6530 -3.2645
 2170TIP3   OH230704   0.056   2.151   0.561 -1.2957  0.3824  0.7706
 2170TIP3    H130705   0.071   2.242   0.585 -1.8933  0.2151  1.8230
 2170TIP3    H230706  -0.021   2.153   0.504  1.0406  0.9725 -2.7338
 2171TIP3   OH230707   1.824   3.137   9.051 -0.6911  0.0134  0.3583
 2171TIP3    H130708   1.908   3.097   9.076 -0.6905  0.0781  0.4574
 2171TIP3    H230709   1.842   3.231   9.049 -0.7548  0.0256  0.3542
 2172TIP3   OH230710   5.444   0.305   1.198 -0.3650 -0.6765  0.0072
 2172TIP3    H130711   5.393   0.302   1.117 -0.7092 -2.1527  0.2548
 2172TIP3    H230712   5.523   0.254   1.180  0.1149 -0.0299  0.2387
 2173TIP3   OH230713   0.354   6.298   9.793 -0.1257  0.0716 -0.2734
 2173TIP3    H130714   0.412   6.265   9.862 -1.0997  1.3953  1.2396
 2173TIP3    H230715   0.291   6.228   9.779  1.0321 -0.8698 -1.0371
 2174TIP3   OH230716   1.554   5.644   2.336 -0.4833 -0.0008 -0.4407
 2174TIP3    H130717   1.582   5.708   2.402 -2.0537 -0.7161  0.9979
 2174TIP3    H230718   1.627   5.582   2.331  0.4441  1.0818 -0.7895
 2175TIP3   OH230719   3.363   1.758   0.241  0.0011  0.2198  0.0449
 2175TIP3    H130720   3.311   1.679   0.256 -0.7127  0.8075  0.7087
 2175TIP3    H230721   3.307   1.814   0.187  1.0249 -0.2527 -1.6095
 2176TIP3   OH230722   6.158   0.019   1.585 -0.0424 -0.1000 -0.0379
 2176TIP3    H130723   6.216   0.031   1.510 -2.2463 -3.0697 -2.4632
 2176TIP3    H230724   6.158   0.104   1.629  3.6342  0.9045 -1.6312
 2177TIP3   OH230725   0.215   3.092   1.187  0.2928  0.1391  0.4814
 2177TIP3    H130726   0.201   3.122   1.098 -0.3303 -1.5346 -0.0338
 2177TIP3    H230727   0.273   3.157   1.226 -0.1258  1.3624 -0.8583
 2178TIP3   OH230728   1.912   0.637   8.016  0.0637 -0.0236  0.0468
 2178TIP3    H130729   1.950   0.691   8.086  1.9838  0.4920 -1.3113
 2178TIP3    H230730   1.983   0.577   7.991 -0.5300 -0.1190 -1.5159
 2179TIP3   OH230731   5.415   2.061   9.638 -0.3564  0.2535  0.4387
 2179TIP3    H130732   5.475   2.028   9.705 -0.3516  1.5369  1.1028
 2179TIP3    H230733   5.329   2.028   9.665 -0.1512 -0.4685  0.2354
 2180TIP3   OH230734   6.521   0.848   8.706  0.1877 -1.0433 -0.1159
 2180TIP3    H130735   6.480   0.769   8.672  0.7314 -1.4533  0.1825
 2180TIP3    H230736   6.613   0.825   8.718  0.2602 -0.5033  0.4053
 2181TIP3   OH230737   4.809   2.077   1.422 -0.2420 -1.2742 -0.6304
 2181TIP3    H130738   4.767   2.003   1.465 -0.6886 -0.8723 -0.3633
 2181TIP3    H230739   4.881   2.038   1.372 -1.6296 -2.1162 -2.0326
 2182TIP3   OH230740   3.245   6.185   1.272  0.3471 -0.3672  0.6006
 2182TIP3    H130741   3.219   6.109   1.220 -1.5345  1.0508 -0.6528
 2182TIP3    H230742   3.334   6.165   1.301  2.1842 -0.7042 -4.3859
 2183TIP3   OH230743   5.216   4.036   0.379  0.4280 -0.1336 -0.0788
 2183TIP3    H130744   5.281   3.988   0.328 -0.4481 -0.9140 -0.4929
 2183TIP3    H230745   5.250   4.034   0.469  1.8425  1.0178 -0.5574
 2184TIP3   OH230746   5.364   6.627   1.854  0.4663 -0.0136  0.1912
 2184TIP3    H130747   5.354   6.579   1.936  0.5915 -2.0250 -0.9262
 2184TIP3    H230748   5.292   6.595   1.799  0.7962  0.7984 -0.7377
 2185TIP3   OH230749   5.136   0.323   8.045  0.2830  0.2793 -0.2734
 2185TIP3    H130750   5.226   0.290   8.040 -0.2020 -1.0733 -0.4518
 2185TIP3    H230751   5.103   0.315   7.956 -0.4657 -0.6071  0.0700
 2186TIP3   OH230752   5.622   6.195   1.710 -0.0468  0.0705  0.1864
 2186TIP3    H130753   5.610   6.193   1.805  0.1783  0.8295  0.2395
 2186TIP3    H230754   5.606   6.286   1.686 -4.2228 -0.8062 -1.0855
 2187TIP3   OH230755   4.481   2.313   9.421  0.5827  0.1679 -0.1609
 2187TIP3    H130756   4.431   2.252   9.366  1.3930  0.7376 -1.5855
 2187TIP3    H230757   4.533   2.365   9.359  2.6875 -0.1574  1.2028
 2188TIP3   OH230758   7.570   2.009   9.980  0.3655 -0.8325  0.0784
 2188TIP3    H130759   7.651   2.057   9.998 -0.3845  1.4179 -1.9201
 2188TIP3    H230760   7.530   1.998  10.066  2.1626 -0.8430  0.9707
 2189TIP3   OH230761   3.829   3.145   1.404  0.2953 -0.3679 -0.5421
 2189TIP3    H130762   3.831   3.052   1.378  1.0071 -0.5568  0.1379
 2189TIP3    H230763   3.921   3.170   1.408  0.1220  0.2396 -0.2557
 2190TIP3   OH230764   7.456   2.461   8.672 -0.0864 -0.7885  0.0229
 2190TIP3    H130765   7.498   2.542   8.641 -0.5939 -0.3103  0.5724
 2190TIP3    H230766   7.514   2.429   8.740  0.8230 -1.6267 -1.1065
 2191TIP3   OH230767   0.894   5.313   1.928  0.0133  0.7225  0.4132
 2191TIP3    H130768   0.883   5.225   1.891 -0.2770  0.9703 -0.0969
 2191TIP3    H230769   0.988   5.323   1.939  0.4605  1.7769 -3.1075
 2192TIP3   OH230770   2.252   0.782   2.988  0.4504 -0.0461 -0.3078
 2192TIP3    H130771   2.177   0.832   2.957 -0.1474 -0.8864 -0.2211
 2192TIP3    H230772   2.222   0.738   3.067  0.9766 -0.5355 -0.3685
 2193TIP3   OH230773   5.008   6.625   8.984  0.3122 -0.0016  0.5910
 2193TIP3    H130774   4.969   6.710   8.999  0.8656  0.6045 -1.1732
 2193TIP3    H230775   5.076   6.617   9.051  0.0960  0.8435  0.9116
 2194TIP3   OH230776   5.109   7.440   9.031 -0.6479  0.5908  0.2590
 2194TIP3    H130777   5.147   7.353   9.022 -0.3125  0.8049 -0.4137
 2194TIP3    H230778   5.150   7.476   9.109 -1.0234  0.0341  0.7257
 2195TIP3   OH230779   6.917   4.301   7.417 -0.7461  0.8660  0.2184
 2195TIP3    H130780   6.827   4.331   7.430 -0.7798  1.0339 -0.3953
 2195TIP3    H230781   6.971   4.380   7.423 -0.8399  1.0903 -1.4510
 2196TIP3   OH230782   0.135   2.359   1.125  0.4915  0.3538 -0.3526
 2196TIP3    H130783   0.128   2.345   1.031 -0.5376  2.3918 -0.6371
 2196TIP3    H230784   0.230   2.366   1.141  0.7166 -0.8161 -1.0652
 2197TIP3   OH230785   6.931   5.389   0.490 -0.1852 -0.1484 -0.1708
 2197TIP3    H130786   6.860   5.451   0.468 -0.8349 -0.2863  1.4400
 2197TIP3    H230787   6.990   5.393   0.414 -2.9016 -1.5523 -2.5702
 2198TIP3   OH230788   1.022   6.764   2.013  0.4742 -0.5384  0.2793
 2198TIP3    H130789   1.106   6.723   2.030  1.1951  1.1596  1.0930
 2198TIP3    H230790   0.982   6.773   2.100  1.0817  1.8707  0.3958
 2199TIP3   OH230791   1.431   5.065   0.523 -0.6351  0.0406 -0.1821
 2199TIP3    H130792   1.395   5.083   0.436  0.2699  0.8234 -0.4105
 2199TIP3    H230793   1.478   5.145   0.547  0.3223 -0.6818  0.4148
 2200TIP3   OH230794   6.471   4.876   8.584  0.1434 -0.5217 -0.0200
 2200TIP3    H130795   6.532   4.808   8.614  0.7340 -0.0987 -0.2414
 2200TIP3    H230796   6.431   4.910   8.665  0.7370 -0.3071  0.1893
 2201TIP3   OH230797   3.329   4.473   6.752  0.3624 -0.0781 -0.3735
 2201TIP3    H130798   3.404   4.432   6.796  1.5409  0.0554 -2.1217
 2201TIP3    H230799   3.356   4.564   6.740 -0.4171  0.1602 -0.3691
 2202TIP3   OH230800   4.053   1.823   0.154 -0.3556  0.1173  0.1663
 2202TIP3    H130801   4.112   1.895   0.174 -0.6292  0.5669 -0.5933
 2202TIP3    H230802   4.053   1.769   0.233  0.0886  0.7798  0.6296
 2203TIP3   OH230803   4.226   4.117   1.651 -0.5615  0.4537 -0.3309
 2203TIP3    H130804   4.203   4.025   1.638  1.6077 -0.3408  0.9945
 2203TIP3    H230805   4.173   4.144   1.727  0.8862 -0.6048  1.1152
 2204TIP3   OH230806   6.561   6.572   9.061  0.1066  0.5213  0.1481
 2204TIP3    H130807   6.540   6.535   9.146  0.3251 -0.8841 -0.3782
 2204TIP3    H230808   6.554   6.666   9.073  0.2379  0.3545  1.7407
 2205TIP3   OH230809   0.719   1.685   8.903  0.3441 -0.0010 -0.0447
 2205TIP3    H130810   0.737   1.629   8.827 -0.9746 -0.8613  0.2471
 2205TIP3    H230811   0.624   1.685   8.911  0.4922 -1.7048  2.8761
 2206TIP3   OH230812   4.019   1.652   9.246  0.5073 -0.1137 -0.2362
 2206TIP3    H130813   4.030   1.739   9.207  0.4685 -0.3868 -0.8642
 2206TIP3    H230814   4.056   1.661   9.334  0.2022  0.6265 -0.1724
 2207TIP3   OH230815   2.559   6.949   2.118 -0.3210  0.9034  0.5378
 2207TIP3    H130816   2.597   6.862   2.110  0.7359  1.1901  1.8762
 2207TIP3    H230817   2.474   6.935   2.160 -1.6855  0.2789 -2.2299
 2208TIP3   OH230818   4.256   2.890   8.067 -0.0445  0.5564 -0.5345
 2208TIP3    H130819   4.251   2.979   8.032  0.1859  0.9971  0.4875
 2208TIP3    H230820   4.337   2.890   8.118  0.8168 -0.7522 -1.8543
 2209TIP3   OH230821   5.403   1.075   7.780 -0.0780  0.1590  0.2237
 2209TIP3    H130822   5.348   1.107   7.708  0.6900 -1.2739 -1.0753
 2209TIP3    H230823   5.474   1.139   7.786  0.8463 -0.6083 -1.5889
 2210TIP3   OH230824   1.565   5.672   7.406 -0.2745  0.0096  0.3694
 2210TIP3    H130825   1.583   5.617   7.329  1.6755  0.5011  0.4082
 2210TIP3    H230826   1.584   5.615   7.481  1.2944  0.5256  0.4119
 2211TIP3   OH230827   0.678   6.723   7.396 -0.1402  0.3122 -0.2276
 2211TIP3    H130828   0.774   6.723   7.405 -0.0703  1.0000 -0.8458
 2211TIP3    H230829   0.661   6.783   7.323 -1.1140  1.0317  0.5718
 2212TIP3   OH230830   1.534   6.087   0.882  0.1774  0.5531  0.0576
 2212TIP3    H130831   1.599   6.146   0.845  1.8365 -1.2720 -0.1539
 2212TIP3    H230832   1.579   6.044   0.954 -1.4136  0.5035  1.0721
 2213TIP3   OH230833   4.577   1.438   0.030 -0.1904  0.2918  0.6473
 2213TIP3    H130834   4.551   1.455  -0.061 -0.2259  1.2254  0.8183
 2213TIP3    H230835   4.529   1.359   0.054 -1.9759  1.2653  0.5441
 2214TIP3   OH230836   5.856   1.488   1.797 -0.5073  0.2668 -0.1364
 2214TIP3    H130837   5.900   1.566   1.764  0.3392  0.8838  2.2780
 2214TIP3    H230838   5.911   1.416   1.769  0.6204  0.8322  0.5719
 2215TIP3   OH230839   2.843   2.634   2.055  0.5210  0.5058 -0.0199
 2215TIP3    H130840   2.762   2.678   2.079  1.1721  2.0499 -0.5056
 2215TIP3    H230841   2.881   2.607   2.139 -1.8146 -2.9287  0.1454
 2216TIP3   OH230842   3.938   5.369   7.644 -0.3873  0.3532  0.2025
 2216TIP3    H130843   3.914   5.325   7.563 -0.3879  1.8158 -0.6256
 2216TIP3    H230844   4.022   5.410   7.625 -0.2274  0.4442  1.0602
 2217TIP3   OH230845   5.009   5.787   9.687  0.3264  0.0106 -0.3803
 2217TIP3    H130846   5.001   5.734   9.607 -0.4655  2.0563 -1.7501
 2217TIP3    H230847   5.077   5.851   9.666  1.3218 -0.4423  1.2608
 2218TIP3   OH230848   1.513   7.459   9.499 -0.5804  0.0201  0.2969
 2218TIP3    H130849   1.582   7.450   9.433  0.2179 -2.7678  1.3659
 2218TIP3    H230850   1.434   7.428   9.456 -0.3516 -0.4663  0.2225
 2219TIP3   OH230851   6.412   4.800   1.936  0.1384  0.2329  0.0629
 2219TIP3    H130852   6.374   4.887   1.953 -0.4820  0.0092 -0.1587
 2219TIP3    H230853   6.350   4.758   1.877 -0.0465 -0.7296  0.9218
 2220TIP3   OH230854   6.326   2.483   8.326 -0.5538 -0.1675  0.6737
 2220TIP3    H130855   6.293   2.440   8.247  2.0321 -0.3370 -0.4130
 2220TIP3    H230856   6.368   2.412   8.376  3.0048  0.7005 -0.7388
 2221TIP3   OH230857   0.600   1.188   6.944 -0.3808  0.5375 -0.1100
 2221TIP3    H130858   0.595   1.212   7.037  1.3230 -1.2034  0.5083
 2221TIP3    H230859   0.664   1.249   6.907  2.1961 -1.3303  0.9298
 2222TIP3   OH230860   7.417   2.674   0.679  0.9327 -0.6664  0.6402
 2222TIP3    H130861   7.372   2.610   0.733  0.5245 -1.2568 -0.3662
 2222TIP3    H230862   7.509   2.649   0.684  0.9064 -0.6691  1.1179
 2223TIP3   OH230863   1.953   7.398   2.000  0.3200 -0.2436 -0.1533
 2223TIP3    H130864   2.023   7.412   2.064  1.7634  0.8215 -1.8766
 2223TIP3    H230865   1.934   7.304   2.006  1.4402 -0.4357  0.7963
 2224TIP3   OH230866   1.627   4.192   9.646  0.0764 -0.3773  0.4336
 2224TIP3    H130867   1.576   4.136   9.705  1.9849 -1.1491  1.4493
 2224TIP3    H230868   1.587   4.180   9.560 -2.6792  0.6428  1.4730
 2225TIP3   OH230869   5.180   6.053   1.260  0.5123  0.1411 -0.0437
 2225TIP3    H130870   5.149   5.972   1.221  2.7736 -0.8615  0.0472
 2225TIP3    H230871   5.224   6.025   1.341  0.7767  1.5297  0.3232
 2226TIP3   OH230872   3.977   3.412   9.640  0.1782 -0.5775 -0.0005
 2226TIP3    H130873   3.949   3.442   9.727 -0.6447  1.0728 -0.7952
 2226TIP3    H230874   4.073   3.415   9.644  0.1626  2.0692  0.0652
 2227TIP3   OH230875   4.658   7.518   1.507 -0.0249  0.8957 -0.3021
 2227TIP3    H130876   4.681   7.470   1.428  0.3630  2.2469 -1.0584
 2227TIP3    H230877   4.562   7.518   1.508 -0.1055 -1.8450  1.0132
 2228TIP3   OH230878   0.076   2.653   9.424  0.9662 -0.2815  0.0542
 2228TIP3    H130879   0.024   2.590   9.374  2.1442 -1.1466 -0.1230
 2228TIP3    H230880   0.147   2.678   9.365 -0.2272  2.3676 -0.4292
 2229TIP3   OH230881   3.019   0.293   0.383 -0.0984 -0.2892  0.1247
 2229TIP3    H130882   3.042   0.244   0.304 -0.4987 -1.5634  0.7694
 2229TIP3    H230883   2.975   0.229   0.439 -0.9320  0.9094  0.8750
 2230TIP3   OH230884   0.209   4.939   7.777  0.0775  0.2357 -0.0381
 2230TIP3    H130885   0.120   4.971   7.760 -0.5778 -0.7702  1.2617
 2230TIP3    H230886   0.253   4.944   7.693 -1.1232  1.0420 -0.6517
 2231TIP3   OH230887   5.139   1.952   9.564  0.1740 -0.5111 -0.5397
 2231TIP3    H130888   5.137   1.898   9.643 -0.1026  0.8432  0.4267
 2231TIP3    H230889   5.067   1.919   9.510  0.1674 -1.2571 -0.0858
 2232TIP3   OH230890   0.099   4.678   0.028 -0.0578 -0.1228  0.0816
 2232TIP3    H130891   0.130   4.676   0.118 -0.3980 -2.0394  0.2118
 2232TIP3    H230892   0.007   4.704   0.035 -0.0672 -0.2121  0.2849
 2233TIP3   OH230893   2.346   1.444   1.389 -0.4557 -0.3486 -0.3293
 2233TIP3    H130894   2.317   1.353   1.397 -2.1231 -0.0854 -2.3675
 2233TIP3    H230895   2.320   1.469   1.300  0.3192  2.0035  0.0471
 2234TIP3   OH230896   2.096   7.014   7.955  0.2534  0.4764 -0.4121
 2234TIP3    H130897   2.078   6.956   8.029 -1.5808  0.3885 -0.8736
 2234TIP3    H230898   2.018   7.070   7.950  1.7811  2.7350 -0.2240
 2235TIP3   OH230899   3.750   5.592   2.040  0.0298  0.1970  0.5409
 2235TIP3    H130900   3.753   5.675   1.991  0.7245 -0.0767  0.0956
 2235TIP3    H230901   3.832   5.547   2.016  0.2228 -0.1064  1.6861
 2236TIP3   OH230902   5.608   3.655   9.449 -0.1280 -0.3027 -0.8707
 2236TIP3    H130903   5.581   3.695   9.366 -2.4747 -0.4141 -0.2331
 2236TIP3    H230904   5.528   3.653   9.502  1.4971  0.7590  1.8451
 2237TIP3   OH230905   0.980   1.687   0.832  0.2501 -0.5767 -0.3263
 2237TIP3    H130906   0.945   1.599   0.818 -1.2555 -0.0393 -0.1966
 2237TIP3    H230907   0.943   1.739   0.760  0.4338  0.1255  0.0782
 2238TIP3   OH230908   7.253   4.914   0.090 -0.1639  0.4560  0.2542
 2238TIP3    H130909   7.233   5.007   0.080  0.7435  0.8169  1.5855
 2238TIP3    H230910   7.210   4.888   0.172  0.6364  0.0338  0.5557
 2239TIP3   OH230911   0.655   0.177   8.823  0.4186 -0.3510 -0.2631
 2239TIP3    H130912   0.672   0.099   8.770  1.3550  0.7981 -1.7703
 2239TIP3    H230913   0.735   0.230   8.812 -0.1242  0.7308  0.8474
 2240TIP3   OH230914   7.152   7.476   9.514  0.1644 -0.1701 -0.1624
 2240TIP3    H130915   7.130   7.494   9.606  1.9287  0.8314  0.0988
 2240TIP3    H230916   7.210   7.548   9.488  0.2050 -0.7736 -1.8837
 2241TIP3   OH230917   2.239   7.137   7.726 -0.4063 -0.5065  0.3434
 2241TIP3    H130918   2.193   7.080   7.788  0.7889 -2.1675 -0.2554
 2241TIP3    H230919   2.278   7.205   7.782 -1.5171 -0.4499  1.1010
 2242TIP3   OH230920   1.870   7.429   7.643  0.5322  0.0127 -0.3208
 2242TIP3    H130921   1.952   7.382   7.637  0.0542 -1.4761  2.8573
 2242TIP3    H230922   1.805   7.369   7.606  0.5519  0.2051 -0.6714
 2243TIP3   OH230923   3.292   6.735   7.886 -0.1935  0.0940 -0.8167
 2243TIP3    H130924   3.334   6.820   7.877  0.1392 -0.2441 -3.0272
 2243TIP3    H230925   3.210   6.743   7.838 -2.1464  0.3129  2.2784
 2244TIP3   OH230926   0.504   5.998   2.460 -0.2929  0.5197  0.0727
 2244TIP3    H130927   0.569   6.017   2.392  0.3793 -0.1800  0.4972
 2244TIP3    H230928   0.555   5.992   2.541 -0.7325 -0.9047  0.2859
 2245TIP3   OH230929   0.311   0.896   8.859  0.1923 -0.1109  0.2642
 2245TIP3    H130930   0.236   0.929   8.908 -0.5888 -1.3114 -0.0723
 2245TIP3    H230931   0.277   0.822   8.809  1.7898 -1.2561  0.7775
 2246TIP3   OH230932   4.364   7.385   1.155 -0.0149  0.5070 -0.1324
 2246TIP3    H130933   4.441   7.359   1.205 -2.2619 -0.4713  3.1905
 2246TIP3    H230934   4.351   7.477   1.178 -0.1651  0.4989 -0.1802
 2247TIP3   OH230935   2.984   4.559   6.537 -0.5866  0.2301 -0.7495
 2247TIP3    H130936   3.056   4.534   6.480 -1.3904 -1.6181 -1.0270
 2247TIP3    H230937   3.023   4.619   6.601  0.9630  0.0130 -1.4603
 2248TIP3   OH230938   1.077   0.353   0.239  0.4706  0.2426 -0.2931
 2248TIP3    H130939   1.063   0.440   0.276  0.4352  0.2698 -0.3712
 2248TIP3    H230940   1.041   0.293   0.305  1.0501  0.2550  0.0413
 2249TIP3   OH230941   4.109   3.546   1.449 -0.2507 -0.3646 -0.1884
 2249TIP3    H130942   4.055   3.589   1.383  0.3139 -0.4092 -0.6840
 2249TIP3    H230943   4.199   3.564   1.423  0.0288 -2.2435 -0.7081
 2250TIP3   OH230944   5.414   5.686   1.715  0.4091  0.4661 -0.0667
 2250TIP3    H130945   5.362   5.683   1.635  0.3444 -0.0836 -0.0063
 2250TIP3    H230946   5.440   5.778   1.723  0.3930  0.5321 -0.7035
 2251TIP3   OH230947   5.095   1.693   1.315  0.1116 -0.1506  0.2429
 2251TIP3    H130948   5.067   1.702   1.224  2.4921  0.5590 -0.4890
 2251TIP3    H230949   5.074   1.778   1.355  2.7821  1.1131 -0.8242
 2252TIP3   OH230950   5.054   5.048   8.889  0.3288 -0.4626  0.0669
 2252TIP3    H130951   4.990   4.992   8.933  1.0054 -1.7435 -0.5047
 2252TIP3    H230952   5.058   5.013   8.800  1.7407 -0.3543  0.0694
 2253TIP3   OH230953   5.898   2.685   0.574  0.6098  0.2830  0.0768
 2253TIP3    H130954   5.920   2.716   0.662  0.2128 -0.3561  0.4115
 2253TIP3    H230955   5.979   2.647   0.540  0.5098 -0.3911  0.5740
 2254TIP3   OH230956   1.590   2.157   8.792 -0.1889 -0.0771 -0.0164
 2254TIP3    H130957   1.674   2.148   8.746  0.2413  0.5182  0.6419
 2254TIP3    H230958   1.602   2.232   8.851 -0.7438 -0.8021  1.0503
 2255TIP3   OH230959   2.562   1.864   9.289 -0.0777  0.1922  0.4955
 2255TIP3    H130960   2.562   1.790   9.229  0.0829 -0.0462  0.7878
 2255TIP3    H230961   2.592   1.938   9.236 -3.3089  0.8233 -0.7318
 2256TIP3   OH230962   0.403   6.633   9.013 -0.1729 -0.3341 -0.0262
 2256TIP3    H130963   0.372   6.585   8.936  1.1753 -0.5554 -0.4558
 2256TIP3    H230964   0.418   6.565   9.079 -2.1865 -0.0651  0.7892
 2257TIP3   OH230965   2.590   5.841   7.762  0.3550  0.4453  0.2857
 2257TIP3    H130966   2.598   5.851   7.857  1.5754  0.5077  0.1891
 2257TIP3    H230967   2.603   5.930   7.727  1.7420  0.1407 -0.0278
 2258TIP3   OH230968   0.380   0.137   8.833 -0.6328 -0.1164  0.1190
 2258TIP3    H130969   0.341   0.149   8.746 -0.8780  0.5229  0.3148
 2258TIP3    H230970   0.472   0.157   8.820  0.0152 -3.0915 -0.6889
 2259TIP3   OH230971   3.920   3.708   1.930  0.3377  0.0216  0.5918
 2259TIP3    H130972   3.825   3.711   1.915 -0.0633 -1.5008  2.3627
 2259TIP3    H230973   3.955   3.667   1.851 -0.8389 -1.7069  0.8884
 2260TIP3   OH230974   1.590   0.129   9.262 -0.0823  0.3186  0.3098
 2260TIP3    H130975   1.585   0.046   9.216  0.2416  0.1763  0.5275
 2260TIP3    H230976   1.571   0.195   9.195 -0.1996  0.0815  0.1067
 2261TIP3   OH230977   3.405   3.385   0.761 -0.1341  0.8115 -0.3775
 2261TIP3    H130978   3.383   3.312   0.704 -0.0245  1.5034 -1.3281
 2261TIP3    H230979   3.346   3.375   0.836  3.1860 -3.1612  2.1107
 2262TIP3   OH230980   1.637   7.358   2.326  0.0179 -0.5933  0.4133
 2262TIP3    H130981   1.613   7.405   2.247 -0.3278  0.8207  1.3207
 2262TIP3    H230982   1.591   7.274   2.319  0.0059 -0.4942 -0.8768
 2263TIP3   OH230983   3.472   6.771   2.767  0.3473  0.2300  0.2273
 2263TIP3    H130984   3.446   6.858   2.795 -0.4387 -0.0814  0.4912
 2263TIP3    H230985   3.425   6.711   2.825  1.5603 -0.3684  0.6388
 2264TIP3   OH230986   2.746   2.678   6.986 -0.0187  0.3435 -0.1522
 2264TIP3    H130987   2.651   2.670   6.976  0.0147 -0.3653  0.0118
 2264TIP3    H230988   2.776   2.715   6.903 -0.3882  0.1317 -0.3828
 2265TIP3   OH230989   6.468   7.630   1.094 -0.4190  0.0950  0.4169
 2265TIP3    H130990   6.435   7.597   1.177  2.2471 -0.8553  1.2245
 2265TIP3    H230991   6.541   7.687   1.119  1.0691 -0.9705 -1.2485
 2266TIP3   OH230992   4.617   3.178   1.108 -0.3941 -0.1685  0.1650
 2266TIP3    H130993   4.616   3.271   1.084 -0.1302 -0.5026 -1.2513
 2266TIP3    H230994   4.708   3.160   1.131 -0.4318 -0.0895  0.3745
 2267TIP3   OH230995   1.664   4.377   1.259  0.1447  0.0653  0.0644
 2267TIP3    H130996   1.673   4.335   1.174  0.2419 -0.3311  0.2683
 2267TIP3    H230997   1.609   4.318   1.310  1.9328 -0.8705  1.0310
 2268TIP3   OH230998   2.369   5.870   7.992  0.3592 -0.1339 -0.3039
 2268TIP3    H130999   2.442   5.807   7.988 -0.7358 -1.6490  1.5485
 2268TIP3    H231000   2.294   5.822   7.956 -0.4598  0.1335  0.9937
 2269TIP3   OH231001   1.778   0.454   1.211  0.1499  0.7256  0.2905
 2269TIP3    H131002   1.779   0.358   1.209  1.2865  0.7367 -0.6200
 2269TIP3    H231003   1.791   0.475   1.304 -0.0920  0.0012  0.4986
 2270TIP3   OH231004   3.419   1.062   8.688 -0.7369 -0.2216  0.0657
 2270TIP3    H131005   3.494   1.012   8.657 -0.9570 -0.1700 -0.5532
 2270TIP3    H231006   3.450   1.104   8.768  0.1328  0.4072 -0.5847
 2271TIP3   OH231007   3.506   3.309   7.665 -0.4714  0.2831 -0.1764
 2271TIP3    H131008   3.540   3.315   7.576  2.2745  1.4864  0.8585
 2271TIP3    H231009   3.540   3.226   7.698  1.0394  1.1803  0.6410
 2272TIP3   OH231010   2.380   5.895   9.785  0.6093  0.2826  0.2028
 2272TIP3    H131011   2.455   5.897   9.726  1.7068 -0.7287  1.4982
 2272TIP3    H231012   2.304   5.890   9.727  1.5524  0.7526 -1.1329
 2273TIP3   OH231013   2.970   3.050   2.177  0.2246 -0.1901  0.2705
 2273TIP3    H131014   3.000   3.138   2.156  1.2591 -0.1341  1.8284
 2273TIP3    H231015   2.921   3.022   2.100 -0.8542  2.0566  0.0804
 2274TIP3   OH231016   4.049   7.208   9.849 -0.3641 -0.1174 -1.1275
 2274TIP3    H131017   4.077   7.119   9.827 -0.0923  0.2778 -2.4515
 2274TIP3    H231018   3.993   7.234   9.776 -1.8834  0.1708  0.0922
 2275TIP3   OH231019   7.397   6.754   1.443  0.2352 -0.2366 -0.0622
 2275TIP3    H131020   7.398   6.804   1.525  3.0802  0.6893 -0.5299
 2275TIP3    H231021   7.459   6.801   1.386  1.7744 -3.2931 -1.1354
 2276TIP3   OH231022   5.850   3.220   8.237  0.2076 -0.1968 -0.5252
 2276TIP3    H131023   5.942   3.235   8.219  0.1205 -1.9470 -2.9394
 2276TIP3    H231024   5.804   3.261   8.164 -0.8495 -0.3930  0.0036
 2277TIP3   OH231025   1.343   5.534   8.348  0.3436  0.1404  0.2729
 2277TIP3    H131026   1.345   5.443   8.379 -0.8335 -0.0598 -0.1764
 2277TIP3    H231027   1.293   5.581   8.415 -0.6177  0.0735 -0.3703
 2278TIP3   OH231028   0.346   6.922   8.253  0.0951  0.3112 -0.0192
 2278TIP3    H131029   0.416   6.915   8.319  1.2283  3.0035 -0.8331
 2278TIP3    H231030   0.265   6.914   8.304  0.9488  1.1447  1.5431
 2279TIP3   OH231031   2.966   1.728   1.860 -0.2149 -0.3205 -0.4337
 2279TIP3    H131032   3.015   1.684   1.791  0.1081  0.5095 -0.7493
 2279TIP3    H231033   2.976   1.821   1.841 -0.9149 -0.1037  0.1906
 2280TIP3   OH231034   3.482   3.666   7.712 -0.4231  0.2150  0.2712
 2280TIP3    H131035   3.457   3.739   7.769  0.7324  0.5041  0.4395
 2280TIP3    H231036   3.491   3.705   7.625  0.9746  0.4632  0.5063
 2281TIP3   OH231037   5.511   5.991   1.300 -0.3224 -0.4168  0.0496
 2281TIP3    H131038   5.535   6.031   1.216  0.5832  0.1250  0.5560
 2281TIP3    H231039   5.520   5.897   1.286 -0.8980 -0.3763 -0.6732
 2282TIP3   OH231040   7.311   5.589   8.659 -0.0788  0.2032 -0.6086
 2282TIP3    H131041   7.274   5.502   8.646 -0.9814  0.5549 -0.4890
 2282TIP3    H231042   7.406   5.576   8.657 -0.2073 -0.7805 -0.5550
 2283TIP3   OH231043   4.797   2.418   2.434  0.7972  0.7711 -0.2175
 2283TIP3    H131044   4.760   2.358   2.499  0.2426 -0.4567 -1.6176
 2283TIP3    H231045   4.739   2.495   2.436  0.9699  0.8881  0.9375
 2284TIP3   OH231046   4.548   4.857   7.838 -0.1887 -0.2257 -0.2969
 2284TIP3    H131047   4.618   4.828   7.779 -2.2643 -2.3865 -1.8529
 2284TIP3    H231048   4.506   4.777   7.867 -0.4614  0.8810  2.7425
 2285TIP3   OH231049   6.442   1.805   9.240  0.0715 -0.7390  0.1974
 2285TIP3    H131050   6.352   1.838   9.248 -0.6527 -2.6581  0.5015
 2285TIP3    H231051   6.497   1.880   9.262 -1.3940  0.9598 -1.5460
 2286TIP3   OH231052   2.772   3.884   2.032  0.1541 -0.7689  0.0639
 2286TIP3    H131053   2.705   3.832   1.986 -0.0809 -0.0873 -0.3721
 2286TIP3    H231054   2.803   3.946   1.967  0.2505 -0.1830  0.6575
 2287TIP3   OH231055   3.776   0.721   1.659  0.3206 -0.2592  0.9684
 2287TIP3    H131056   3.817   0.674   1.586  1.9592  1.6104  0.5945
 2287TIP3    H231057   3.819   0.686   1.737 -0.4854 -1.3194  0.9607
 2288TIP3   OH231058   4.294   2.382   0.650 -0.3133  0.0790 -0.5352
 2288TIP3    H131059   4.346   2.401   0.728 -2.4210 -0.4790  1.0920
 2288TIP3    H231060   4.208   2.418   0.669 -1.0365 -0.5358 -2.4135
 2289TIP3   OH231061   1.346   0.214   3.327  0.5646 -0.3327  0.5464
 2289TIP3    H131062   1.427   0.264   3.323 -0.3394  1.1397 -2.6235
 2289TIP3    H231063   1.294   0.257   3.394  1.8057 -0.4127  1.6058
 2290TIP3   OH231064   3.314   1.583   8.596  0.0400  0.2993 -0.1412
 2290TIP3    H131065   3.291   1.491   8.583 -0.4020  0.5319 -1.0229
 2290TIP3    H231066   3.358   1.584   8.681  0.7578 -0.8563 -0.4759
 2291TIP3   OH231067   4.256   7.509   9.727  0.0209 -0.8703 -0.1903
 2291TIP3    H131068   4.339   7.535   9.769 -0.4102  0.1089  0.0770
 2291TIP3    H231069   4.279   7.431   9.676  0.7629 -1.5340  1.1220
 2292TIP3   OH231070   4.457   2.436   7.950 -0.6513  0.3083  0.4954
 2292TIP3    H131071   4.528   2.372   7.956 -0.8861 -0.0708 -0.4935
 2292TIP3    H231072   4.385   2.395   7.998 -0.7098 -0.0505  0.1101
 2293TIP3   OH231073   6.662   5.007   0.455 -0.2100  0.0877  0.8147
 2293TIP3    H131074   6.680   4.918   0.485  0.6251  0.0936  0.3434
 2293TIP3    H231075   6.640   4.998   0.362 -2.0451  0.1625  1.1990
 2294TIP3   OH231076   7.647   7.527   9.500  0.0855 -0.0304 -0.2173
 2294TIP3    H131077   7.591   7.485   9.566 -1.6628  0.9175 -1.0123
 2294TIP3    H231078   7.731   7.540   9.544 -0.6128 -0.6556  1.3635
 2295TIP3   OH231079   7.554   7.045   2.209  0.1459 -0.6039  0.0921
 2295TIP3    H131080   7.501   7.122   2.191  0.3745 -0.7750 -1.5147
 2295TIP3    H231081   7.498   6.971   2.183  1.1799 -0.7730 -1.8579
 2296TIP3   OH231082   6.864   1.097   9.413 -0.2759 -0.1460 -0.5383
 2296TIP3    H131083   6.848   1.191   9.413 -0.2220 -0.0681 -3.2889
 2296TIP3    H231084   6.783   1.059   9.447 -0.6648  0.8300 -0.3348
 2297TIP3   OH231085   2.218   1.463   9.478  0.4433 -0.0330  0.4269
 2297TIP3    H131086   2.305   1.503   9.471  0.5206  0.6096  3.5366
 2297TIP3    H231087   2.159   1.529   9.442  1.1961 -0.4507 -1.6595
 2298TIP3   OH231088   3.612   6.513   1.945  0.1362  0.3720 -0.2836
 2298TIP3    H131089   3.554   6.492   1.872 -0.9579  1.2845  0.2829
 2298TIP3    H231090   3.562   6.490   2.023  1.2388 -0.4646  0.2043
 2299TIP3   OH231091   4.849   4.393   0.654  0.2849  0.1669 -0.8168
 2299TIP3    H131092   4.922   4.455   0.657  0.0246  0.4543 -0.0520
 2299TIP3    H231093   4.812   4.396   0.742 -2.0103  1.6780 -1.7387
 2300TIP3   OH231094   3.731   6.126   1.511 -0.2375 -0.3927  0.3758
 2300TIP3    H131095   3.671   6.054   1.529 -0.2263  0.0780  2.6265
 2300TIP3    H231096   3.818   6.090   1.532 -0.1358 -0.0241  0.6045
 2301TIP3   OH231097   7.325   6.565   0.390  0.0941  0.5028 -0.1880
 2301TIP3    H131098   7.262   6.492   0.395  1.1492 -0.4148  0.1151
 2301TIP3    H231099   7.302   6.621   0.464  0.9094 -0.9175  1.2194
 2302TIP3   OH231100   1.805   1.964   2.211 -0.3845 -0.5463 -0.1243
 2302TIP3    H131101   1.884   1.961   2.266 -1.3880 -1.3176  1.3323
 2302TIP3    H231102   1.822   1.899   2.143  0.6450  0.0201 -0.4424
 2303TIP3   OH231103   2.422   4.902   0.113  0.7713  0.5891  0.0142
 2303TIP3    H131104   2.506   4.862   0.137  0.8645  1.0863  0.5437
 2303TIP3    H231105   2.390   4.941   0.195 -0.4715 -0.4720  0.0706
 2304TIP3   OH231106   4.591   3.086   7.481 -0.2937 -0.1438  0.0562
 2304TIP3    H131107   4.658   3.069   7.547 -0.9589  0.5820  0.9302
 2304TIP3    H231108   4.510   3.097   7.530 -0.7732  0.5906 -0.8557
 2305TIP3   OH231109   2.092   3.519   1.897  0.8313  0.2106 -0.6045
 2305TIP3    H131110   2.097   3.593   1.958 -1.9784  0.9865 -1.1859
 2305TIP3    H231111   2.029   3.459   1.937  2.1463 -1.3511 -0.7475
 2306TIP3   OH231112   6.601   5.045   0.183  0.2049  0.7783 -0.2825
 2306TIP3    H131113   6.569   5.130   0.212 -0.7310  0.3324  0.0095
 2306TIP3    H231114   6.526   5.003   0.142  0.6356  0.0513 -0.3498
 2307TIP3   OH231115   6.063   5.932   1.428 -0.4184 -0.5498  0.2173
 2307TIP3    H131116   6.094   5.843   1.445 -0.2902 -0.5846 -0.2029
 2307TIP3    H231117   5.970   5.928   1.450  0.0102 -0.2212  2.3364
 2308TIP3   OH231118   3.497   5.206   0.144  0.4053 -0.2713  0.4153
 2308TIP3    H131119   3.488   5.125   0.094  1.3987 -1.4601  2.0560
 2308TIP3    H231120   3.589   5.207   0.170  0.4077  1.4056  0.4234
 2309TIP3   OH231121   3.616   0.864   2.440 -0.2999 -0.0780  0.1720
 2309TIP3    H131122   3.524   0.851   2.466  0.0275  1.6127  2.4652
 2309TIP3    H231123   3.641   0.946   2.482  2.3105 -0.5451 -0.3211
 2310TIP3   OH231124   0.087   5.029   0.076  0.7819  0.0770 -0.2581
 2310TIP3    H131125   0.080   4.952   0.019  3.9684  0.1892 -0.9855
 2310TIP3    H231126   0.037   5.097   0.031  0.5800 -0.7037 -1.2503
 2311TIP3   OH231127   7.342   7.616   9.976  0.7844 -0.0190  0.1165
 2311TIP3    H131128   7.358   7.648  10.065  1.0179  1.5298 -0.4532
 2311TIP3    H231129   7.406   7.547   9.963  3.2004  2.0939 -0.0444
 2312TIP3   OH231130   1.558   2.534   1.376  0.1487  0.4553  0.1860
 2312TIP3    H131131   1.572   2.624   1.345  0.3214  1.1265  2.0610
 2312TIP3    H231132   1.626   2.483   1.333 -0.0100  1.2021 -0.9789
 2313TIP3   OH231133   4.923   0.985   7.887  0.6331 -0.3720 -0.3583
 2313TIP3    H131134   5.008   0.982   7.932 -0.0162  0.9443  1.0571
 2313TIP3    H231135   4.859   0.966   7.955 -0.3043  0.2754 -1.0316
 2314TIP3   OH231136   4.567   3.549   8.256 -0.3146  0.3331 -0.5968
 2314TIP3    H131137   4.534   3.509   8.176 -0.7488 -2.5864  0.9098
 2314TIP3    H231138   4.659   3.522   8.260 -0.8336 -1.3509  0.8711
 2315TIP3   OH231139   7.613   0.697   9.958 -0.2387 -0.4538  0.5449
 2315TIP3    H131140   7.555   0.737   9.893 -0.3947  1.3408  1.7267
 2315TIP3    H231141   7.555   0.644  10.013 -0.5355  0.1985  0.8639
 2316TIP3   OH231142   5.435   0.802   2.486  0.1093  0.0136 -0.0806
 2316TIP3    H131143   5.474   0.871   2.539 -1.3676 -0.6345  1.9810
 2316TIP3    H231144   5.508   0.766   2.435  1.2009  1.9894 -0.0075
 2317TIP3   OH231145   6.375   1.563   0.560  0.4220 -0.3139 -0.1980
 2317TIP3    H131146   6.466   1.558   0.588  0.3397  0.2030  0.1630
 2317TIP3    H231147   6.374   1.632   0.493 -0.0324  1.0432  1.1496
 2318TIP3   OH231148   7.466   1.894   8.548 -0.1346  0.1331 -0.2720
 2318TIP3    H131149   7.557   1.864   8.557  0.0641  0.8173  0.0200
 2318TIP3    H231150   7.417   1.837   8.607  0.0563 -0.4162 -0.6258
 2319TIP3   OH231151   3.724   5.811   1.854 -0.0144 -0.7640  0.0915
 2319TIP3    H131152   3.684   5.898   1.857 -1.1312 -1.2865  1.0902
 2319TIP3    H231153   3.701   5.777   1.768  0.2050 -0.1828 -0.2026
 2320TIP3   OH231154   4.929   4.576   2.184 -0.0912 -0.3500 -0.2692
 2320TIP3    H131155   4.954   4.605   2.097  2.5286 -0.5151  0.3293
 2320TIP3    H231156   4.949   4.650   2.241 -0.5411 -0.6964  0.3588
 2321TIP3   OH231157   1.465   2.554   8.128 -0.5979  0.3290  0.4917
 2321TIP3    H131158   1.533   2.621   8.118  1.1710 -1.5280 -0.5424
 2321TIP3    H231159   1.409   2.565   8.051  1.4241 -1.1810 -1.2977
 2322TIP3   OH231160   7.559   4.173   8.759 -0.1015 -0.0963  0.2297
 2322TIP3    H131161   7.493   4.148   8.823 -0.6080  0.1910 -0.1639
 2322TIP3    H231162   7.534   4.262   8.733  1.3690  0.6531  1.2512
 2323TIP3   OH231163   5.938   7.563   1.669  0.4136  0.8703  0.2220
 2323TIP3    H131164   6.021   7.595   1.635  0.1394  1.2502 -0.0920
 2323TIP3    H231165   5.873   7.627   1.640 -0.0141  0.4924  0.3278
 2324TIP3   OH231166   6.440   3.929   1.313 -0.3671  0.7631 -0.2314
 2324TIP3    H131167   6.365   3.976   1.350 -0.2208 -0.2007  1.3651
 2324TIP3    H231168   6.418   3.837   1.325 -0.3999  0.3461 -2.8124
 2325TIP3   OH231169   2.486   1.048   2.258  0.0164  0.6932 -0.0497
 2325TIP3    H131170   2.444   1.083   2.180  0.2593  0.6076 -0.2217
 2325TIP3    H231171   2.569   1.095   2.264  1.9653 -2.1402 -2.2259
 2326TIP3   OH231172   0.044   6.272   8.165 -0.1384  0.0938  0.5259
 2326TIP3    H131173   0.031   6.230   8.250 -1.0283 -0.4612  0.1238
 2326TIP3    H231174   0.106   6.215   8.120 -0.5819 -0.2465  0.3522
 2327TIP3   OH231175   4.654   0.557   0.006  0.0798  0.4829 -0.3032
 2327TIP3    H131176   4.620   0.488   0.063 -1.4037  2.2482  1.0805
 2327TIP3    H231177   4.748   0.558   0.023 -0.1535  0.0557  1.1028
 2328TIP3   OH231178   5.481   2.102   1.666 -0.1575 -0.1771 -0.1819
 2328TIP3    H131179   5.457   2.150   1.587 -0.2852 -0.1889 -0.1508
 2328TIP3    H231180   5.576   2.100   1.665 -0.1562 -0.0791 -0.2774
 2329TIP3   OH231181   0.958   4.696   0.869  0.1329  0.7942  0.3035
 2329TIP3    H131182   0.986   4.786   0.888 -1.5062  1.1541  1.2726
 2329TIP3    H231183   0.895   4.676   0.939 -0.0564 -0.8514 -0.3091
 2330TIP3   OH231184   0.312   0.160   8.552 -0.0734  0.4223  0.1096
 2330TIP3    H131185   0.405   0.143   8.538 -0.0432  0.8318 -0.2104
 2330TIP3    H231186   0.274   0.074   8.574  0.6992  0.5481  2.0975
 2331TIP3   OH231187   1.703   4.749   7.727  0.6979  0.0668 -0.2533
 2331TIP3    H131188   1.640   4.786   7.665  0.7698  0.9735  0.1975
 2331TIP3    H231189   1.652   4.735   7.807  1.1696  1.3438  0.2984
 2332TIP3   OH231190   7.360   4.087   1.270  0.3006 -0.3583  0.0985
 2332TIP3    H131191   7.388   4.001   1.299  0.9920  0.0891  0.7838
 2332TIP3    H231192   7.363   4.142   1.349 -0.4787  0.2104 -0.2483
 2333TIP3   OH231193   6.252   5.081   2.039  0.0426 -0.1303  0.0459
 2333TIP3    H131194   6.342   5.099   2.068  0.3096 -1.2304 -0.0568
 2333TIP3    H231195   6.230   4.997   2.081 -0.1578 -0.9457 -1.6238
 2334TIP3   OH231196   6.075   2.718   1.210  0.1088 -0.1704  0.3038
 2334TIP3    H131197   6.048   2.737   1.120 -0.9672  0.5462  0.7648
 2334TIP3    H231198   6.063   2.624   1.219  2.4200 -0.6812 -0.9922
 2335TIP3   OH231199   2.881   0.152   8.117  0.1225  0.2897 -0.0444
 2335TIP3    H131200   2.935   0.078   8.144  0.2007 -0.1028 -1.2545
 2335TIP3    H231201   2.804   0.148   8.174 -0.5840 -1.6170 -1.0576
 2336TIP3   OH231202   4.714   6.174   0.706 -0.0330  0.3651 -0.1184
 2336TIP3    H131203   4.773   6.184   0.632  2.3156 -2.2218  1.2375
 2336TIP3    H231204   4.760   6.117   0.767 -3.3626 -0.6680  1.7213
 2337TIP3   OH231205   1.198   0.747   7.427  0.4217 -0.0309 -0.1692
 2337TIP3    H131206   1.239   0.664   7.451  0.8987 -0.1648 -1.3668
 2337TIP3    H231207   1.176   0.737   7.334 -0.9129  0.6230  0.0505
 2338TIP3   OH231208   5.578   1.235   8.967  0.4180 -0.3022 -0.0012
 2338TIP3    H131209   5.668   1.224   8.935 -0.3174 -0.8029 -2.0668
 2338TIP3    H231210   5.540   1.300   8.907 -0.8321 -0.7351  0.2973
 2339TIP3   OH231211   3.051   2.652   9.305  0.3677 -0.4459 -0.0033
 2339TIP3    H131212   3.103   2.599   9.245  2.0062  1.2782 -0.1778
 2339TIP3    H231213   3.065   2.742   9.276 -1.5639  0.1876  0.8704
 2340TIP3   OH231214   3.267   5.903   8.734 -0.2136 -0.2570  0.3626
 2340TIP3    H131215   3.300   5.972   8.793 -0.0634  0.6976 -0.8049
 2340TIP3    H231216   3.248   5.949   8.652 -1.3318 -1.3931 -0.0385
 2341TIP3   OH231217   3.159   6.365   7.517  0.1904 -0.3469 -0.4412
 2341TIP3    H131218   3.114   6.406   7.591  2.4048  1.9336 -0.2159
 2341TIP3    H231219   3.095   6.365   7.446 -0.8981  0.5961  0.5077
 2342TIP3   OH231220   5.329   0.984   2.317 -0.3985  0.0470 -0.3727
 2342TIP3    H131221   5.273   1.050   2.359  1.1762  0.4843  1.1992
 2342TIP3    H231222   5.356   0.927   2.389 -1.1635 -1.9629 -1.5891
 2343TIP3   OH231223   4.075   2.762   9.020  0.5114 -0.5446 -0.0332
 2343TIP3    H131224   4.025   2.827   9.069  2.0830  0.6093  0.1588
 2343TIP3    H231225   4.032   2.756   8.935 -0.6360 -0.5038  0.5380
 2344TIP3   OH231226   0.437   5.330   0.431  0.2094  0.0171 -0.5153
 2344TIP3    H131227   0.446   5.303   0.523 -0.9138  1.5722  0.1007
 2344TIP3    H231228   0.360   5.386   0.431  0.2406  0.0989 -2.4260
 2345TIP3   OH231229   4.625   6.435   9.542 -0.4841 -0.3858 -0.2934
 2345TIP3    H131230   4.668   6.514   9.509 -2.0381 -0.1197 -1.7926
 2345TIP3    H231231   4.659   6.426   9.631 -0.3999  2.0858  0.0099
 2346TIP3   OH231232   2.592   5.912   9.593  0.8575  0.1776  0.5398
 2346TIP3    H131233   2.599   5.976   9.523  0.1775  0.6833  0.9222
 2346TIP3    H231234   2.621   5.829   9.554  1.0424  0.5725 -0.1592
 2347TIP3   OH231235   3.720   6.861   1.291  0.4732  0.1653 -0.1741
 2347TIP3    H131236   3.799   6.829   1.247 -0.7373  1.5321 -3.6290
 2347TIP3    H231237   3.660   6.787   1.289  0.4643  0.1888 -0.7102
 2348TIP3   OH231238   7.389   2.969   1.533 -0.2828  0.2742 -1.0213
 2348TIP3    H131239   7.392   3.065   1.527 -1.7694  0.5754  1.4325
 2348TIP3    H231240   7.327   2.943   1.465 -3.1543  1.5699  0.8914
 2349TIP3   OH231241   4.371   2.699   9.836 -0.2848  0.1324  0.2242
 2349TIP3    H131242   4.367   2.629   9.901 -1.6208  0.8438  0.9597
 2349TIP3    H231243   4.354   2.779   9.886  4.1616  1.4833  0.0070
 2350TIP3   OH231244   1.557   2.206   0.309 -0.6440  0.5514  0.2729
 2350TIP3    H131245   1.559   2.232   0.217 -1.2965  0.4283  0.2248
 2350TIP3    H231246   1.487   2.141   0.315 -1.1259  1.1275  1.0053
 2351TIP3   OH231247   6.615   0.040   0.665 -0.3664  0.1992 -0.3398
 2351TIP3    H131248   6.662   0.104   0.718  0.6017 -1.1710  0.5289
 2351TIP3    H231249   6.636  -0.044   0.705 -0.6856 -0.7713 -2.1032
 2352TIP3   OH231250   0.097   4.002   1.369 -0.3889  0.3233  0.3820
 2352TIP3    H131251   0.028   3.986   1.304 -1.1125 -0.6345  1.3548
 2352TIP3    H231252   0.078   3.941   1.440 -0.5136  2.3365  2.1822
 2353TIP3   OH231253   1.252   5.056   8.427  0.0206  0.1615 -0.0240
 2353TIP3    H131254   1.324   5.118   8.434  0.2186 -0.1611  0.8657
 2353TIP3    H231255   1.179   5.099   8.471 -0.3376  0.4733 -0.8924
 2354TIP3   OH231256   6.417   1.282   9.750  0.2955  0.0776  0.2031
 2354TIP3    H131257   6.508   1.304   9.766  0.8988 -1.4621 -0.8898
 2354TIP3    H231258   6.400   1.313   9.661 -0.3591  0.6362  0.5101
 2355TIP3   OH231259   0.676   4.284   9.853 -0.8440 -0.2413 -0.4966
 2355TIP3    H131260   0.652   4.287   9.946 -0.1661  2.5713 -0.3456
 2355TIP3    H231261   0.731   4.206   9.845 -0.8755 -0.5114  1.4753
 2356TIP3   OH231262   6.622   4.228   1.637  0.3588 -0.8510 -0.4182
 2356TIP3    H131263   6.644   4.169   1.566 -1.7486 -1.8799 -0.2929
 2356TIP3    H231264   6.526   4.232   1.636  0.3736  1.3305  0.5888
 2357TIP3   OH231265   2.036   3.031   9.179  0.0220  0.3765  0.4732
 2357TIP3    H131266   2.028   2.937   9.161  0.6063  0.2575  0.8359
 2357TIP3    H231267   2.011   3.039   9.271 -0.2104  0.6096  0.3915
 2358TIP3   OH231268   3.589   7.068   8.162  0.7174 -0.4678  0.5274
 2358TIP3    H131269   3.554   7.010   8.230  2.6107 -1.2355  0.9092
 2358TIP3    H231270   3.668   7.023   8.131  1.2260  1.0463 -0.4593
 2359TIP3   OH231271   2.127   2.555   8.050  0.0072 -0.0297  0.0826
 2359TIP3    H131272   2.093   2.479   8.097  0.9213 -0.1283  0.5914
 2359TIP3    H231273   2.099   2.541   7.959 -1.5042  0.0146  0.5195
 2360TIP3   OH231274   7.143   5.703   1.719 -0.3210 -0.1734  0.0068
 2360TIP3    H131275   7.115   5.760   1.791 -1.0802 -1.0485  0.4172
 2360TIP3    H231276   7.229   5.671   1.746  0.2971  1.0454 -0.4030
 2361TIP3   OH231277   7.257   5.063   9.649  0.0694  0.2400  0.0510
 2361TIP3    H131278   7.171   5.026   9.669  0.9180 -0.5773  2.5673
 2361TIP3    H231279   7.238   5.154   9.624 -1.4645  0.5047  1.9037
 2362TIP3   OH231280   2.284   2.311   8.726  0.0778  0.2816 -0.5742
 2362TIP3    H131281   2.205   2.344   8.684 -0.3388 -1.1828 -0.9899
 2362TIP3    H231282   2.339   2.389   8.738 -1.2616  1.2634 -0.6080
 2363TIP3   OH231283   3.418   3.356   2.889 -0.1822 -0.6029 -0.3927
 2363TIP3    H131284   3.512   3.344   2.876 -0.1212  0.3500 -0.9434
 2363TIP3    H231285   3.379   3.276   2.855  0.2504  0.1348 -2.8599
 2364TIP3   OH231286   0.151   4.974   1.756 -0.7491 -0.2393 -0.6558
 2364TIP3    H131287   0.226   5.034   1.752 -0.1194 -0.8599  0.9233
 2364TIP3    H231288   0.088   5.020   1.811 -1.6485  0.3519 -2.1144
 2365TIP3   OH231289   1.848   4.002   7.785 -0.5025  0.3346 -0.5985
 2365TIP3    H131290   1.856   4.061   7.860  0.9542 -0.1187 -0.3714
 2365TIP3    H231291   1.826   4.060   7.711  3.2926  1.6500 -0.9155
 2366TIP3   OH231292   1.089   6.188   0.301  0.0802 -0.0967 -0.4595
 2366TIP3    H131293   1.021   6.223   0.359  0.5385  1.5789 -0.8852
 2366TIP3    H231294   1.074   6.232   0.217 -0.2487 -2.0811 -1.5253
 2367TIP3   OH231295   2.952   4.820   7.117  0.3888  0.3920 -0.7918
 2367TIP3    H131296   2.927   4.784   7.032 -0.1289  2.9386 -1.8136
 2367TIP3    H231297   2.995   4.904   7.096  0.3086  1.0714  1.4471
 2368TIP3   OH231298   3.634   4.741   9.624 -0.1234  0.0447 -0.0507
 2368TIP3    H131299   3.711   4.785   9.661  0.9750  0.6393 -2.7779
 2368TIP3    H231300   3.613   4.792   9.546 -0.9687 -2.2473 -1.4179
 2369TIP3   OH231301   3.539   3.483   2.059  0.3042  0.8713  0.1669
 2369TIP3    H131302   3.468   3.424   2.033 -1.1542  1.9212  1.5833
 2369TIP3    H231303   3.586   3.435   2.128  1.9885 -0.4399 -1.7602
 2370TIP3   OH231304   2.217   2.616   8.860 -0.6209 -0.2798  0.3959
 2370TIP3    H131305   2.149   2.548   8.854 -0.1927 -0.7377  0.6833
 2370TIP3    H231306   2.210   2.650   8.949 -0.3165 -0.4915  0.5011
 2371TIP3   OH231307   2.973   5.052   1.772 -0.1460 -1.0020  0.3797
 2371TIP3    H131308   3.011   5.019   1.854  1.5462 -1.4597 -0.5221
 2371TIP3    H231309   3.047   5.090   1.725 -1.1869 -0.2356 -0.7048
 2372TIP3   OH231310   4.183   5.739   2.423 -0.1556  0.1483  0.3405
 2372TIP3    H131311   4.169   5.764   2.514  0.0569 -2.4261  1.1828
 2372TIP3    H231312   4.181   5.821   2.375 -0.3911  1.5939  2.6368
 2373TIP3   OH231313   4.005   0.421   8.408 -0.0041  0.2445  0.1786
 2373TIP3    H131314   3.946   0.457   8.475  0.9197  1.2094  0.4922
 2373TIP3    H231315   3.964   0.446   8.325  0.4532  1.8275  0.3868
 2374TIP3   OH231316   6.095   5.841   7.689 -0.3553 -0.1923 -0.5804
 2374TIP3    H131317   6.089   5.834   7.594 -2.5824 -0.5566 -0.4766
 2374TIP3    H231318   6.125   5.754   7.717  0.1732 -0.1272 -0.9416
 2375TIP3   OH231319   7.284   7.565   8.474 -0.0109 -0.9412 -0.0396
 2375TIP3    H131320   7.235   7.609   8.544 -0.3593  1.4335 -1.6725
 2375TIP3    H231321   7.321   7.487   8.516  0.2230  0.6239  2.9082
 2376TIP3   OH231322   4.731   1.399   8.821 -0.0036  0.2443 -0.8825
 2376TIP3    H131323   4.826   1.408   8.826 -0.0504 -0.1514  1.3582
 2376TIP3    H231324   4.700   1.488   8.803  0.6040  1.4023  2.9515
 2377TIP3   OH231325   2.250   6.737   9.447  0.0480  0.7791 -0.2856
 2377TIP3    H131326   2.211   6.662   9.493 -0.9500  0.9692 -0.7894
 2377TIP3    H231327   2.293   6.698   9.371 -1.1231  0.7634 -0.9664
 2378TIP3   OH231328   2.315   3.417   0.388 -0.5434  0.3664 -0.1121
 2378TIP3    H131329   2.290   3.333   0.425  0.8213 -0.0550 -0.0764
 2378TIP3    H231330   2.328   3.474   0.463 -2.0852  0.8214 -0.1593
 2379TIP3   OH231331   6.263   6.314   8.840  0.2088 -0.3511  0.3302
 2379TIP3    H131332   6.209   6.359   8.905 -0.6374 -0.1597 -0.4841
 2379TIP3    H231333   6.207   6.246   8.805  0.8948 -0.9051  0.2860
 2380TIP3   OH231334   6.103   5.181   8.031 -0.1746  0.4612  0.3620
 2380TIP3    H131335   6.197   5.190   8.012 -0.0939  1.6805  1.2118
 2380TIP3    H231336   6.100   5.151   8.122 -0.6127  1.0934  0.5613
 2381TIP3   OH231337   4.149   3.061   9.027 -0.1147  0.1078 -0.7021
 2381TIP3    H131338   4.193   3.121   8.967  0.9776  0.3374  0.2864
 2381TIP3    H231339   4.056   3.067   9.003 -0.0357  2.1533 -0.6637
 2382TIP3   OH231340   1.751   0.345   0.117  0.1656 -0.2084  0.0012
 2382TIP3    H131341   1.663   0.350   0.080  0.1893 -0.6058 -0.1104
 2382TIP3    H231342   1.752   0.265   0.169  0.7534 -0.7376 -0.7903
 2383TIP3   OH231343   7.000   2.128   9.751  0.2938 -0.5859  0.0678
 2383TIP3    H131344   6.911   2.129   9.717  0.8567 -1.3682 -1.5034
 2383TIP3    H231345   7.047   2.066   9.696  1.8652 -0.0722  0.7589
 2384TIP3   OH231346   0.234   0.395   0.676  0.0581 -0.4312  0.1521
 2384TIP3    H131347   0.327   0.412   0.661 -0.3637  0.3491 -2.0055
 2384TIP3    H231348   0.206   0.464   0.736  0.6837 -0.1565  0.1335
 2385TIP3   OH231349   7.483   4.871   8.603 -0.2529 -0.1525 -0.4978
 2385TIP3    H131350   7.424   4.918   8.545  1.0650  1.5656 -0.5378
 2385TIP3    H231351   7.570   4.903   8.579  0.4779 -0.8057  1.1532
 2386TIP3   OH231352   3.274   5.198   1.418 -0.1362 -0.8399 -0.0457
 2386TIP3    H131353   3.293   5.279   1.370  0.7959  0.2877  2.0782
 2386TIP3    H231354   3.208   5.154   1.365 -3.2066  2.8654  0.2601
 2387TIP3   OH231355   5.759   4.964   9.742  0.1216  0.2641  0.1580
 2387TIP3    H131356   5.673   4.922   9.740  0.7205 -1.1764  1.8574
 2387TIP3    H231357   5.740   5.058   9.734 -1.5797 -0.0386  0.2063
 2388TIP3   OH231358   6.181   6.530   7.600 -0.3866  0.2221 -0.2014
 2388TIP3    H131359   6.178   6.534   7.696 -2.2324  0.8485 -0.2514
 2388TIP3    H231360   6.114   6.466   7.577  1.3920 -1.4605 -1.0589
 2389TIP3   OH231361   4.461   2.900   7.782  0.1939  0.2795  0.2635
 2389TIP3    H131362   4.465   2.812   7.821 -0.0184  0.2775  0.2790
 2389TIP3    H231363   4.552   2.931   7.786  0.0290  0.6321  1.5608
 2390TIP3   OH231364   4.278   7.319   2.029 -0.3109  0.4717  0.3067
 2390TIP3    H131365   4.195   7.365   2.012 -0.7286 -0.2867  0.2797
 2390TIP3    H231366   4.275   7.299   2.122  0.9345  2.5523  0.8774
 2391TIP3   OH231367   6.447   1.955   0.864  0.3297  0.3921  0.3264
 2391TIP3    H131368   6.483   1.908   0.789  0.8446 -0.5614  1.1306
 2391TIP3    H231369   6.523   1.998   0.904  0.0914  0.7464  0.3989
 2392TIP3   OH231370   0.354   0.002   9.913 -0.2499  0.2133  0.1129
 2392TIP3    H131371   0.375  -0.080   9.957  2.3269  0.6421 -0.1829
 2392TIP3    H231372   0.356   0.068   9.983  0.1607  0.3772 -0.0532
 2393TIP3   OH231373   3.075   0.442   0.756 -0.3392 -0.2062 -0.0048
 2393TIP3    H131374   3.089   0.529   0.792 -1.8185  0.6675 -1.4208
 2393TIP3    H231375   2.980   0.434   0.746 -0.2918 -2.2032  0.5608
 2394TIP3   OH231376   1.246   4.077   8.441 -0.1556  0.7378  0.1976
 2394TIP3    H131377   1.214   3.986   8.440  0.6674  0.4265 -1.8073
 2394TIP3    H231378   1.193   4.120   8.508 -2.7143 -0.4654 -0.9432
 2395TIP3   OH231379   1.009   2.966   8.426 -0.1813 -0.2522  0.1244
 2395TIP3    H131380   1.030   2.898   8.490  0.3910 -0.0362  0.1702
 2395TIP3    H231381   1.071   2.951   8.354 -1.0852 -0.7519 -0.5797
 2396TIP3   OH231382   6.830   2.284   1.172  0.1501 -0.8538 -0.4157
 2396TIP3    H131383   6.820   2.238   1.256 -3.1761  1.3523  0.5568
 2396TIP3    H231384   6.756   2.253   1.119  0.4566  0.0628 -1.4007
 2397TIP3   OH231385   3.905   5.814   9.101  0.5072 -0.4305  0.3131
 2397TIP3    H131386   3.867   5.780   9.020 -0.7952  0.0346  0.7153
 2397TIP3    H231387   3.881   5.750   9.167 -1.3798  0.8668  0.9494
 2398TIP3   OH231388   5.057   2.064   9.093 -0.2166 -0.1662  0.1552
 2398TIP3    H131389   5.028   2.079   9.183 -1.1929  0.7728 -0.2951
 2398TIP3    H231390   5.147   2.034   9.102 -0.1781  0.2515  1.4267
 2399TIP3   OH231391   6.034   4.991   9.363  0.5352  0.4444  0.0697
 2399TIP3    H131392   6.073   5.073   9.332  1.8488  0.6057  1.9951
 2399TIP3    H231393   6.096   4.958   9.428 -1.3077 -0.6532  1.3586
 2400TIP3   OH231394   1.879   7.630   8.537  0.5884 -0.0995 -0.2408
 2400TIP3    H131395   1.961   7.583   8.552 -0.6940 -2.1034  1.0153
 2400TIP3    H231396   1.896   7.719   8.568  1.6689 -1.0424  2.0559
 2401TIP3   OH231397   4.032   7.427   1.966  0.5272 -0.2335 -0.2616
 2401TIP3    H131398   4.010   7.362   1.900 -1.2194  2.4794 -2.6155
 2401TIP3    H231399   3.953   7.435   2.019  0.2918  0.7014 -0.7261
 2402TIP3   OH231400   2.774   4.501   1.365  0.0764 -0.4429 -0.8366
 2402TIP3    H131401   2.849   4.504   1.306 -0.2176  0.2737 -1.1852
 2402TIP3    H231402   2.726   4.422   1.339  0.6252 -0.8243 -0.7073
 2403TIP3   OH231403   3.955   2.426   7.569  0.1930  0.1149  0.0912
 2403TIP3    H131404   3.892   2.372   7.523  0.2619  0.3851 -0.3246
 2403TIP3    H231405   4.041   2.393   7.543  0.2296 -0.2942  0.7062
 2404TIP3   OH231406   1.374   4.812   8.426  0.0289  0.1589 -0.0120
 2404TIP3    H131407   1.335   4.899   8.434 -1.6106 -0.2909 -2.1985
 2404TIP3    H231408   1.448   4.824   8.368  0.2770  0.2117  0.3118
 2405TIP3   OH231409   0.455   5.595   8.512 -0.3325 -0.1588  0.8147
 2405TIP3    H131410   0.528   5.539   8.536  0.8147  2.0358  2.8470
 2405TIP3    H231411   0.425   5.561   8.428  1.4286 -2.6312  1.1016
 2406TIP3   OH231412   0.437   7.137   1.655 -0.4144  0.2981 -0.2024
 2406TIP3    H131413   0.421   7.218   1.703  0.8578  0.2939  0.2877
 2406TIP3    H231414   0.527   7.114   1.678 -0.7323 -1.2098 -0.4049
 2407TIP3   OH231415   7.177   1.647   1.974 -0.3695 -0.4825  0.3561
 2407TIP3    H131416   7.162   1.681   1.886  0.3948 -0.1709  0.3422
 2407TIP3    H231417   7.092   1.613   2.001 -0.5019 -1.0299 -0.6895
 2408TIP3   OH231418   5.819   4.111   9.687  0.1219  0.0189  0.5785
 2408TIP3    H131419   5.769   4.049   9.634  0.2689  0.4118 -0.0326
 2408TIP3    H231420   5.901   4.066   9.706  0.6388  0.3818 -0.7012
 2409TIP3   OH231421   5.450   6.237   1.445  0.3849  0.6128 -0.1311
 2409TIP3    H131422   5.486   6.162   1.398  1.1753  0.3750  0.8072
 2409TIP3    H231423   5.465   6.216   1.538 -0.4184  1.4165  0.1950
 2410TIP3   OH231424   2.278   2.942   1.925  0.0125  0.0195 -0.2051
 2410TIP3    H131425   2.326   2.922   2.005  0.8213  1.0076 -0.4238
 2410TIP3    H231426   2.186   2.925   1.947  0.4419 -2.1341  0.1364
 2411TIP3   OH231427   2.448   5.448   0.741 -0.4585 -0.8079  0.3145
 2411TIP3    H131428   2.523   5.431   0.799 -0.7944 -0.3717  0.8928
 2411TIP3    H231429   2.486   5.467   0.656  0.1608  0.5489  0.8635
 2412TIP3   OH231430   2.161   7.591   8.606  0.3543  0.1612 -0.2558
 2412TIP3    H131431   2.230   7.606   8.542  1.4588  0.5038  0.9533
 2412TIP3    H231432   2.189   7.642   8.683 -0.0848 -1.4677  1.0505
 2413TIP3   OH231433   4.218   0.269   1.657  0.7944 -0.4961 -0.3145
 2413TIP3    H131434   4.146   0.220   1.696 -0.3812  1.5305  0.2208
 2413TIP3    H231435   4.206   0.260   1.563  0.2338 -0.7345 -0.2200
 2414TIP3   OH231436   2.336   0.587   1.488  0.3414  0.0091  0.1130
 2414TIP3    H131437   2.354   0.536   1.408 -1.3840  1.0099 -0.9733
 2414TIP3    H231438   2.415   0.577   1.541  1.2686 -1.2466 -1.4239
 2415TIP3   OH231439   4.014   4.326   2.511 -0.5756 -0.7990  0.0198
 2415TIP3    H131440   4.015   4.261   2.581 -0.6327 -0.3340  0.4555
 2415TIP3    H231441   4.026   4.410   2.555 -2.8268 -0.2711 -0.2586
 2416TIP3   OH231442   6.728   6.518   8.839  0.0986 -0.0090 -0.2838
 2416TIP3    H131443   6.773   6.486   8.918  0.5394 -1.6639 -1.1462
 2416TIP3    H231444   6.647   6.558   8.872 -0.7095 -2.4313  0.9485
 2417TIP3   OH231445   1.229   5.041   7.137  0.5981 -0.1986  0.4759
 2417TIP3    H131446   1.171   5.007   7.069  0.4749  2.1919 -0.7158
 2417TIP3    H231447   1.317   5.020   7.106  0.5165  0.3419 -0.1530
 2418TIP3   OH231448   7.373   5.254   9.859 -0.0016  0.0496  0.2317
 2418TIP3    H131449   7.364   5.348   9.841  0.6685 -0.0346 -0.5864
 2418TIP3    H231450   7.308   5.212   9.804  1.0297 -0.0945 -0.9258
 2419TIP3   OH231451   2.019   4.736   1.951  0.8348 -0.3412  0.0232
 2419TIP3    H131452   1.930   4.705   1.967  0.9539 -0.5135  0.3712
 2419TIP3    H231453   2.073   4.689   2.016  0.8856  1.3009  1.2285
 2420TIP3   OH231454   7.453   7.515   8.696  0.2837 -0.0956  0.2823
 2420TIP3    H131455   7.446   7.428   8.657  0.5274 -0.4019  0.9243
 2420TIP3    H231456   7.491   7.501   8.782  1.7964  0.8073 -0.2025
 2421TIP3   OH231457   0.222   7.090   9.101 -0.3099  0.3502 -0.0418
 2421TIP3    H131458   0.313   7.092   9.132 -0.2355 -0.0024 -0.2307
 2421TIP3    H231459   0.169   7.087   9.180 -0.1280 -0.2907  0.0601
 2422TIP3   OH231460   0.339   2.879   9.935 -0.2703  0.0857 -0.6984
 2422TIP3    H131461   0.286   2.958   9.945 -0.7504 -0.1933 -0.9875
 2422TIP3    H231462   0.329   2.832  10.018 -0.3981  0.0811 -0.7162
 2423TIP3   OH231463   2.795   5.143   2.595  0.1843  0.7465  0.2632
 2423TIP3    H131464   2.749   5.101   2.522  0.9475 -0.9164  0.6906
 2423TIP3    H231465   2.735   5.210   2.625 -1.0637  0.0430 -0.5415
 2424TIP3   OH231466   0.149   1.654   9.639  0.1155  0.0146  0.2030
 2424TIP3    H131467   0.058   1.658   9.610 -0.1028 -0.7270  0.7596
 2424TIP3    H231468   0.172   1.745   9.658 -0.9981  0.0411  1.5388
 2425TIP3   OH231469   7.366   4.247   1.502 -0.1169 -0.3830 -0.0830
 2425TIP3    H131470   7.427   4.281   1.568 -0.7798 -0.0488  0.3701
 2425TIP3    H231471   7.286   4.298   1.515 -0.5579 -0.9434 -0.5490
 2426TIP3   OH231472   0.980   4.988   9.176 -0.3577 -0.0536 -0.2699
 2426TIP3    H131473   0.936   5.061   9.221  1.1185 -0.2771  1.6880
 2426TIP3    H231474   0.969   5.007   9.083 -2.5235  1.0957  0.1515
 2427TIP3   OH231475   4.228   2.128   9.271  0.4607 -0.0336  0.1159
 2427TIP3    H131476   4.169   2.057   9.244  1.2320 -0.6951  0.1303
 2427TIP3    H231477   4.234   2.184   9.194 -1.2030  0.7725  0.5199
 2428TIP3   OH231478   1.008   4.945   8.667 -0.7153  0.5076  0.7586
 2428TIP3    H131479   1.017   5.030   8.624  0.9016 -0.3627 -0.7289
 2428TIP3    H231480   1.092   4.931   8.711 -0.6493 -0.6588  0.2955
 2429TIP3   OH231481   7.671   3.323   0.836  0.3107 -0.1436  0.2759
 2429TIP3    H131482   7.661   3.419   0.837 -0.5117 -0.1678 -1.6718
 2429TIP3    H231483   7.765   3.309   0.824  0.2195  0.4979 -1.5168
 2430TIP3   OH231484   3.832   2.461   9.448 -0.5838  0.1596  0.1477
 2430TIP3    H131485   3.924   2.445   9.426 -0.9754 -0.5644 -1.0852
 2430TIP3    H231486   3.827   2.447   9.542  0.8246  1.5340  0.4562
 2431TIP3   OH231487   4.793   0.336   7.565 -0.2690 -0.3225 -0.1111
 2431TIP3    H131488   4.844   0.257   7.582 -0.6254 -0.2304  1.5496
 2431TIP3    H231489   4.731   0.341   7.638  0.9815  2.4903  0.9195
 2432TIP3   OH231490   2.304   5.940   0.054 -0.2738  0.9341 -0.1506
 2432TIP3    H131491   2.341   5.927  -0.033  0.4177  0.0889  0.2613
 2432TIP3    H231492   2.267   6.029   0.051  2.3637  2.1032 -0.3767
 2433TIP3   OH231493   1.698   6.766   8.973  0.2294 -0.5298  0.3886
 2433TIP3    H131494   1.722   6.856   8.995  0.2448 -0.0554 -1.4221
 2433TIP3    H231495   1.665   6.770   8.883  0.3655 -2.3571  0.2015
 2434TIP3   OH231496   4.978   3.727   0.858 -0.2030  0.4329 -0.9686
 2434TIP3    H131497   4.896   3.773   0.876 -0.0139  0.1344  0.8652
 2434TIP3    H231498   4.999   3.750   0.768 -2.3767  0.3881 -1.5452
 2435TIP3   OH231499   3.259   5.471   9.203 -0.2648 -0.2358 -0.6752
 2435TIP3    H131500   3.209   5.528   9.262  0.5703 -1.1141  0.9423
 2435TIP3    H231501   3.337   5.522   9.181 -0.5170  0.0423 -0.9452
 2436TIP3   OH231502   2.469   2.174   0.346  0.0047 -0.3520 -0.3335
 2436TIP3    H131503   2.384   2.207   0.318 -0.2463 -0.6434  0.0747
 2436TIP3    H231504   2.449   2.091   0.390  0.6285 -1.1016 -1.4142
 2437TIP3   OH231505   6.030   6.120   8.795  0.0477  1.0354  0.5065
 2437TIP3    H131506   5.985   6.198   8.763  0.5238  1.4633  0.8590
 2437TIP3    H231507   5.977   6.091   8.870 -0.2066  0.9384  0.2903
 2438TIP3   OH231508   1.519   5.618   3.279 -0.0696 -0.0996 -0.1647
 2438TIP3    H131509   1.490   5.660   3.198 -1.3987  1.1660  0.9201
 2438TIP3    H231510   1.469   5.662   3.348 -0.2077 -2.2732  1.2093
 2439TIP3   OH231511   3.325   3.094   7.569 -0.4146  0.3985 -0.0583
 2439TIP3    H131512   3.309   3.064   7.480  1.3171 -0.6365 -0.0687
 2439TIP3    H231513   3.391   3.163   7.560  1.3187 -1.0933  0.4966
 2440TIP3   OH231514   1.561   5.525   8.724  0.3226  0.4470  0.3363
 2440TIP3    H131515   1.498   5.469   8.771  1.9651 -1.2390  0.6500
 2440TIP3    H231516   1.640   5.521   8.778  1.1408  1.3853 -0.7681
 2441TIP3   OH231517   2.285   5.952   1.682 -0.3720 -0.0235 -0.3873
 2441TIP3    H131518   2.207   5.903   1.657 -0.1395  0.2204 -1.6779
 2441TIP3    H231519   2.358   5.895   1.658 -0.1344 -0.0988  0.4785
 2442TIP3   OH231520   0.514   2.924   1.679  0.4760  0.0468  0.0783
 2442TIP3    H131521   0.502   2.861   1.751  0.8181  0.4758  0.5180
 2442TIP3    H231522   0.428   2.962   1.665  0.5059  0.3097  0.5928
 2443TIP3   OH231523   0.445   4.645   0.440  0.0460  0.4931 -0.0330
 2443TIP3    H131524   0.354   4.673   0.446 -0.2558  0.2943 -2.6269
 2443TIP3    H231525   0.482   4.664   0.526 -2.3529  0.8414  0.9935
 2444TIP3   OH231526   7.218   7.220   1.744  0.1250 -0.2049  0.1816
 2444TIP3    H131527   7.134   7.209   1.700  0.1591  0.6603 -0.1257
 2444TIP3    H231528   7.216   7.309   1.778 -0.0286 -0.9591  2.2696
 2445TIP3   OH231529   0.971   0.320   8.908 -0.2405 -0.2094 -0.4054
 2445TIP3    H131530   0.935   0.279   8.986 -0.9722  0.6834 -0.2545
 2445TIP3    H231531   1.057   0.353   8.934  0.1251 -1.1464 -0.3839
 2446TIP3   OH231532   2.979   4.119   9.282 -0.1887 -0.5118  0.4714
 2446TIP3    H131533   3.010   4.107   9.192 -0.7709  0.2602  0.1621
 2446TIP3    H231534   3.057   4.149   9.330 -0.3135  0.9996 -0.2064
 2447TIP3   OH231535   1.234   6.580   9.594 -0.7818  0.6967  0.0206
 2447TIP3    H131536   1.305   6.540   9.645 -0.2867  0.3684 -0.9177
 2447TIP3    H231537   1.170   6.607   9.660 -0.9301 -1.2274  0.7309
 2448TIP3   OH231538   1.235   7.487   0.999 -0.2959 -0.2856 -0.6949
 2448TIP3    H131539   1.289   7.565   0.992 -1.3103  0.3510 -1.8820
 2448TIP3    H231540   1.279   7.432   1.063  0.0814  1.5584  0.6931
 2449TIP3   OH231541   3.459   1.174   0.524 -0.3421 -0.1061  0.3819
 2449TIP3    H131542   3.504   1.190   0.441 -0.2406 -1.4376  0.1464
 2449TIP3    H231543   3.400   1.248   0.535 -1.5263 -0.6451 -1.6976
 2450TIP3   OH231544   2.072   5.073   7.377 -0.0706  0.5797 -0.5570
 2450TIP3    H131545   1.997   5.127   7.353  1.1776  1.5515 -2.5342
 2450TIP3    H231546   2.035   5.006   7.434 -2.4163  1.1120 -1.3100
 2451TIP3   OH231547   1.897   5.629   7.542 -0.0537  0.0278  0.1547
 2451TIP3    H131548   1.840   5.576   7.487  1.6803  1.2338 -3.0956
 2451TIP3    H231549   1.958   5.567   7.580  0.4627 -0.6296 -1.6435
 2452TIP3   OH231550   4.186   3.309   1.912 -0.0735  0.0003 -0.0891
 2452TIP3    H131551   4.175   3.369   1.985 -1.3792 -1.3306  0.8697
 2452TIP3    H231552   4.169   3.363   1.834  1.7500  1.5284  0.5000
 2453TIP3   OH231553   7.572   2.344   0.215  0.0126  0.2699  0.2292
 2453TIP3    H131554   7.525   2.426   0.198  0.7850  0.2419 -2.6274
 2453TIP3    H231555   7.663   2.363   0.190  0.6920 -0.8316  1.7182
 2454TIP3   OH231556   6.842   5.889   9.606 -0.3597  0.0408  0.5015
 2454TIP3    H131557   6.876   5.977   9.591 -0.3731 -0.0929 -0.3625
 2454TIP3    H231558   6.797   5.866   9.525  1.2320 -1.4906  0.0072
 2455TIP3   OH231559   1.671   2.098   1.424 -0.0618 -0.0093 -0.0747
 2455TIP3    H131560   1.735   2.149   1.473  0.5701 -1.5539  0.7761
 2455TIP3    H231561   1.708   2.091   1.336 -0.4391  1.4414 -0.3752
 2456TIP3   OH231562   1.606   4.001   6.849 -0.0226  0.7275  0.1459
 2456TIP3    H131563   1.510   4.002   6.846 -0.0229  0.4449 -0.0239
 2456TIP3    H231564   1.632   4.022   6.759  0.0711  0.5784  0.1384
 2457TIP3   OH231565   7.552   1.344   8.280 -0.1911  0.7135  0.3913
 2457TIP3    H131566   7.646   1.361   8.284 -0.0832  0.0555  0.7356
 2457TIP3    H231567   7.528   1.316   8.368 -0.4564 -0.4055 -0.0206
 2458TIP3   OH231568   3.811   5.564   8.590 -0.2020  0.3519  0.2848
 2458TIP3    H131569   3.869   5.618   8.644 -0.0807  0.4289  0.0794
 2458TIP3    H231570   3.829   5.474   8.617  2.1944  0.0934 -1.8086
 2459TIP3   OH231571   3.481   6.676   7.555  0.1949 -0.1109  0.0517
 2459TIP3    H131572   3.512   6.613   7.619 -0.5373 -1.5790 -0.9858
 2459TIP3    H231573   3.468   6.625   7.475  1.3091  1.6795 -1.3648
 2460TIP3   OH231574   7.202   5.360   1.405  0.1836 -0.0698 -0.0072
 2460TIP3    H131575   7.209   5.345   1.499 -2.6225 -1.5690  0.0868
 2460TIP3    H231576   7.205   5.272   1.366  1.8369  0.5558 -1.4151
 2461TIP3   OH231577   4.286   5.553   8.334  0.5030 -0.0411  0.6241
 2461TIP3    H131578   4.246   5.569   8.420 -1.0349 -0.1732 -0.0398
 2461TIP3    H231579   4.228   5.490   8.292  1.7852 -0.7442 -0.1430
 2462TIP3   OH231580   0.614   1.133   0.136  0.5630 -0.1324  0.2891
 2462TIP3    H131581   0.602   1.117   0.043  2.2792  0.6500 -0.1144
 2462TIP3    H231582   0.533   1.103   0.177 -1.0102  1.2183 -1.6477
 2463TIP3   OH231583   3.631   1.109   1.914 -0.0205  0.4029 -0.7569
 2463TIP3    H131584   3.710   1.134   1.865  0.6332  0.1838  0.1684
 2463TIP3    H231585   3.623   1.015   1.900 -0.4446  0.5087 -1.2935
 2464TIP3   OH231586   3.279   3.291   9.175  0.1383  0.0087  0.0552
 2464TIP3    H131587   3.348   3.273   9.239  1.3438  1.4039 -0.7988
 2464TIP3    H231588   3.221   3.353   9.219  0.1009 -0.2309  0.3460
 2465TIP3   OH231589   2.119   0.098   2.059 -0.3050  0.3370  0.2007
 2465TIP3    H131590   2.029   0.123   2.081 -0.2201 -1.2370  2.8362
 2465TIP3    H231591   2.151   0.169   2.004 -2.9563  1.2412 -0.3263
 2466TIP3   OH231592   5.875   3.448   8.938 -0.3657  0.4674 -0.2297
 2466TIP3    H131593   5.805   3.501   8.900  0.4563  1.0260 -1.0351
 2466TIP3    H231594   5.841   3.418   9.022 -1.6732  0.4652 -0.7388
 2467TIP3   OH231595   1.936   0.646   8.341 -0.5961 -0.4235  0.2124
 2467TIP3    H131596   1.924   0.704   8.416 -0.0349 -0.2451  0.1709
 2467TIP3    H231597   1.996   0.578   8.372  1.8088  1.0897 -0.7837
 2468TIP3   OH231598   3.226   2.460   2.017 -0.0880  0.3325  0.0351
 2468TIP3    H131599   3.208   2.422   2.104  1.6440  1.1750  0.8107
 2468TIP3    H231600   3.219   2.386   1.957 -0.3417 -0.4786  1.0215
 2469TIP3   OH231601   7.306   2.310   9.784  0.0248 -0.9204  0.0181
 2469TIP3    H131602   7.255   2.341   9.859 -0.0056 -3.4320  1.1236
 2469TIP3    H231603   7.397   2.315   9.813  0.0793 -1.0442 -0.1333
 2470TIP3   OH231604   6.031   4.238   9.925  0.4141 -0.4933  0.2486
 2470TIP3    H131605   5.985   4.321   9.944 -0.4920 -0.5601 -1.4670
 2470TIP3    H231606   6.083   4.257   9.846 -0.1030 -1.6531 -0.3892
 2471TIP3   OH231607   2.673   3.919   7.623 -0.0701  0.2707  0.6200
 2471TIP3    H131608   2.721   3.958   7.697  2.1913 -3.6403  1.5427
 2471TIP3    H231609   2.714   3.956   7.545  0.3408  1.4291  1.3638
 2472TIP3   OH231610   5.304   1.285   0.468  0.6496  0.0120 -0.2802
 2472TIP3    H131611   5.259   1.222   0.525 -0.5776  1.1425  0.0461
 2472TIP3    H231612   5.392   1.248   0.457 -0.2191 -2.1196 -0.6781
 2473TIP3   OH231613   3.097   4.582   1.784 -0.0990  0.3231 -0.4899
 2473TIP3    H131614   3.091   4.643   1.710 -2.1652 -0.3425 -0.9173
 2473TIP3    H231615   3.096   4.639   1.861 -0.5071  0.9023 -0.9135
 2474TIP3   OH231616   0.437   4.861   0.726  0.5434 -0.5266 -0.0407
 2474TIP3    H131617   0.517   4.884   0.774 -0.7298 -1.8639  2.9263
 2474TIP3    H231618   0.418   4.771   0.752 -1.6984 -0.4037 -1.0137
 2475TIP3   OH231619   3.436   6.452   1.738  0.3781  0.0776  0.2918
 2475TIP3    H131620   3.341   6.445   1.743  0.2785  0.7341 -0.4595
 2475TIP3    H231621   3.453   6.487   1.650  1.3520 -0.7371  0.1347
 2476TIP3   OH231622   4.004   7.344   2.290  0.7663  0.3206  0.0139
 2476TIP3    H131623   4.067   7.276   2.266  0.0516 -0.1906 -0.4556
 2476TIP3    H231624   4.030   7.372   2.378  1.2747 -0.3156  0.0651
 2477TIP3   OH231625   0.832   5.336   1.067 -0.0497 -0.2388 -0.5777
 2477TIP3    H131626   0.925   5.315   1.078 -0.3025 -0.9232  0.2680
 2477TIP3    H231627   0.797   5.264   1.015 -0.3343 -0.5343  0.0165
 2478TIP3   OH231628   2.976   3.908   0.139  0.1255  0.1745  0.5693
 2478TIP3    H131629   2.904   3.923   0.077  0.2868 -0.7647  0.1316
 2478TIP3    H231630   3.046   3.966   0.109 -0.3311  0.8551  0.8035
 2479TIP3   OH231631   6.668   3.120   0.738  0.1287 -0.1049 -0.0206
 2479TIP3    H131632   6.627   3.094   0.820 -0.0980 -0.3597 -0.2130
 2479TIP3    H231633   6.604   3.177   0.696 -0.1470 -0.7242 -0.4482
 2480TIP3   OH231634   2.975   4.727   8.670  0.6732 -0.0130  0.3077
 2480TIP3    H131635   2.924   4.661   8.623  0.5014  0.3734 -0.0579
 2480TIP3    H231636   2.991   4.688   8.756  1.4285 -0.9422 -0.2343
 2481TIP3   OH231637   1.715   5.083   6.513 -0.1530 -0.2953  0.1895
 2481TIP3    H131638   1.746   5.165   6.552  0.2636  0.1272 -0.9765
 2481TIP3    H231639   1.620   5.089   6.516 -0.1687  1.0345 -1.4168
 2482TIP3   OH231640   0.393   4.026   0.247 -0.5685  0.4719 -0.0209
 2482TIP3    H131641   0.464   4.009   0.308 -0.1614 -0.3846 -0.7158
 2482TIP3    H231642   0.333   4.083   0.295  0.1049  0.4085  0.9109
 2483TIP3   OH231643   1.891   2.947   2.335  0.1283 -0.1271  0.0898
 2483TIP3    H131644   1.804   2.907   2.344  0.5112 -1.0028  0.0026
 2483TIP3    H231645   1.889   3.022   2.395  0.1210 -1.5632  1.9958
 2484TIP3   OH231646   6.335   4.260   1.615  0.1445 -0.0998  0.6275
 2484TIP3    H131647   6.309   4.325   1.680 -0.6759 -0.1165  0.3297
 2484TIP3    H231648   6.276   4.186   1.630 -1.1774  0.5225 -1.1610
 2485TIP3   OH231649   1.289   6.463   1.682  0.4872  0.0486  0.5723
 2485TIP3    H131650   1.314   6.508   1.602 -0.3694 -1.4941 -0.6212
 2485TIP3    H231651   1.196   6.483   1.692  0.1822 -1.1087  0.2205
 2486TIP3   OH231652   5.488   6.178   7.149  0.5456  0.3876  0.1829
 2486TIP3    H131653   5.552   6.177   7.220  0.4305  2.3451  0.3470
 2486TIP3    H231654   5.539   6.199   7.071  0.6534 -1.6540 -0.3676
 2487TIP3   OH231655   3.469   5.644   9.201  0.1595 -0.2342  0.0691
 2487TIP3    H131656   3.467   5.734   9.169 -0.0098 -0.8520 -1.7803
 2487TIP3    H231657   3.468   5.652   9.296  4.4090  1.8589  0.1643
 2488TIP3   OH231658   4.124   7.480   1.293 -0.1602 -0.4321 -0.2614
 2488TIP3    H131659   4.103   7.562   1.339  1.8942  0.4841 -0.8396
 2488TIP3    H231660   4.077   7.486   1.211  0.5200  0.5376 -0.6021
 2489TIP3   OH231661   1.507   0.590   0.460  0.3277 -0.3535 -0.1948
 2489TIP3    H131662   1.457   0.639   0.394  2.7452  0.1742 -1.7672
 2489TIP3    H231663   1.489   0.635   0.542 -0.3232  0.9478 -1.0177
 2490TIP3   OH231664   5.612   1.283   1.806  0.0610  0.5728  0.3822
 2490TIP3    H131665   5.665   1.226   1.751  1.1870 -2.5227  4.2244
 2490TIP3    H231666   5.667   1.360   1.821  0.0533  1.1031 -1.9634
 2491TIP3   OH231667   2.500   1.898   6.794  0.6543 -0.1725  0.1026
 2491TIP3    H131668   2.541   1.813   6.809  0.4425 -0.2349  0.3247
 2491TIP3    H231669   2.567   1.949   6.748  1.6423  0.3058  1.9577
 2492TIP3   OH231670   7.035   5.677   9.687 -0.0816  0.2541 -0.2249
 2492TIP3    H131671   6.949   5.718   9.680  0.5909  1.7218 -0.2150
 2492TIP3    H231672   7.070   5.680   9.598  0.1123 -0.0196 -0.1609
 2493TIP3   OH231673   0.059   3.736   8.611  0.4290  0.4788 -0.7942
 2493TIP3    H131674   0.116   3.809   8.586  0.2857  1.7599  2.1312
 2493TIP3    H231675  -0.013   3.778   8.659 -2.1059 -1.2521 -2.8199
 2494TIP3   OH231676   7.348   7.020   0.386  0.5277 -0.3722 -0.5289
 2494TIP3    H131677   7.327   6.961   0.459  1.0249  1.8155  1.5199
 2494TIP3    H231678   7.442   7.034   0.393  0.3891  0.8183 -0.7894
 2495TIP3   OH231679   4.237   4.381   0.772  0.2187 -0.1024 -0.2019
 2495TIP3    H131680   4.295   4.457   0.761 -1.3260  1.2731  0.6466
 2495TIP3    H231681   4.201   4.391   0.860 -1.6981 -0.5986 -0.8690
 2496TIP3   OH231682   2.843   2.093   8.928  0.5829 -0.0405 -0.0765
 2496TIP3    H131683   2.804   2.026   8.985 -0.2654  1.2971  0.9841
 2496TIP3    H231684   2.910   2.135   8.982  0.7590  0.3034 -0.5581
 2497TIP3   OH231685   3.830   4.638   8.368  0.4056 -0.9166  0.0688
 2497TIP3    H131686   3.823   4.597   8.454  0.2415 -1.2174 -0.0858
 2497TIP3    H231687   3.923   4.633   8.347  0.6151  0.1319  0.6949
 2498TIP3   OH231688   2.096   3.722   2.324 -0.5028  0.0182 -0.3787
 2498TIP3    H131689   2.071   3.805   2.365 -0.6345  0.2802 -0.9690
 2498TIP3    H231690   2.063   3.654   2.382  2.4724  0.3137  1.9261
 2499TIP3   OH231691   6.607   1.408   1.089  0.8927  0.1942  0.0416
 2499TIP3    H131692   6.552   1.427   1.013  1.2304 -0.0640 -0.2683
 2499TIP3    H231693   6.600   1.313   1.101 -1.5439  0.5402  2.1586
 2500TIP3   OH231694   2.973   3.485   7.890  0.5386 -0.3207  0.2063
 2500TIP3    H131695   3.008   3.468   7.977 -1.7847  0.0659  1.3173
 2500TIP3    H231696   2.962   3.399   7.850  1.5556 -0.5043  0.3191
 2501TIP3   OH231697   0.360   5.892   0.216  0.0161  0.1355  0.1466
 2501TIP3    H131698   0.452   5.885   0.192  0.2162  1.4539  0.4743
 2501TIP3    H231699   0.338   5.984   0.203 -1.5865 -0.3723 -1.0394
 2502TIP3   OH231700   2.074   4.521   0.025  0.2909  0.1391  0.2377
 2502TIP3    H131701   2.072   4.605   0.071  0.5444  0.3291 -0.0936
 2502TIP3    H231702   2.039   4.540  -0.062 -2.4053 -0.6801  1.0470
 2503TIP3   OH231703   4.021   7.177   0.281  0.0141 -0.2840  0.1182
 2503TIP3    H131704   4.037   7.261   0.237 -1.5209  1.1794  2.1877
 2503TIP3    H231705   3.928   7.159   0.265  0.1053 -1.1178  0.5040
 2504TIP3   OH231706   1.729   5.046   7.557 -0.2308 -0.2220 -0.2001
 2504TIP3    H131707   1.696   4.972   7.507 -0.1558 -0.5309  0.2069
 2504TIP3    H231708   1.724   5.120   7.496  0.7046 -0.7686 -0.9599
 2505TIP3   OH231709   4.943   1.976   9.376  0.5278 -0.0931 -0.6673
 2505TIP3    H131710   4.856   2.001   9.408  0.7522 -0.0560 -0.0755
 2505TIP3    H231711   4.996   2.054   9.387  1.0411 -0.5742  0.4799
 2506TIP3   OH231712   6.258   5.929   1.215  0.3479  0.6392 -0.1339
 2506TIP3    H131713   6.321   6.001   1.221 -1.4638  2.4068 -0.9975
 2506TIP3    H231714   6.193   5.948   1.283  1.7187 -2.3028  2.2090
 2507TIP3   OH231715   5.578   0.604   0.821  0.5758 -0.0797 -0.4983
 2507TIP3    H131716   5.504   0.544   0.832  0.5491 -0.0268 -0.3868
 2507TIP3    H231717   5.655   0.549   0.832  0.5578 -0.1804 -0.8411
 2508TIP3   OH231718   2.687   2.943   2.486 -0.1343  0.3160 -0.3264
 2508TIP3    H131719   2.608   2.907   2.525  0.8834 -0.9329  0.6773
 2508TIP3    H231720   2.744   2.868   2.472  1.0524  1.2315 -0.6189
 2509TIP3   OH231721   4.317   4.072   0.655 -0.4250 -0.2022  0.8174
 2509TIP3    H131722   4.294   3.979   0.647 -4.4670  0.7296 -1.1517
 2509TIP3    H231723   4.283   4.112   0.575  2.6402  2.8491  0.7845
 2510TIP3   OH231724   3.831   5.434   0.217 -0.3616  0.6988  0.6995
 2510TIP3    H131725   3.784   5.351   0.210 -1.8005  1.4799  0.6801
 2510TIP3    H231726   3.875   5.430   0.302 -2.6578  0.9872  1.9742
 2511TIP3   OH231727   2.687   4.340   7.880 -0.5921  0.2779 -0.0338
 2511TIP3    H131728   2.605   4.385   7.898 -0.9107  0.1144 -1.0268
 2511TIP3    H231729   2.721   4.383   7.801  0.1672  0.1945  0.2383
 2512TIP3   OH231730   0.898   2.807   9.934  0.2792 -1.0881  0.0254
 2512TIP3    H131731   0.819   2.755   9.953 -0.6431 -0.0982 -0.9265
 2512TIP3    H231732   0.921   2.847  10.017 -1.0097 -0.3733  0.0695
 2513TIP3   OH231733   1.792   5.444   0.410  0.3516 -0.0528 -0.0967
 2513TIP3    H131734   1.838   5.503   0.469 -0.4977  1.1581 -0.6012
 2513TIP3    H231735   1.733   5.500   0.361  1.0131 -1.0087 -2.1044
 2514TIP3   OH231736   4.426   5.399   0.912  0.1757 -0.6139  0.6685
 2514TIP3    H131737   4.516   5.373   0.891 -0.2543 -0.7874 -1.0453
 2514TIP3    H231738   4.395   5.444   0.834 -0.8973  0.3783  1.6326
 2515TIP3   OH231739   3.283   5.670   3.368 -0.2018 -0.0470  0.1038
 2515TIP3    H131740   3.198   5.707   3.343  0.2395  0.8027 -0.1820
 2515TIP3    H231741   3.345   5.741   3.353  0.5177 -0.5546  0.6283
 2516TIP3   OH231742   4.774   6.034   1.808 -0.6636  0.3842  0.0942
 2516TIP3    H131743   4.847   6.050   1.748  1.1855 -0.8210  1.8635
 2516TIP3    H231744   4.710   6.101   1.786  1.7369  2.7114 -0.3816
 2517TIP3   OH231745   0.312   7.448   1.498 -0.2890  0.3890  0.0640
 2517TIP3    H131746   0.382   7.398   1.457 -1.2158 -0.1659 -0.8589
 2517TIP3    H231747   0.318   7.426   1.591 -0.4867 -1.2020 -0.2822
 2518TIP3   OH231748   2.812   5.638   8.621 -0.7159  0.1982  0.2310
 2518TIP3    H131749   2.823   5.687   8.702  0.4392 -0.0876  0.2657
 2518TIP3    H231750   2.896   5.646   8.576 -0.8837 -0.7826 -0.3002
 2519TIP3   OH231751   7.672   6.751   7.997  0.0319  0.1813 -0.0611
 2519TIP3    H131752   7.741   6.684   7.996 -0.1110 -0.1200  2.4332
 2519TIP3    H231753   7.708   6.824   7.947  0.9980 -1.0057 -1.1701
 2520TIP3   OH231754   5.893   5.312   0.336 -0.3317 -0.3793  0.4918
 2520TIP3    H131755   5.877   5.361   0.416 -0.6951 -0.2991  0.3695
 2520TIP3    H231756   5.988   5.296   0.337 -0.0629  1.0200  0.1420
 2521TIP3   OH231757   7.657   0.405   2.361  0.1720  0.2173  0.7193
 2521TIP3    H131758   7.636   0.462   2.435 -1.7901  0.8486 -0.2803
 2521TIP3    H231759   7.576   0.397   2.312  1.7003  0.8466 -2.0938
 2522TIP3   OH231760   2.030   6.222   2.953  0.3995 -0.2679  0.5440
 2522TIP3    H131761   2.077   6.243   2.872 -0.8964  0.5819 -0.0300
 2522TIP3    H231762   2.036   6.302   3.005 -2.2322  0.7103 -0.4870
 2523TIP3   OH231763   7.061   1.960   8.538  0.4712  0.6442 -0.7695
 2523TIP3    H131764   6.970   1.989   8.537 -0.3717 -1.6738  0.6031
 2523TIP3    H231765   7.101   2.008   8.612  0.0847  0.8905 -0.7195
 2524TIP3   OH231766   6.909   3.845   1.702  0.1211 -0.2496  0.0928
 2524TIP3    H131767   6.995   3.806   1.714  0.2606  0.0526  0.0641
 2524TIP3    H231768   6.894   3.898   1.780 -0.7880 -1.6844  0.9461
 2525TIP3   OH231769   0.140   3.441   8.659  0.4879 -0.2251  0.1396
 2525TIP3    H131770   0.196   3.441   8.581  1.6278 -0.9366  0.9254
 2525TIP3    H231771   0.129   3.534   8.681  0.4005 -0.0330 -0.6787
 2526TIP3   OH231772   2.134   3.880   7.444 -0.2818 -0.2350 -0.5055
 2526TIP3    H131773   2.126   3.896   7.538  0.0632  0.7248 -0.6278
 2526TIP3    H231774   2.119   3.786   7.434  0.4816 -0.4894  0.5965
 2527TIP3   OH231775   1.268   6.340   7.625  0.3268 -0.0987 -0.5367
 2527TIP3    H131776   1.176   6.354   7.647  0.6211 -0.7341  1.3117
 2527TIP3    H231777   1.295   6.266   7.680  2.2353  0.8046 -0.1479
 2528TIP3   OH231778   1.880   1.108   6.791  0.0022  0.3587 -0.6643
 2528TIP3    H131779   1.832   1.110   6.874  0.7036 -0.2962 -0.2286
 2528TIP3    H231780   1.824   1.155   6.730 -0.6452  0.6307  0.1199
 2529TIP3   OH231781   2.387   7.300   7.876  0.0602  0.3168 -0.5004
 2529TIP3    H131782   2.375   7.395   7.875  1.3141  0.4993 -1.9906
 2529TIP3    H231783   2.470   7.286   7.922  0.2960  0.0249 -0.9974
 2530TIP3   OH231784   2.738   1.934   0.112 -0.1316 -0.0790  0.5099
 2530TIP3    H131785   2.651   1.951   0.078 -0.6482 -0.5849  1.5163
 2530TIP3    H231786   2.795   1.933   0.035 -0.9144  0.8121 -0.1022
 2531TIP3   OH231787   0.910   7.025   9.698 -0.0415 -0.1950 -0.2720
 2531TIP3    H131788   0.980   7.089   9.684  1.3007 -1.4160  0.5870
 2531TIP3    H231789   0.913   6.969   9.621 -1.7711  1.2175 -1.4222
 2532TIP3   OH231790   7.663   0.237   2.610  0.0449  0.2032  0.4619
 2532TIP3    H131791   7.699   0.161   2.656 -0.5650 -1.4256 -1.6045
 2532TIP3    H231792   7.737   0.275   2.564  0.1129  0.0111  0.4087
 2533TIP3   OH231793   1.469   2.222   7.343 -0.2623 -0.2383  0.1792
 2533TIP3    H131794   1.473   2.240   7.437  1.2672  0.5415 -0.0229
 2533TIP3    H231795   1.390   2.268   7.313 -0.1154  0.4857  0.8793
 2534TIP3   OH231796   4.799   4.054   0.779 -0.0431 -0.0154 -0.3772
 2534TIP3    H131797   4.809   3.998   0.702 -1.1317 -0.9870  0.1562
 2534TIP3    H231798   4.884   4.096   0.789  0.5947 -1.0419 -1.2195
 2535TIP3   OH231799   2.267   5.453   6.430 -0.1052 -0.1797 -0.3639
 2535TIP3    H131800   2.185   5.413   6.460 -0.2246 -0.2173 -0.7385
 2535TIP3    H231801   2.293   5.511   6.502 -1.3083  1.0668 -0.8932
 2536TIP3   OH231802   1.583   3.524   1.305 -0.3722 -0.1988 -0.3700
 2536TIP3    H131803   1.568   3.437   1.342  2.3387 -0.7719 -0.3930
 2536TIP3    H231804   1.514   3.579   1.343 -0.7601 -1.8488  1.4866
 2537TIP3   OH231805   5.162   5.055   0.831  0.3679 -0.5087 -0.5565
 2537TIP3    H131806   5.223   5.072   0.759  0.8672  1.6385  0.3140
 2537TIP3    H231807   5.091   5.118   0.817 -0.0137 -0.7279  0.3222
 2538TIP3   OH231808   5.690   5.999   9.383  0.4876  0.5779  0.4345
 2538TIP3    H131809   5.741   6.059   9.328  0.6459 -0.0057 -0.0614
 2538TIP3    H231810   5.744   5.920   9.388  0.4352  0.5886  1.3628
 2539TIP3   OH231811   1.583   2.139   9.420  0.3417 -0.4784  0.1747
 2539TIP3    H131812   1.503   2.127   9.471  1.4692 -1.9711  1.7302
 2539TIP3    H231813   1.634   2.202   9.471  0.3310  0.1620 -0.5951
 2540TIP3   OH231814   1.605   4.637   9.396  0.2008 -0.7746 -0.4474
 2540TIP3    H131815   1.629   4.544   9.396  0.4934 -0.7004 -0.4342
 2540TIP3    H231816   1.655   4.674   9.470 -1.3319 -0.9689  0.7389
 2541TIP3   OH231817   4.185   2.514   9.013 -0.1667  0.1104 -0.2289
 2541TIP3    H131818   4.111   2.570   9.036  1.5701  2.3091  0.3475
 2541TIP3    H231819   4.211   2.542   8.926 -0.8566 -1.6821 -1.0668
 2542TIP3   OH231820   1.447   5.897   8.521  0.4299 -0.3793  0.3419
 2542TIP3    H131821   1.492   5.817   8.493  1.3119  0.2327 -0.0318
 2542TIP3    H231822   1.441   5.889   8.616  1.0764 -0.5993  0.3682
 2543TIP3   OH231823   1.912   4.124   6.243 -0.3122 -0.6109  0.0799
 2543TIP3    H131824   1.897   4.206   6.195 -1.4120 -0.9850 -0.2416
 2543TIP3    H231825   2.006   4.126   6.264 -0.0206  0.0488 -1.1764
 2544TIP3   OH231826   5.894   4.485   8.295  0.1941 -0.5288 -0.6093
 2544TIP3    H131827   5.854   4.440   8.370 -0.2585  0.6201 -0.1392
 2544TIP3    H231828   5.829   4.476   8.225  0.4565 -1.2825 -0.7715
 2545TIP3   OH231829   5.485   2.671   0.872 -0.2840  0.2386  0.6239
 2545TIP3    H131830   5.503   2.730   0.799  1.8577 -1.3956 -0.2644
 2545TIP3    H231831   5.533   2.709   0.946  3.0929 -1.4010 -0.5004
 2546TIP3   OH231832   1.722   0.172   0.647 -0.4352 -0.0943  0.2890
 2546TIP3    H131833   1.782   0.102   0.622  0.1195  0.3819  0.2861
 2546TIP3    H231834   1.635   0.134   0.633 -0.2221 -1.6940  2.7464
 2547TIP3   OH231835   0.915   5.435   7.592 -0.0711 -0.2582 -0.2011
 2547TIP3    H131836   0.825   5.404   7.604 -0.0224 -0.6897 -0.9119
 2547TIP3    H231837   0.963   5.359   7.561  0.7462 -0.2540  0.9812
 2548TIP3   OH231838   4.314   2.155   8.797  0.3769 -0.0446  0.3012
 2548TIP3    H131839   4.276   2.205   8.870  2.0971  0.5892  0.8003
 2548TIP3    H231840   4.263   2.074   8.795 -1.2724  0.9333  0.6605
 2549TIP3   OH231841   3.302   6.898   1.118 -0.3069 -0.4639 -0.1824
 2549TIP3    H131842   3.256   6.943   1.047  2.6583  2.6620 -0.4210
 2549TIP3    H231843   3.253   6.922   1.197 -0.8009  0.2798 -0.6966
 2550TIP3   OH231844   1.365   0.275   8.710 -0.0424 -0.0669  0.2073
 2550TIP3    H131845   1.384   0.343   8.774  0.7748  0.1142 -0.2180
 2550TIP3    H231846   1.356   0.321   8.627 -0.1383 -0.4090  0.0240
 2551TIP3   OH231847   0.562   4.874   6.842  0.3809 -0.0010  0.2729
 2551TIP3    H131848   0.472   4.844   6.825  0.2749 -0.2135  1.1449
 2551TIP3    H231849   0.615   4.830   6.776 -0.2794  0.9083 -0.9000
 2552TIP3   OH231850   0.461   1.057   8.147 -0.2099  0.5587  0.2912
 2552TIP3    H131851   0.534   1.106   8.108 -0.0338 -0.6316 -0.9420
 2552TIP3    H231852   0.444   1.102   8.231 -0.2999  2.9242 -0.9051
 2553TIP3   OH231853   7.653   3.925   8.797  0.5506 -0.2307 -0.1807
 2553TIP3    H131854   7.655   3.929   8.893 -3.2961 -0.6594  0.0920
 2553TIP3    H231855   7.650   4.016   8.769 -3.6200  0.0907  0.6280
 2554TIP3   OH231856   5.822   4.309   9.477 -0.1501  0.4885  0.2013
 2554TIP3    H131857   5.913   4.339   9.476 -0.8886  3.3660  2.8808
 2554TIP3    H231858   5.814   4.259   9.558 -0.4385 -2.0572 -1.2953
 2555TIP3   OH231859   1.306   0.010   0.450 -0.5518 -0.5077 -0.0698
 2555TIP3    H131860   1.314   0.062   0.530 -0.0873 -1.0369  0.2385
 2555TIP3    H231861   1.388   0.023   0.404 -0.5908 -0.6525 -0.1822
 2556TIP3   OH231862   6.607   2.031   9.029 -0.2353  0.4712  0.6852
 2556TIP3    H131863   6.697   2.063   9.029 -0.3136  0.7102  1.5559
 2556TIP3    H231864   6.609   1.956   8.970  1.0735 -0.9276  2.3672
 2557TIP3   OH231865   6.373   6.714   8.565  0.8858 -0.2917 -0.5107
 2557TIP3    H131866   6.352   6.621   8.575  2.6341 -0.9161 -2.1416
 2557TIP3    H231867   6.446   6.728   8.624  0.7989 -0.0128 -0.4709
 2558TIP3   OH231868   1.965   1.835   3.040  0.2214 -0.3028  0.2893
 2558TIP3    H131869   1.984   1.743   3.021  0.2410 -0.1448 -0.4562
 2558TIP3    H231870   1.874   1.847   3.012  0.5917  0.2048 -0.7144
 2559TIP3   OH231871   2.100   4.359   1.315  0.4145 -0.1601  0.1278
 2559TIP3    H131872   2.093   4.284   1.374  0.7870  0.0061  0.3867
 2559TIP3    H231873   2.194   4.374   1.306  0.3425  0.2411  0.0317
 2560TIP3   OH231874   7.127   1.061   9.386 -0.1660  0.0221  0.7117
 2560TIP3    H131875   7.035   1.061   9.412 -0.7268  1.1057 -1.0963
 2560TIP3    H231876   7.131   1.002   9.311  0.4561  0.5984  0.2846
 2561TIP3   OH231877   1.150   4.587   8.449 -0.0950 -0.0793  0.1614
 2561TIP3    H131878   1.068   4.633   8.428  0.6560  0.5105 -1.6684
 2561TIP3    H231879   1.200   4.651   8.499  0.0079  0.2769 -0.3829
 2562TIP3   OH231880   2.167   2.766   0.290 -0.2615  0.2819  0.3715
 2562TIP3    H131881   2.217   2.733   0.216  0.2186  1.2030  0.2825
 2562TIP3    H231882   2.232   2.805   0.349 -0.7743  0.7128  0.6636
 2563TIP3   OH231883   4.065   4.396   7.665  0.3003  0.6431 -0.2508
 2563TIP3    H131884   4.002   4.388   7.594  0.1573  1.5559 -0.2368
 2563TIP3    H231885   4.039   4.328   7.727  0.2565  0.0227 -0.9289
 2564TIP3   OH231886   5.202   5.763   1.226  0.0224 -0.4380 -0.1528
 2564TIP3    H131887   5.189   5.673   1.195  2.5587 -1.0450  0.3327
 2564TIP3    H231888   5.257   5.804   1.160 -0.0798  0.3673  0.2434
 2565TIP3   OH231889   1.534   1.762   0.603 -0.4631  0.2679  0.0061
 2565TIP3    H131890   1.524   1.856   0.590 -1.0335  0.2613  0.3664
 2565TIP3    H231891   1.615   1.753   0.653  1.1320  0.3765 -2.3893
 2566TIP3   OH231892   2.188   3.359   2.424 -1.0542  0.3115  0.8957
 2566TIP3    H131893   2.248   3.348   2.498 -1.1395 -0.8667  0.8176
 2566TIP3    H231894   2.107   3.392   2.463 -0.4598  1.6406  1.0403
 2567TIP3   OH231895   0.451   5.244   2.159 -0.6742  0.3637  0.3869
 2567TIP3    H131896   0.424   5.184   2.090 -0.9514  2.2201 -1.2151
 2567TIP3    H231897   0.432   5.331   2.124  0.7219  1.4548  2.1494
 2568TIP3   OH231898   0.337   0.603   0.885  0.5639  0.1234 -0.6197
 2568TIP3    H131899   0.400   0.671   0.860 -1.1723  1.5145 -1.4174
 2568TIP3    H231900   0.256   0.629   0.842 -0.8634 -1.0025  1.2803
 2569TIP3   OH231901   1.527   0.267   6.729  0.3974 -0.1149  0.2351
 2569TIP3    H131902   1.606   0.280   6.676  0.1032  0.4378 -0.0713
 2569TIP3    H231903   1.500   0.177   6.709 -0.7309  0.6427 -1.9884
 2570TIP3   OH231904   2.652   7.136   8.979  0.1333 -0.3521  0.3110
 2570TIP3    H131905   2.730   7.190   8.990  0.4454 -0.9251  1.0301
 2570TIP3    H231906   2.600   7.152   9.058 -0.3090 -0.2486  0.0051
 2571TIP3   OH231907   3.965   0.604   8.786  0.3819  0.0443 -0.4492
 2571TIP3    H131908   3.965   0.581   8.879 -0.2894  0.3860 -0.3599
 2571TIP3    H231909   3.888   0.560   8.750 -0.0294  0.8641 -0.5959
 2572TIP3   OH231910   5.046   5.204   7.210  0.0301  0.0116  0.3401
 2572TIP3    H131911   5.077   5.231   7.296  0.8303 -1.4999  0.5562
 2572TIP3    H231912   4.955   5.176   7.225  0.1950 -0.3262  0.7114
 2573TIP3   OH231913   5.983   6.705   8.981 -0.2763  0.4536 -0.0266
 2573TIP3    H131914   5.980   6.745   9.068  0.9915 -0.6852  0.5723
 2573TIP3    H231915   5.997   6.778   8.921  1.9240  0.9576  1.0189
 2574TIP3   OH231916   7.214   6.805   8.024 -0.1858 -0.2271 -0.1635
 2574TIP3    H131917   7.198   6.732   7.963 -1.7459  0.0660 -0.1338
 2574TIP3    H231918   7.140   6.863   8.012 -0.8875 -0.4723  2.4770
 2575TIP3   OH231919   5.356   7.163   1.989 -0.0437 -0.5358 -0.1999
 2575TIP3    H131920   5.349   7.133   1.898 -1.8081 -0.0044 -0.2730
 2575TIP3    H231921   5.283   7.121   2.034  0.1230  0.1213  0.7072
 2576TIP3   OH231922   7.147   0.440   8.286 -0.2005 -0.5724 -0.2995
 2576TIP3    H131923   7.238   0.411   8.299 -0.1887 -0.6466 -0.5413
 2576TIP3    H231924   7.153   0.502   8.214 -0.5538 -1.7209 -1.3551
 2577TIP3   OH231925   4.319   6.380   7.774 -0.0975 -0.5654  0.5094
 2577TIP3    H131926   4.325   6.401   7.681 -2.4529 -1.8930 -0.0300
 2577TIP3    H231927   4.270   6.453   7.812 -1.7562 -1.4009  0.0747
 2578TIP3   OH231928   1.918   7.597   2.617  0.4662  0.2752 -0.1996
 2578TIP3    H131929   1.940   7.656   2.689  0.2922 -0.5738  0.5660
 2578TIP3    H231930   1.824   7.582   2.626  0.6456 -0.7645  0.1303
 2579TIP3   OH231931   5.361   3.650   9.571 -0.2401 -0.1409  0.2752
 2579TIP3    H131932   5.306   3.581   9.532 -1.3376  1.2216 -0.6928
 2579TIP3    H231933   5.298   3.718   9.597  0.8188  0.5110  1.1914
 2580TIP3   OH231934   3.875   7.570   2.469 -0.3691 -0.1258 -0.0770
 2580TIP3    H131935   3.840   7.512   2.401 -0.9270  0.2590 -0.1217
 2580TIP3    H231936   3.958   7.530   2.494  0.0759 -0.0312 -1.3192
 2581TIP3   OH231937   4.615   0.730   1.933 -0.5236 -0.8044  0.0842
 2581TIP3    H131938   4.660   0.646   1.923  0.2817 -0.2036 -2.2234
 2581TIP3    H231939   4.526   0.713   1.904 -0.0311 -0.6527 -1.6605
 2582TIP3   OH231940   2.455   4.830   0.935 -0.4297 -0.5065 -0.1061
 2582TIP3    H131941   2.490   4.910   0.895 -0.5428 -0.7454 -0.6947
 2582TIP3    H231942   2.363   4.828   0.909 -0.7823 -0.1300  1.0402
 2583TIP3   OH231943   2.830   0.629   9.274  0.8987  0.1048 -0.1319
 2583TIP3    H131944   2.921   0.609   9.252  1.9010  0.0450  3.3440
 2583TIP3    H231945   2.809   0.706   9.222  2.3133 -0.8195 -2.2321
 2584TIP3   OH231946   3.974   6.748   3.017  0.8298 -0.4044  0.4081
 2584TIP3    H131947   3.895   6.761   2.965  1.6246 -0.4315 -0.8466
 2584TIP3    H231948   4.015   6.835   3.021  0.7341 -0.3845  1.0704
 2585TIP3   OH231949   4.646   1.930   0.775 -0.2419  0.1754  0.0973
 2585TIP3    H131950   4.706   1.962   0.708 -0.5661  0.0414 -0.2601
 2585TIP3    H231951   4.693   1.859   0.818 -0.6641 -0.8627 -1.1040
 2586TIP3   OH231952   3.448   4.508   0.461  0.1469  0.2483 -0.0569
 2586TIP3    H131953   3.528   4.541   0.502  1.5181  1.2841 -3.2898
 2586TIP3    H231954   3.379   4.567   0.493  1.5777  2.6411 -1.1005
 2587TIP3   OH231955   2.560   2.842   8.734  0.2585  0.7810 -0.1867
 2587TIP3    H131956   2.638   2.787   8.728 -0.9041 -1.0621  0.6778
 2587TIP3    H231957   2.533   2.855   8.643  1.8955  2.0278 -0.5487
 2588TIP3   OH231958   5.188   0.717   8.597  0.0256 -0.1462 -0.0795
 2588TIP3    H131959   5.273   0.705   8.638  0.7012  0.9916 -1.0501
 2588TIP3    H231960   5.209   0.754   8.511 -1.4549  0.2669 -0.2862
 2589TIP3   OH231961   3.177   7.401   1.997  0.1972 -0.0196 -0.2131
 2589TIP3    H131962   3.164   7.456   2.075  1.8111 -0.6630  0.5398
 2589TIP3    H231963   3.093   7.407   1.951 -0.7978  0.4155  1.5339
 2590TIP3   OH231964   1.859   6.483   2.601 -0.2467 -0.3866 -0.0531
 2590TIP3    H131965   1.869   6.449   2.690 -1.5598  0.4985  0.4663
 2590TIP3    H231966   1.785   6.434   2.565 -0.6336  0.2508 -0.1388
 2591TIP3   OH231967   4.760   1.185   0.585  0.2799 -0.1835  0.5776
 2591TIP3    H131968   4.825   1.217   0.647  1.4980 -0.2312 -0.6229
 2591TIP3    H231969   4.757   1.091   0.600  0.3996 -0.1646  0.7259
 2592TIP3   OH231970   2.461   3.334   3.044 -0.1502  0.2610  0.0437
 2592TIP3    H131971   2.517   3.258   3.026  1.9354  1.2643  1.7992
 2592TIP3    H231972   2.393   3.299   3.102 -1.5529 -1.0063 -2.2173
 2593TIP3   OH231973   4.759   0.172   9.759  0.1353  0.0382  0.2893
 2593TIP3    H131974   4.664   0.161   9.770  0.3199 -0.9256  1.1572
 2593TIP3    H231975   4.773   0.163   9.665 -0.6889  0.7481  0.0829
 2594TIP3   OH231976   1.133   0.599   9.543  0.9327  0.5549 -0.1089
 2594TIP3    H131977   1.056   0.622   9.594 -0.4048  1.0486 -2.2203
 2594TIP3    H231978   1.163   0.516   9.581 -0.4625  0.4990  0.9466
 2595TIP3   OH231979   0.419   4.585   0.961  0.9905  0.0941  0.4828
 2595TIP3    H131980   0.326   4.564   0.960  0.8856  0.5693  0.2389
 2595TIP3    H231981   0.458   4.519   1.019  0.8696 -1.6110 -1.2539
 2596TIP3   OH231982   2.150   6.448   9.006  0.7651 -0.4753  0.0290
 2596TIP3    H131983   2.199   6.527   8.983  0.9229 -0.7489 -0.5938
 2596TIP3    H231984   2.059   6.468   8.985  0.7546 -0.3302  0.2145
 2597TIP3   OH231985   0.097   2.219   9.928  0.1287  0.5491  0.2534
 2597TIP3    H131986   0.150   2.148   9.963 -1.0104 -1.6141 -2.0973
 2597TIP3    H231987   0.103   2.209   9.833 -2.5116  1.6897 -0.1221
 2598TIP3   OH231988   3.863   0.949   1.502 -0.1492 -0.3803 -0.1009
 2598TIP3    H131989   3.810   0.938   1.423  1.2375 -1.5187 -0.9346
 2598TIP3    H231990   3.836   0.877   1.559 -0.6892  0.0486  0.1833
 2599TIP3   OH231991   6.714   7.172   8.073 -0.2983  0.1383  0.1556
 2599TIP3    H131992   6.714   7.076   8.077  0.9723  0.1600  1.3568
 2599TIP3    H231993   6.694   7.200   8.162 -3.6164  1.0692 -0.7432
 2600TIP3   OH231994   3.847   6.170   0.032  0.1874 -0.0092 -0.3705
 2600TIP3    H131995   3.863   6.098  -0.030 -1.3461  0.2065 -1.0674
 2600TIP3    H231996   3.761   6.151   0.068  0.1509  1.0157  0.1092
 2601TIP3   OH231997   3.538   5.502   2.949  0.6611  0.2691 -0.7688
 2601TIP3    H131998   3.588   5.584   2.943  0.8413  0.1894 -0.3765
 2601TIP3    H231999   3.576   5.447   2.880  1.1237  0.2060 -0.4670
 2602TIP3   OH232000   0.252   3.564   7.952  0.1528 -0.3674 -0.3833
 2602TIP3    H132001   0.180   3.523   8.000 -0.9119  1.5640 -0.2284
 2602TIP3    H232002   0.325   3.565   8.014 -0.1904 -0.8577  0.0339
 2603TIP3   OH232003   4.352   5.366   2.238 -0.2881  0.3566  0.2712
 2603TIP3    H132004   4.362   5.329   2.326 -2.0272 -0.6678  0.0827
 2603TIP3    H232005   4.406   5.309   2.182 -0.8343 -0.2831  0.3810
 2604TIP3   OH232006   2.181   1.029   1.780  0.4793  0.3678  0.1391
 2604TIP3    H132007   2.178   1.122   1.756  0.2159  0.6578  1.2536
 2604TIP3    H232008   2.097   0.994   1.749  0.4742  0.5594 -0.0686
 2605TIP3   OH232009   1.513   6.864   0.893 -0.5600  0.1909  0.0520
 2605TIP3    H132010   1.436   6.913   0.862 -0.3717  0.2492 -0.3366
 2605TIP3    H232011   1.476   6.794   0.946 -0.7465  2.4234  3.1778
 2606TIP3   OH232012   0.733   4.781   0.347  0.4445 -0.3998 -0.5410
 2606TIP3    H132013   0.688   4.697   0.350 -0.1869 -0.0455  0.1541
 2606TIP3    H232014   0.825   4.760   0.367 -0.1534 -0.6443  2.4122
 2607TIP3   OH232015   3.894   5.449   8.338 -0.0663  0.2470 -0.2337
 2607TIP3    H132016   3.879   5.366   8.382  0.5659 -0.5127 -1.4103
 2607TIP3    H232017   3.866   5.515   8.402 -1.7078 -0.8778  0.2804
 2608TIP3   OH232018   4.134   1.785   8.092 -0.2337  0.3238  0.2307
 2608TIP3    H132019   4.230   1.785   8.094 -0.2307 -0.1716  0.3192
 2608TIP3    H232020   4.111   1.702   8.049 -0.5849  1.8216 -2.6313
 2609TIP3   OH232021   1.938   1.308   2.236  0.6766  0.1609 -0.0362
 2609TIP3    H132022   1.946   1.332   2.329  1.8805 -1.6302  0.3726
 2609TIP3    H232023   1.991   1.229   2.227  1.0493  0.6035 -2.3938
 2610TIP3   OH232024   6.027   5.687   8.859  0.2205 -0.2200 -0.2881
 2610TIP3    H132025   6.013   5.655   8.948  1.8813  0.9793  0.4543
 2610TIP3    H232026   6.057   5.610   8.810  0.3090 -0.6675  0.4551
 2611TIP3   OH232027   4.200   2.214   7.782 -0.0731 -0.2474  0.0215
 2611TIP3    H132028   4.187   2.301   7.820 -4.3885 -0.5956 -0.1544
 2611TIP3    H232029   4.182   2.226   7.689 -0.5068 -1.2930 -0.0403
 2612TIP3   OH232030   1.304   7.488   7.170 -0.0492  0.1564 -0.1710
 2612TIP3    H132031   1.310   7.538   7.251  2.0749  0.1294 -0.2432
 2612TIP3    H232032   1.348   7.542   7.105 -0.3750 -0.4956 -0.9603
 2613TIP3   OH232033   1.219   5.626   0.505  0.1682 -0.4320 -0.0382
 2613TIP3    H132034   1.242   5.534   0.518  0.6441 -0.5437 -1.4844
 2613TIP3    H232035   1.262   5.672   0.577  1.2968 -1.1604 -0.2203
 2614TIP3   OH232036   0.505   3.485   1.924 -0.5570  0.2988  0.3903
 2614TIP3    H132037   0.416   3.519   1.915 -0.7717 -0.7103 -2.0332
 2614TIP3    H232038   0.549   3.511   1.843  1.3547  0.6972  1.5029
 2615TIP3   OH232039   0.297   3.239   9.702  0.8013 -0.4563 -0.2990
 2615TIP3    H132040   0.335   3.299   9.766  0.1248  0.5936 -0.8498
 2615TIP3    H232041   0.335   3.267   9.618 -1.5038  0.9931 -0.9518
 2616TIP3   OH232042   1.776   4.928   2.399 -0.3288 -0.5683 -0.6256
 2616TIP3    H132043   1.807   4.909   2.488 -0.0882  2.8556  0.1854
 2616TIP3    H232044   1.828   4.872   2.342  2.4681  0.0030  1.1740
 2617TIP3   OH232045   7.357   6.833   7.640  0.1745 -0.4631  0.9519
 2617TIP3    H132046   7.406   6.893   7.696  2.4884 -0.5309 -0.8712
 2617TIP3    H232047   7.342   6.756   7.695 -1.2382  0.9826  2.7229
 2618TIP3   OH232048   3.083   4.025   0.562 -0.0084 -0.1815 -0.4411
 2618TIP3    H132049   3.151   4.077   0.604 -0.7214  0.3952  0.0181
 2618TIP3    H232050   3.127   3.984   0.487  1.3750 -1.5265  1.0442
 2619TIP3   OH232051   3.371   5.951   9.672 -0.2894 -0.3433  0.4748
 2619TIP3    H132052   3.291   6.002   9.680 -0.3933 -0.3256 -0.6105
 2619TIP3    H232053   3.368   5.890   9.746 -1.3697 -0.4278  0.3736
 2620TIP3   OH232054   3.343   2.778   0.688 -0.4275  0.6142  0.5433
 2620TIP3    H132055   3.359   2.712   0.756  0.2864  0.2522  0.0419
 2620TIP3    H232056   3.312   2.728   0.613  2.1544  0.4939 -0.5773
 2621TIP3   OH232057   0.132   7.203   0.219 -0.6912  0.5371 -0.2512
 2621TIP3    H132058   0.052   7.165   0.257 -0.0559 -0.3351  0.2477
 2621TIP3    H232059   0.202   7.147   0.250  0.0540  0.8748 -1.2769
 2622TIP3   OH232060   4.638   6.519   0.464 -0.5964 -0.6281  0.4246
 2622TIP3    H132061   4.637   6.574   0.543  0.4181 -0.2461  0.1792
 2622TIP3    H232062   4.687   6.441   0.490 -1.1405 -0.9587  0.4661
 2623TIP3   OH232063   4.055   2.955   9.736  0.7318 -0.8173 -0.6699
 2623TIP3    H132064   4.000   2.888   9.695 -0.3074 -1.4758  1.6560
 2623TIP3    H232065   4.022   3.038   9.702  0.2604 -1.3354 -1.5223
 2624TIP3   OH232066   0.003   5.209   1.078 -0.6953 -0.5422 -0.2583
 2624TIP3    H132067   0.005   5.162   1.161  1.4966  1.4575  0.9590
 2624TIP3    H232068   0.082   5.180   1.032 -1.8562 -1.5876 -1.6689
 2625TIP3   OH232069   1.551   1.678   1.687  0.5662 -0.0092 -0.3319
 2625TIP3    H132070   1.628   1.672   1.630  1.4410  0.7559  0.7141
 2625TIP3    H232071   1.550   1.769   1.717 -1.1374  0.1626 -0.8079
 2626TIP3   OH232072   0.148   5.593   8.403 -0.3286  0.3439  0.5174
 2626TIP3    H132073   0.107   5.633   8.326  0.6294  0.9754  0.3258
 2626TIP3    H232074   0.133   5.499   8.390  0.7418  0.3406 -1.0080
 2627TIP3   OH232075   0.951   4.750   0.576  0.2767  0.1121 -0.0672
 2627TIP3    H132076   0.899   4.670   0.569  0.2006  0.1546  0.0125
 2627TIP3    H232077   0.947   4.774   0.668 -0.8283  0.9536 -0.3161
 2628TIP3   OH232078   1.861   0.782   2.269  0.5073  0.0558 -0.0145
 2628TIP3    H132079   1.860   0.844   2.196 -1.3500  0.7707  0.5671
 2628TIP3    H232080   1.830   0.833   2.344  3.0081 -0.4641  1.4888
 2629TIP3   OH232081   3.777   4.913   7.405 -0.1875 -0.1599  0.0955
 2629TIP3    H132082   3.746   4.908   7.314  2.4368 -0.1927 -0.8865
 2629TIP3    H232083   3.860   4.864   7.404 -0.9411 -1.7016  2.9536
 2630TIP3   OH232084   1.198   1.986   9.325 -0.5247  0.1059  0.0669
 2630TIP3    H132085   1.121   1.945   9.366 -1.9332  1.1529 -1.3829
 2630TIP3    H232086   1.239   2.035   9.396 -2.8975  1.8900  0.3497
 2631TIP3   OH232087   5.995   6.317   2.382 -0.1830 -0.4258  0.2232
 2631TIP3    H132088   6.061   6.301   2.315  0.4907 -1.5295  1.1274
 2631TIP3    H232089   5.996   6.412   2.395  0.6952 -0.3599 -0.2825
 2632TIP3   OH232090   3.551   2.304   1.355 -0.0736 -0.4221 -0.0269
 2632TIP3    H132091   3.588   2.281   1.270 -3.6387  0.0389 -1.8671
 2632TIP3    H232092   3.579   2.394   1.369  1.1008 -0.7176 -0.3343
 2633TIP3   OH232093   0.183   1.439   0.047 -0.0275 -0.1361 -1.0029
 2633TIP3    H132094   0.188   1.421  -0.047  1.2212  2.1392 -1.4503
 2633TIP3    H232095   0.273   1.430   0.077 -0.2169  0.3275 -0.2809
 2634TIP3   OH232096   3.795   0.062   0.842 -1.0596 -0.5534 -0.0374
 2634TIP3    H132097   3.887   0.090   0.843 -0.6559 -1.7414  1.6776
 2634TIP3    H232098   3.764   0.083   0.754  0.8629 -0.1672 -0.6667
 2635TIP3   OH232099   5.566   1.825   8.830 -0.0995  0.2021 -0.4520
 2635TIP3    H132100   5.568   1.825   8.734  2.7321 -2.1108 -0.5452
 2635TIP3    H232101   5.491   1.770   8.852  1.1800 -2.1340 -1.5439
 2636TIP3   OH232102   0.163   4.209   0.025 -0.3089  0.1979  0.4350
 2636TIP3    H132103   0.245   4.228  -0.020  0.4555 -0.5501  1.4575
 2636TIP3    H232104   0.167   4.261   0.105 -1.0870  0.5721  0.2372
 2637TIP3   OH232105   1.136   3.282   9.902 -0.3866  0.1220 -0.2499
 2637TIP3    H132106   1.100   3.351   9.958 -1.4001 -1.5830  1.3097
 2637TIP3    H232107   1.065   3.261   9.842 -0.9303 -1.0515  0.7515
 2638TIP3   OH232108   7.574   6.194   0.222  0.0737  0.3091 -0.1145
 2638TIP3    H132109   7.521   6.160   0.294  1.5190 -0.1279  0.7785
 2638TIP3    H232110   7.628   6.262   0.262  0.1191  0.8260 -1.0228
 2639TIP3   OH232111   6.478   4.540   2.002  0.1191 -0.1669  0.2567
 2639TIP3    H132112   6.450   4.626   1.973  0.2523 -1.1530 -3.2628
 2639TIP3    H232113   6.563   4.554   2.042  0.3725  1.3045 -0.7361
 2640TIP3   OH232114   7.624   5.543   9.104  0.5303  0.3450 -0.5764
 2640TIP3    H132115   7.575   5.533   9.186 -0.7054  1.1346 -1.1795
 2640TIP3    H232116   7.626   5.455   9.067 -1.4813  0.4561 -1.0789
 2641TIP3   OH232117   2.304   6.872   0.384 -0.3551 -0.4306  0.1649
 2641TIP3    H132118   2.351   6.815   0.445 -1.9053  0.5568  2.4273
 2641TIP3    H232119   2.266   6.940   0.440  1.9207  3.3149 -2.3565
 2642TIP3   OH232120   7.474   1.799   1.363 -0.9295 -0.3744 -0.0425
 2642TIP3    H132121   7.441   1.739   1.296  2.3757 -1.4845 -0.8753
 2642TIP3    H232122   7.521   1.867   1.314  2.9467 -2.0522  0.9027
 2643TIP3   OH232123   0.044   0.877   0.200  0.1006  0.5010 -0.1588
 2643TIP3    H132124   0.115   0.921   0.153 -0.0050  0.5080 -0.3117
 2643TIP3    H232125  -0.009   0.837   0.132  0.2360  0.0768 -0.0163
 2644TIP3   OH232126   6.864   5.578   7.194 -0.2209  0.1953  0.1302
 2644TIP3    H132127   6.888   5.670   7.204 -0.9427  0.6068 -1.5920
 2644TIP3    H232128   6.831   5.552   7.280 -0.3057  1.6259  0.5551
 2645TIP3   OH232129   3.916   6.851   9.017  0.3901  0.1353  0.1307
 2645TIP3    H132130   3.933   6.933   9.064  1.0594  0.8386 -1.2688
 2645TIP3    H232131   3.996   6.835   8.967 -0.1656 -0.7752 -0.4991
 2646TIP3   OH232132   4.173   5.492   0.151 -0.2148 -0.4447 -0.6587
 2646TIP3    H132133   4.143   5.538   0.230 -2.7547  0.3864 -2.0022
 2646TIP3    H232134   4.268   5.508   0.149  0.0166 -0.7410  2.3142
 2647TIP3   OH232135   0.403   1.416   8.604 -0.2692  0.0919  0.2560
 2647TIP3    H132136   0.405   1.328   8.642  0.0848  0.0474  0.1391
 2647TIP3    H232137   0.330   1.459   8.647  0.7896  0.4146  1.8440
 2648TIP3   OH232138   7.407   6.297   8.906  0.0998  0.2191 -0.2447
 2648TIP3    H132139   7.383   6.372   8.960 -1.1218  0.7002 -1.3840
 2648TIP3    H232140   7.415   6.224   8.967 -1.7399  0.6283  0.5404
 2649TIP3   OH232141   4.101   5.738   9.689 -0.5704  0.1632 -0.4890
 2649TIP3    H132142   4.113   5.745   9.784 -2.3178  2.2192 -0.3629
 2649TIP3    H232143   4.165   5.798   9.652  0.4323 -0.9829 -0.6901
 2650TIP3   OH232144   5.302   1.940   1.372 -0.9150 -0.3154  0.0383
 2650TIP3    H132145   5.339   1.852   1.377  0.0091  0.0492 -0.0536
 2650TIP3    H232146   5.377   1.995   1.350 -1.5346  0.4574 -0.1601
 2651TIP3   OH232147   4.778   2.316   9.993  0.2497 -0.5081 -0.2248
 2651TIP3    H132148   4.755   2.280   9.907 -2.4805 -0.3999  0.3765
 2651TIP3    H232149   4.718   2.272  10.054  1.3364  0.2757  1.4781
 2652TIP3   OH232150   3.917   0.562   2.657  0.7844  0.0970 -0.5706
 2652TIP3    H132151   3.831   0.523   2.675  0.8070  0.5156  0.4871
 2652TIP3    H232152   3.904   0.611   2.575 -0.8168  2.5721  1.0275
 2653TIP3   OH232153   1.576   5.466   7.605 -0.2784  0.0293 -0.2418
 2653TIP3    H132154   1.540   5.543   7.650  0.1794  0.4857 -0.6375
 2653TIP3    H232155   1.594   5.404   7.676 -1.3942 -0.0376  0.0077
 2654TIP3   OH232156   7.512   2.129   8.131  0.1995  0.4766  0.6748
 2654TIP3    H132157   7.514   2.105   8.224 -0.7828 -0.3928  0.4966
 2654TIP3    H232158   7.462   2.211   8.129  1.7575  1.4772  1.0755
 2655TIP3   OH232159   6.720   0.494   0.004 -0.2130  0.0911 -0.1011
 2655TIP3    H132160   6.726   0.549   0.083  1.5881 -0.0058 -0.1218
 2655TIP3    H232161   6.655   0.537  -0.051 -1.1517  0.4314  1.2221
 2656TIP3   OH232162   1.301   1.510   8.264 -0.0212  0.3481  0.0945
 2656TIP3    H132163   1.370   1.464   8.216  1.5472  0.8625  1.7424
 2656TIP3    H232164   1.223   1.456   8.252  0.0551  0.7750 -3.5060
 2657TIP3   OH232165   2.982   4.947   0.071 -0.1224 -0.1664  0.2073
 2657TIP3    H132166   2.920   5.001   0.120 -1.2448 -0.0231 -1.2788
 2657TIP3    H232167   2.931   4.914  -0.004  2.1591  2.0372 -2.5516
 2658TIP3   OH232168   0.423   4.452   8.883 -0.0051  0.3944  0.0021
 2658TIP3    H132169   0.385   4.480   8.800  0.2574 -1.1225 -0.6588
 2658TIP3    H232170   0.479   4.377   8.860 -1.6385 -1.5086  1.7931
 2659TIP3   OH232171   6.171   5.279   0.334 -0.1387  0.7935 -0.4517
 2659TIP3    H132172   6.248   5.300   0.387  0.0680 -1.1507  0.0643
 2659TIP3    H232173   6.202   5.218   0.268 -1.2183  0.0048 -0.2573
 2660TIP3   OH232174   0.656   5.446   1.288  0.3432 -0.0629 -0.3395
 2660TIP3    H132175   0.655   5.370   1.347  0.4768  0.1520 -0.0592
 2660TIP3    H232176   0.677   5.410   1.202  1.9232 -0.1555  0.0617
 2661TIP3   OH232177   2.550   5.031   8.396  0.0126  0.4475 -0.3519
 2661TIP3    H132178   2.528   4.979   8.473 -3.1079  0.0029 -1.4092
 2661TIP3    H232179   2.639   5.004   8.373 -0.4779 -2.4194  0.7517
 2662TIP3   OH232180   1.424   3.548   1.009  0.5469 -0.3186  0.1734
 2662TIP3    H132181   1.465   3.467   0.977  0.7055 -0.7293  1.3626
 2662TIP3    H232182   1.378   3.583   0.933  2.4566 -0.2337 -1.0276
 2663TIP3   OH232183   2.896   2.553   0.483 -0.3808  0.0340  0.3838
 2663TIP3    H132184   2.884   2.458   0.479  0.2175 -0.0308 -0.0308
 2663TIP3    H232185   2.956   2.567   0.556 -1.3900  0.1976  1.2007
 2664TIP3   OH232186   2.284   5.100   1.021 -0.1682  0.2190 -0.5014
 2664TIP3    H132187   2.241   5.020   0.991 -2.0893  1.3324 -0.8924
 2664TIP3    H232188   2.260   5.107   1.114  0.4146  0.0876 -0.3389
 2665TIP3   OH232189   0.045   3.970   9.081 -0.2747  0.1812 -0.3291
 2665TIP3    H132190  -0.022   3.998   9.144 -2.0474 -2.8889 -0.6538
 2665TIP3    H232191   0.101   3.909   9.131  0.1168  0.0110 -0.9638
 2666TIP3   OH232192   5.509   7.239   7.670 -0.8956  0.2407  0.9497
 2666TIP3    H132193   5.583   7.210   7.617 -1.0142  1.8149 -0.1527
 2666TIP3    H232194   5.549   7.288   7.742 -0.8309  1.2667  0.2425
 2667TIP3   OH232195   5.916   3.690   9.319  0.1577 -0.2812 -0.2736
 2667TIP3    H132196   5.830   3.706   9.281 -0.1838 -2.0744 -0.3380
 2667TIP3    H232197   5.978   3.720   9.252 -0.4328 -1.1105 -1.2233
 2668TIP3   OH232198   3.702   6.707   9.010  0.3858 -0.1844 -0.2518
 2668TIP3    H132199   3.783   6.756   8.996 -0.2436  0.9693 -0.0185
 2668TIP3    H232200   3.679   6.726   9.101 -0.6239  0.2635 -0.5876
 2669TIP3   OH232201   4.305   0.443   0.377  0.5015 -0.0548  0.4512
 2669TIP3    H132202   4.375   0.432   0.442 -1.0301 -0.6105  2.0654
 2669TIP3    H232203   4.327   0.524   0.331  1.8748  0.0958  1.3258
 2670TIP3   OH232204   0.324   2.142   8.065  0.1820 -0.5929 -0.2515
 2670TIP3    H132205   0.248   2.186   8.027  0.5077  0.0886 -0.1177
 2670TIP3    H232206   0.318   2.052   8.033 -0.4030 -0.4142 -0.6510
 2671TIP3   OH232207   0.146   4.538   7.606  0.2707  0.0536 -0.1632
 2671TIP3    H132208   0.233   4.563   7.636  0.8121 -3.1885  1.5012
 2671TIP3    H232209   0.162   4.459   7.553 -1.5354  0.3630 -1.2344
 2672TIP3   OH232210   0.752   2.483   1.783  0.1263  0.0399 -0.0499
 2672TIP3    H132211   0.845   2.459   1.778  0.3699  0.7648  0.8605
 2672TIP3    H232212   0.727   2.466   1.873 -0.8676 -0.9429 -0.4897
 2673TIP3   OH232213   6.944   4.296   1.249  0.1239  0.1298 -0.3196
 2673TIP3    H132214   7.015   4.244   1.213 -0.6253 -0.8368 -0.4376
 2673TIP3    H232215   6.939   4.269   1.341 -0.1129  0.1589 -0.3228
 2674TIP3   OH232216   5.455   1.174   1.529  0.6393 -0.3893  0.0229
 2674TIP3    H132217   5.514   1.227   1.476 -0.6859  1.2192  0.0617
 2674TIP3    H232218   5.376   1.165   1.475 -0.0543 -0.2690  1.0008
 2675TIP3   OH232219   5.178   3.925   1.789 -0.3970 -0.1513 -0.0143
 2675TIP3    H132220   5.153   3.933   1.881 -0.2959 -0.2427  0.0218
 2675TIP3    H232221   5.191   3.831   1.777  0.4334 -0.0559  0.0992
 2676TIP3   OH232222   0.238   0.376   8.015 -0.0888 -0.2231 -0.1184
 2676TIP3    H132223   0.308   0.405   8.072  0.9395  0.6455 -1.7367
 2676TIP3    H232224   0.283   0.342   7.937 -1.4255  0.9502 -1.4720
 2677TIP3   OH232225   0.381   3.890   9.765 -0.1958  0.8886  0.0883
 2677TIP3    H132226   0.349   3.981   9.770  0.3984  1.1814 -1.0630
 2677TIP3    H232227   0.397   3.876   9.672 -2.2021 -1.0804 -0.0599
 2678TIP3   OH232228   4.842   7.499   9.087  0.1086  0.0633 -0.0693
 2678TIP3    H132229   4.805   7.587   9.094  0.1118  0.0657 -0.0823
 2678TIP3    H232230   4.936   7.513   9.075 -0.0306  0.1063 -1.2779
 2679TIP3   OH232231   6.394   6.955   1.421 -0.2545 -0.0844 -0.2207
 2679TIP3    H132232   6.395   6.914   1.508  1.2123 -1.8561 -1.0108
 2679TIP3    H232233   6.319   7.015   1.424  0.5094  0.9058  2.6808
 2680TIP3   OH232234   3.585   1.774   0.030 -0.0685 -0.1575  0.0241
 2680TIP3    H132235   3.605   1.860   0.067  0.3150 -0.1902 -0.1103
 2680TIP3    H232236   3.493   1.760   0.052  0.3589 -0.5493  1.7429
 2681TIP3   OH232237   4.660   7.168   1.850  0.4185 -0.1130 -0.2600
 2681TIP3    H132238   4.566   7.159   1.866  0.5064  0.9197  1.0390
 2681TIP3    H232239   4.686   7.084   1.813 -1.1865 -0.0685 -1.6209
 2682TIP3   OH232240   0.188   2.202   2.575  0.1244 -0.5416 -0.2730
 2682TIP3    H132241   0.177   2.120   2.622  0.7966 -0.3504  0.2330
 2682TIP3    H232242   0.099   2.233   2.561 -0.1078 -0.2198  1.5837
 2683TIP3   OH232243   0.666   5.436   8.580 -0.3318 -0.1540  0.6016
 2683TIP3    H132244   0.729   5.442   8.509 -1.4398  0.4060 -0.3730
 2683TIP3    H232245   0.710   5.476   8.655  0.6001 -0.1307  0.0523
 2684TIP3   OH232246   2.999   2.388   1.564 -0.4730 -0.4366 -0.0582
 2684TIP3    H132247   2.980   2.465   1.511  0.5487 -0.0645  0.0928
 2684TIP3    H232248   3.091   2.399   1.590 -0.2445 -1.8092 -0.2091
 2685TIP3   OH232249   1.448   4.100   2.131 -0.5395  0.4666  0.3458
 2685TIP3    H132250   1.435   4.007   2.112  2.1848  0.0290  0.1628
 2685TIP3    H232251   1.482   4.137   2.050 -0.0238  1.2255  0.8872
 2686TIP3   OH232252   2.696   4.584   7.677 -0.0094 -0.1975  0.0777
 2686TIP3    H132253   2.625   4.637   7.714  1.5002  1.8565  0.2501
 2686TIP3    H232254   2.687   4.595   7.583 -0.5076 -0.7923  0.0489
 2687TIP3   OH232255   4.770   0.899   2.142 -0.2495  0.4088  0.2252
 2687TIP3    H132256   4.768   0.861   2.230 -1.3449  0.3332  0.1865
 2687TIP3    H232257   4.705   0.847   2.093 -0.3700  1.0951 -0.3455
 2688TIP3   OH232258   6.950   5.430   8.388 -0.2398  0.0344  0.2634
 2688TIP3    H132259   6.907   5.501   8.437 -1.6501 -1.0318  0.6324
 2688TIP3    H232260   6.881   5.395   8.331  0.9356  0.1596 -1.3030
 2689TIP3   OH232261   3.514   5.826   2.581  0.2017  0.1572 -0.8166
 2689TIP3    H132262   3.436   5.870   2.616  0.4231 -0.5761  0.6698
 2689TIP3    H232263   3.587   5.870   2.623  0.5907  0.4501 -1.7629
 2690TIP3   OH232264   4.100   3.143   7.851  0.8641 -0.6911  0.2791
 2690TIP3    H132265   4.050   3.078   7.802  0.6792 -0.3544  0.0149
 2690TIP3    H232266   4.122   3.210   7.786  1.5972 -0.7979  0.4059
 2691TIP3   OH232267   0.047   1.860   8.173  0.0023 -0.1660 -0.1181
 2691TIP3    H132268   0.106   1.879   8.246 -1.0151  0.0495  0.6656
 2691TIP3    H232269  -0.006   1.786   8.203 -1.0688  0.5296 -0.2578
 2692TIP3   OH232270   1.070   1.358   1.237  0.4471 -0.0644  0.2700
 2692TIP3    H132271   1.115   1.322   1.314 -0.3530 -1.1045  0.2746
 2692TIP3    H232272   1.085   1.452   1.242  1.7930 -0.2873  0.7994
 2693TIP3   OH232273   5.476   7.199   1.408 -0.1671  0.0935  0.3702
 2693TIP3    H132274   5.384   7.201   1.382  0.2108 -0.9715 -1.1800
 2693TIP3    H232275   5.488   7.112   1.447  0.7155 -0.7588 -1.6883
 2694TIP3   OH232276   7.118   6.599   9.992  0.7582 -0.1913  0.3248
 2694TIP3    H132277   7.147   6.673   9.938  1.5746 -0.2356  0.6940
 2694TIP3    H232278   7.132   6.627  10.082  2.3277 -1.2832  0.4460
 2695TIP3   OH232279   4.950   3.670   1.742  0.6673 -0.2355  0.1586
 2695TIP3    H132280   5.007   3.610   1.694 -0.0595 -1.0064  0.2403
 2695TIP3    H232281   4.914   3.728   1.675 -0.9526 -1.7991 -0.3999
 2696TIP3   OH232282   6.181   2.368   0.529 -0.2208 -0.3406  0.5385
 2696TIP3    H132283   6.232   2.367   0.610 -0.8599  1.9216  1.0479
 2696TIP3    H232284   6.133   2.286   0.529  0.3119 -0.6801  2.1163
 2697TIP3   OH232285   5.904   4.872   9.121 -0.4331 -0.1159 -0.3484
 2697TIP3    H132286   5.965   4.907   9.186 -2.4808  0.5834  1.2643
 2697TIP3    H232287   5.839   4.941   9.110 -2.6946 -2.0415  0.3561
 2698TIP3   OH232288   3.168   5.408   8.561  0.0108 -0.2175 -0.4663
 2698TIP3    H132289   3.260   5.423   8.585 -0.4813 -0.7845  2.1095
 2698TIP3    H232290   3.125   5.492   8.577 -0.0598 -0.1414 -1.0294
 2699TIP3   OH232291   4.366   4.554   8.917 -0.2184  0.5649 -0.1365
 2699TIP3    H132292   4.336   4.464   8.906  0.0106  0.5212 -0.4297
 2699TIP3    H232293   4.322   4.585   8.996  0.9323 -0.3249  0.8829
 2700TIP3   OH232294   0.114   2.968   2.654  0.1918 -0.3538  0.0335
 2700TIP3    H132295   0.108   2.913   2.577 -0.0790 -0.2860  0.0058
 2700TIP3    H232296   0.113   2.907   2.728  2.2014 -0.5566 -0.0419
 2701TIP3   OH232297   6.726   0.288   1.032 -0.0155  0.1481 -0.0270
 2701TIP3    H132298   6.776   0.315   0.954 -1.4442  1.5863 -0.4894
 2701TIP3    H232299   6.726   0.366   1.088 -0.3167 -0.3858  0.7196
 2702TIP3   OH232300   1.726   1.072   7.079 -0.0497  0.1126 -0.3682
 2702TIP3    H132301   1.690   0.993   7.038 -0.8664 -0.0665  0.6472
 2702TIP3    H232302   1.660   1.139   7.064 -0.3707  0.0359  0.6597
 2703TIP3   OH232303   6.374   5.475   7.761  0.3121 -0.5790  0.0158
 2703TIP3    H132304   6.447   5.486   7.700  1.2246 -0.6298  1.0644
 2703TIP3    H232305   6.395   5.395   7.809  0.0339 -0.1078  0.9476
 2704TIP3   OH232306   1.360   3.569   2.688 -0.3001 -0.6227 -0.1093
 2704TIP3    H132307   1.354   3.585   2.594  0.9706 -1.7877 -0.4236
 2704TIP3    H232308   1.428   3.629   2.719  0.5065 -1.4276 -0.2724
 2705TIP3   OH232309   1.741   6.420   1.894 -0.0913  0.0224  0.4089
 2705TIP3    H132310   1.683   6.374   1.954  1.2590  1.1112  2.7049
 2705TIP3    H232311   1.807   6.355   1.868 -0.0203 -0.1741  1.0691
 2706TIP3   OH232312   3.498   6.464   1.473 -0.5010 -0.3145  0.0237
 2706TIP3    H132313   3.424   6.472   1.414 -0.7831 -1.4795  0.1926
 2706TIP3    H232314   3.568   6.426   1.419 -0.7974 -1.5009  0.4310
 2707TIP3   OH232315   4.879   1.501   0.216  0.1020 -0.4020  0.4904
 2707TIP3    H132316   4.928   1.440   0.161 -1.7123 -0.7664 -0.8148
 2707TIP3    H232317   4.825   1.445   0.271 -1.7860 -0.0756 -0.9122
 2708TIP3   OH232318   1.768   3.642   1.592 -0.2754  0.2216 -0.1167
 2708TIP3    H132319   1.805   3.661   1.678 -1.1604 -1.1398  0.6086
 2708TIP3    H232320   1.836   3.666   1.530  0.8846  0.0088  1.0445
 2709TIP3   OH232321   0.621   7.495   8.249 -0.3348 -0.1169 -0.4697
 2709TIP3    H132322   0.653   7.408   8.272 -0.4799  0.1364  0.7478
 2709TIP3    H232323   0.698   7.552   8.254 -0.1367 -0.2322 -1.7438
 2710TIP3   OH232324   1.648   4.288   1.012  0.1828  0.0706  0.6012
 2710TIP3    H132325   1.688   4.369   0.977  0.0564 -0.2429 -0.2907
 2710TIP3    H232326   1.554   4.305   1.010  0.2068  0.4471  1.8102
 2711TIP3   OH232327   2.514   6.770   1.281 -0.1112 -0.4044  0.1228
 2711TIP3    H132328   2.540   6.685   1.315  0.5650 -0.3916 -0.3327
 2711TIP3    H232329   2.432   6.754   1.235 -0.9433 -0.4538  1.5674
 2712TIP3   OH232330   3.583   0.460   0.451  0.7427 -0.4804 -0.2490
 2712TIP3    H132331   3.521   0.509   0.505 -0.4705  0.1897 -2.1323
 2712TIP3    H232332   3.528   0.413   0.389  2.0800  0.8559 -2.5882
 2713TIP3   OH232333   6.586   5.094   1.440  0.8855 -0.3990  0.4501
 2713TIP3    H132334   6.509   5.118   1.492  0.8277 -0.0225  0.1922
 2713TIP3    H232335   6.551   5.034   1.373  0.7238  0.1643  0.0223
 2714TIP3   OH232336   3.196   0.294   8.213  0.3167 -0.4380 -0.2488
 2714TIP3    H132337   3.122   0.354   8.198  1.6438  1.0894 -1.0689
 2714TIP3    H232338   3.222   0.267   8.125  0.4398 -1.3427  0.0634
 2715TIP3   OH232339   3.661   5.390   0.631  0.6581  0.2467  0.4755
 2715TIP3    H132340   3.618   5.308   0.656  0.0137 -0.7890 -3.3714
 2715TIP3    H232341   3.718   5.365   0.558  0.1414  3.2787 -1.0905
 2716TIP3   OH232342   4.460   4.549   0.731 -0.7200 -0.2246  0.0993
 2716TIP3    H132343   4.439   4.493   0.656  1.2584  1.2859 -1.7219
 2716TIP3    H232344   4.540   4.594   0.705  0.5146 -0.1815  3.4800
 2717TIP3   OH232345   2.689   7.261   7.210  0.5940  0.3696 -0.0815
 2717TIP3    H132346   2.704   7.178   7.255  1.6887  0.6943  0.1783
 2717TIP3    H232347   2.772   7.309   7.218 -0.4665  2.1354  1.1262
 2718TIP3   OH232348   6.368   4.380   8.325 -0.0132 -0.3832 -0.0450
 2718TIP3    H132349   6.347   4.293   8.358 -1.0952  0.6871  2.3706
 2718TIP3    H232350   6.447   4.368   8.272 -0.1377 -2.8022  0.2198
 2719TIP3   OH232351   0.957   1.709   8.439  0.1709 -0.7845  0.0191
 2719TIP3    H132352   0.872   1.741   8.408  0.0780 -1.7416 -0.7522
 2719TIP3    H232353   0.936   1.626   8.483  0.6208 -0.6634  0.4720
 2720TIP3   OH232354   7.372   0.901   7.644  0.7018  0.3321  0.6468
 2720TIP3    H132355   7.437   0.833   7.663  0.2119  0.3918  2.8164
 2720TIP3    H232356   7.293   0.852   7.619  0.5641  0.1134  1.4842
 2721TIP3   OH232357   2.067   0.227   7.538  0.2617  0.1815  0.4849
 2721TIP3    H132358   2.002   0.294   7.557  0.6785  0.2262  1.8977
 2721TIP3    H232359   2.019   0.158   7.493 -0.2152  1.3092 -0.7950
 2722TIP3   OH232360   6.800   6.126   8.253 -0.1114 -0.3359  0.4491
 2722TIP3    H132361   6.833   6.042   8.222  0.5834  0.0091  0.2203
 2722TIP3    H232362   6.879   6.176   8.273 -0.5198 -0.0221  1.3640
 2723TIP3   OH232363   5.648   4.285   8.882 -0.1071 -0.1070  0.0709
 2723TIP3    H132364   5.603   4.252   8.960 -0.1808  0.5520  0.3147
 2723TIP3    H232365   5.633   4.379   8.883  0.4368 -0.0042 -0.3910
 2724TIP3   OH232366   3.071   6.031   0.495  0.3005  0.2616  0.0440
 2724TIP3    H132367   3.140   6.086   0.532  0.2859 -0.3359  0.9972
 2724TIP3    H232368   3.113   5.946   0.482 -0.4966 -0.4144  1.6200
 2725TIP3   OH232369   3.823   5.646   0.680  0.1032 -0.1502  0.8117
 2725TIP3    H132370   3.826   5.568   0.625  1.0832  0.6360 -0.3181
 2725TIP3    H232371   3.762   5.624   0.751 -0.1539 -1.6771  0.1514
 2726TIP3   OH232372   4.647   5.803   1.837  0.0809  0.1199  0.3617
 2726TIP3    H132373   4.698   5.884   1.835  1.0133 -0.4438 -1.7534
 2726TIP3    H232374   4.711   5.734   1.852 -0.0077 -0.5613 -1.9546
 2727TIP3   OH232375   7.485   0.392   1.871  0.1169 -0.6631  0.5992
 2727TIP3    H132376   7.564   0.364   1.824 -0.8102 -0.4027 -1.2261
 2727TIP3    H232377   7.481   0.336   1.948  0.8420 -2.3042 -0.5077
 2728TIP3   OH232378   1.935   5.241   1.175  0.1538  0.1201  0.4763
 2728TIP3    H132379   1.968   5.310   1.233  0.1727 -0.5410  1.2833
 2728TIP3    H232380   1.981   5.162   1.205 -1.3483 -0.6167  0.8971
 2729TIP3   OH232381   0.162   1.844   9.153 -0.0664  0.3181 -0.1486
 2729TIP3    H132382   0.118   1.912   9.204  0.1286  0.6157 -0.3693
 2729TIP3    H232383   0.255   1.857   9.171 -0.0268  0.1122 -0.1968
 2730TIP3   OH232384   1.083   2.761   9.144 -0.2583 -0.5648 -1.1690
 2730TIP3    H132385   1.083   2.668   9.123  1.9513 -1.0960  0.7762
 2730TIP3    H232386   1.102   2.765   9.237  2.4868  1.8601 -1.6844
 2731TIP3   OH232387   4.153   1.208   0.628  0.0321 -0.2485 -0.1715
 2731TIP3    H132388   4.146   1.172   0.717  0.1819  0.2928  0.0669
 2731TIP3    H232389   4.065   1.198   0.592 -0.3962  0.7823  0.5431
 2732TIP3   OH232390   0.499   7.537   2.271 -0.3461 -0.3152 -0.1997
 2732TIP3    H132391   0.472   7.470   2.335 -0.3750  0.3981  0.5541
 2732TIP3    H232392   0.429   7.602   2.273 -0.6033 -0.5411 -1.3655
 2733TIP3   OH232393   5.251   7.325   0.135 -0.0692  0.5892  0.1534
 2733TIP3    H132394   5.177   7.276   0.100 -0.0829 -0.8689  2.0468
 2733TIP3    H232395   5.252   7.407   0.085 -2.1840  0.1199 -0.7556
 2734TIP3   OH232396   4.701   0.929   0.116 -0.2274 -0.7440 -0.5172
 2734TIP3    H132397   4.787   0.945   0.156 -0.9320 -0.0066  0.7691
 2734TIP3    H232398   4.709   0.964   0.027  0.4927  0.2603 -0.0760
 2735TIP3   OH232399   4.230   4.133   1.042  0.0960 -0.5077  0.0412
 2735TIP3    H132400   4.158   4.167   1.094  0.2527  0.0982 -0.1296
 2735TIP3    H232401   4.194   4.057   0.996 -0.5394  0.0175 -0.3370
 2736TIP3   OH232402   3.826   6.862   8.053 -0.4030  0.3245  0.1471
 2736TIP3    H132403   3.770   6.826   7.984 -0.2804  1.0984 -0.3680
 2736TIP3    H232404   3.913   6.864   8.015  0.1362 -1.4529  1.1633
 2737TIP3   OH232405   3.105   5.019   8.923  0.2645 -0.3083 -0.2488
 2737TIP3    H132406   3.163   4.961   8.973  0.8645 -0.9978 -1.6638
 2737TIP3    H232407   3.017   4.988   8.942  0.2663  1.0009  2.2409
 2738TIP3   OH232408   1.373   4.759   0.477  0.3326 -0.0515  0.2279
 2738TIP3    H132409   1.320   4.739   0.399 -1.4851  1.4638  0.9841
 2738TIP3    H232410   1.392   4.852   0.470  4.0928 -0.7118 -0.5986
 2739TIP3   OH232411   1.906   0.881   8.179 -0.6245  0.1616 -0.0891
 2739TIP3    H132412   1.937   0.814   8.240  2.4245  0.6754 -0.8722
 2739TIP3    H232413   1.868   0.948   8.234  1.0866  0.1332  1.2172
 2740TIP3   OH232414   2.338   6.892   9.852  0.1778  0.7791 -0.0407
 2740TIP3    H132415   2.393   6.815   9.865 -0.6338  0.0747 -0.6204
 2740TIP3    H232416   2.320   6.925   9.940  0.6780  0.4120  0.1985
 2741TIP3   OH232417   7.144   3.567   1.221  0.0911  0.1339  0.1044
 2741TIP3    H132418   7.134   3.624   1.298 -0.6684  0.2613 -0.0759
 2741TIP3    H232419   7.055   3.537   1.202 -0.1391  1.9693 -2.1270
 2742TIP3   OH232420   3.334   0.440   8.429  0.2385 -0.2489  0.0296
 2742TIP3    H132421   3.275   0.393   8.371 -0.0501 -0.7232  0.6978
 2742TIP3    H232422   3.322   0.399   8.515  0.9911  0.1376  0.3339
 2743TIP3   OH232423   5.383   3.549   7.388  0.1275 -0.5031 -0.3852
 2743TIP3    H132424   5.318   3.616   7.370  0.4458 -0.1644 -0.3020
 2743TIP3    H232425   5.455   3.597   7.431  0.3057 -0.9158 -0.2173
 2744TIP3   OH232426   5.599   0.219   7.781  0.2258  0.2578  0.3187
 2744TIP3    H132427   5.626   0.138   7.823  0.2535  0.7043  1.1974
 2744TIP3    H232428   5.572   0.194   7.693 -2.6315 -1.1934  1.4709
 2745TIP3   OH232429   6.820   7.033   0.972 -0.4017  0.0139  1.1046
 2745TIP3    H132430   6.732   6.999   0.954 -0.5751 -0.4422  2.6852
 2745TIP3    H232431   6.825   7.038   1.067  0.2705  2.7314  1.0185
 2746TIP3   OH232432   4.844   4.903   1.180 -0.3779 -0.0651  0.3083
 2746TIP3    H132433   4.892   4.821   1.191  0.0753 -0.3285 -2.6890
 2746TIP3    H232434   4.754   4.882   1.206 -0.5862 -1.9932 -1.6355
 2747TIP3   OH232435   7.462   2.923   9.623  0.0754 -0.4491  0.4295
 2747TIP3    H132436   7.367   2.921   9.627  0.0570 -0.4892  0.0391
 2747TIP3    H232437   7.489   2.832   9.635  0.1416 -0.2469  2.0515
 2748TIP3   OH232438   4.353   5.549   7.115 -0.2410 -0.0364 -0.3385
 2748TIP3    H132439   4.357   5.472   7.172 -0.8987  0.3376  0.2176
 2748TIP3    H232440   4.318   5.516   7.032 -0.3659 -0.3648 -0.1567
 2749TIP3   OH232441   1.828   6.771   7.503  0.1896 -0.2424  0.2273
 2749TIP3    H132442   1.818   6.678   7.486  1.4480 -0.2844 -0.3833
 2749TIP3    H232443   1.877   6.776   7.585  2.7487 -0.2073 -1.2151
 2750TIP3   OH232444   1.149   5.888   0.036  0.3265 -0.5295 -0.3889
 2750TIP3    H132445   1.141   5.803  -0.008  0.1747 -0.3085 -0.7956
 2750TIP3    H232446   1.117   5.951  -0.028 -0.2151 -0.2329  0.1678
 2751TIP3   OH232447   1.080   6.009   1.352 -0.3959 -0.3173 -0.1551
 2751TIP3    H132448   1.007   6.071   1.352 -0.0640  0.0760 -0.8927
 2751TIP3    H232449   1.159   6.063   1.350 -0.1018 -0.7501 -0.8092
 2752TIP3   OH232450   3.702   0.903   1.211  0.1465  0.0933  0.0023
 2752TIP3    H132451   3.612   0.938   1.211 -0.0441 -0.3648  0.6378
 2752TIP3    H232452   3.690   0.808   1.207  0.6612  0.0617 -2.1770
 2753TIP3   OH232453   3.197   1.836   7.650 -0.1131  0.3023  0.2056
 2753TIP3    H132454   3.109   1.857   7.618 -0.1668 -2.1215 -1.4571
 2753TIP3    H232455   3.254   1.899   7.605 -0.6690 -0.2555 -1.3363
 2754TIP3   OH232456   6.321   7.040   0.917  0.7953  0.1706  0.1034
 2754TIP3    H132457   6.346   6.958   0.874  0.1823 -0.6894  1.3225
 2754TIP3    H232458   6.276   7.012   0.997 -0.4195  1.6909 -0.0124
 2755TIP3   OH232459   1.576   4.098   8.760 -0.0622 -0.5203 -0.1572
 2755TIP3    H132460   1.633   4.025   8.784 -0.7010 -1.1811 -0.6108
 2755TIP3    H232461   1.575   4.098   8.665  1.1086  1.0295 -0.2264
 2756TIP3   OH232462   2.089   6.136   1.545  0.0202  0.3487  0.3616
 2756TIP3    H132463   2.117   6.197   1.613 -2.4444  1.5281  0.4524
 2756TIP3    H232464   2.122   6.051   1.573 -1.4730  0.6658  3.4979
 2757TIP3   OH232465   4.322   4.265   8.005 -0.1142 -0.1316  0.2288
 2757TIP3    H132466   4.331   4.267   7.910 -1.3071  1.9101  0.1041
 2757TIP3    H232467   4.259   4.194   8.022 -1.3775  0.7449 -0.6787
 2758TIP3   OH232468   2.253   2.905   1.606 -0.6127  0.1014  0.1448
 2758TIP3    H132469   2.226   2.831   1.552  1.1757 -1.6096  1.4472
 2758TIP3    H232470   2.203   2.894   1.688 -0.6065  0.5551  0.2103
 2759TIP3   OH232471   6.881   6.944   0.223  0.4549  0.0165  0.2690
 2759TIP3    H132472   6.826   7.014   0.187  0.2219  0.1798  0.9276
 2759TIP3    H232473   6.953   6.990   0.266  0.3608 -0.1486  0.6075
 2760TIP3   OH232474   0.523   1.188   2.284 -0.6373  0.1338  0.2976
 2760TIP3    H132475   0.437   1.148   2.299 -1.3704  0.7756 -1.8835
 2760TIP3    H232476   0.512   1.279   2.313 -1.2165  0.6377 -1.4033
 2761TIP3   OH232477   2.309   6.694   8.947 -0.2851 -0.5602  0.4139
 2761TIP3    H132478   2.248   6.758   8.984  0.4913  1.7080 -1.8908
 2761TIP3    H232479   2.365   6.746   8.890  0.4278 -3.3261 -1.6066
 2762TIP3   OH232480   1.445   2.183   3.162 -0.3957  0.2486  0.3256
 2762TIP3    H132481   1.499   2.154   3.088  0.1436  0.5866  0.5882
 2762TIP3    H232482   1.359   2.144   3.144  0.3203 -1.6047  0.7147
 2763TIP3   OH232483   0.037   3.444   8.098  0.0269  0.1263  0.0173
 2763TIP3    H132484   0.026   3.350   8.090 -1.6912  0.3525 -0.8245
 2763TIP3    H232485   0.019   3.464   8.190  0.0368 -0.3232  0.1160
 2764TIP3   OH232486   5.726   0.110   9.612  0.0555 -0.0026 -0.1211
 2764TIP3    H132487   5.691   0.030   9.651  0.3016 -0.2297 -0.3613
 2764TIP3    H232488   5.796   0.136   9.672 -0.0427  0.0502 -0.0278
 2765TIP3   OH232489   5.453   4.052   7.805  0.3520 -0.0810 -0.0314
 2765TIP3    H132490   5.387   3.987   7.780  0.8078 -1.0324  1.1308
 2765TIP3    H232491   5.471   4.101   7.724  0.3867 -1.7512 -1.0768
 2766TIP3   OH232492   5.649   4.985   0.349 -0.2034  0.3980  0.7262
 2766TIP3    H132493   5.743   4.966   0.352 -0.1244  0.7789  0.7248
 2766TIP3    H232494   5.627   5.010   0.439 -0.6106 -1.1037  1.0660
 2767TIP3   OH232495   4.056   2.714   1.219 -0.0826 -0.1292 -0.5544
 2767TIP3    H132496   4.061   2.713   1.123  0.9843 -3.0736 -0.5769
 2767TIP3    H232497   4.146   2.725   1.247 -0.6802  4.3852  0.3292
 2768TIP3   OH232498   2.934   1.965   6.496  0.2581  0.0884 -0.5080
 2768TIP3    H132499   3.007   2.013   6.457  0.2778 -0.1813 -0.8073
 2768TIP3    H232500   2.944   1.875   6.464  0.3663 -0.1750  0.2491
 2769TIP3   OH232501   3.367   0.918   0.244 -0.1294  0.0584 -0.1291
 2769TIP3    H132502   3.304   0.882   0.306  0.2506  2.0157  1.5076
 2769TIP3    H232503   3.447   0.869   0.259  0.2425  1.1210  1.7165
 2770TIP3   OH232504   0.253   3.928   8.540  0.2581  0.3474 -0.1286
 2770TIP3    H132505   0.237   4.015   8.504  0.6289  0.2065 -0.6495
 2770TIP3    H232506   0.256   3.871   8.464 -2.3926 -0.5435  0.3209
 2771TIP3   OH232507   0.426   3.089   8.800  0.4624 -0.0715 -0.2512
 2771TIP3    H132508   0.366   3.161   8.819 -1.4669 -1.8627  0.9198
 2771TIP3    H232509   0.487   3.089   8.874 -1.1088 -1.1178  1.1227
 2772TIP3   OH232510   7.572   3.597   0.280 -0.2049 -0.1601 -0.1260
 2772TIP3    H132511   7.644   3.551   0.237 -0.5021 -0.4361 -0.3228
 2772TIP3    H232512   7.589   3.690   0.261  0.2408 -0.2004  0.0493
 2773TIP3   OH232513   6.437   5.295   9.435  0.5803  0.1163  0.4616
 2773TIP3    H132514   6.473   5.312   9.522 -0.3419  1.8159  0.5542
 2773TIP3    H232515   6.509   5.316   9.375  0.6344  0.7344  0.7393
 2774TIP3   OH232516   2.030   5.325   6.518  0.1285 -0.3475  0.5798
 2774TIP3    H132517   2.057   5.234   6.529 -2.7434 -1.4757 -0.4668
 2774TIP3    H232518   1.962   5.338   6.585  0.1134  0.8275  0.3508
 2775TIP3   OH232519   1.128   4.296   9.358  0.1293  0.0142 -0.2525
 2775TIP3    H132520   1.158   4.206   9.364  0.6384  0.2711  1.3926
 2775TIP3    H232521   1.190   4.346   9.411 -0.4248  1.2735 -0.7421
 2776TIP3   OH232522   6.816   6.562   9.912 -0.4781  0.3981  0.1311
 2776TIP3    H132523   6.863   6.617   9.849 -0.6204  0.1427 -0.2001
 2776TIP3    H232524   6.852   6.475   9.899  0.1444  0.5023  1.0411
 2777TIP3   OH232525   5.834   4.233   1.806 -0.2130 -0.1164 -0.3093
 2777TIP3    H132526   5.890   4.159   1.828  0.1934 -0.2397 -1.6685
 2777TIP3    H232527   5.860   4.302   1.868  0.2374 -0.7154  0.1805
 2778TIP3   OH232528   0.233   0.514   1.744 -0.6500 -0.1053 -0.4008
 2778TIP3    H132529   0.296   0.578   1.778 -0.9310  0.6980 -1.3436
 2778TIP3    H232530   0.224   0.537   1.651 -0.8104 -1.4760 -0.7370
 2779TIP3   OH232531   5.327   7.027   7.674  0.0331  0.2410 -0.1996
 2779TIP3    H132532   5.276   7.041   7.754  0.0830  0.8635 -0.2769
 2779TIP3    H232533   5.367   7.111   7.656 -0.2315  0.1931 -1.0611
 2780TIP3   OH232534   4.335   3.195   0.580  0.3508  0.4706  0.1920
 2780TIP3    H132535   4.362   3.104   0.593  1.7545  0.9459  0.6889
 2780TIP3    H232536   4.365   3.241   0.658 -3.0791  0.8307  1.4728
 2781TIP3   OH232537   6.097   5.549   9.833 -0.1178  0.3566  0.0380
 2781TIP3    H132538   6.054   5.542   9.748  0.2648 -0.2333 -0.1129
 2781TIP3    H232539   6.054   5.483   9.888 -0.5121  0.8814  0.3730
 2782TIP3   OH232540   2.741   4.167   1.006  0.0805  0.7067 -0.5115
 2782TIP3    H132541   2.672   4.174   0.940 -0.1891  0.6472 -0.2323
 2782TIP3    H232542   2.812   4.223   0.971  0.2924 -0.0258 -1.2868
 2783TIP3   OH232543   6.345   4.122   8.409  0.2442 -0.1320  0.1029
 2783TIP3    H132544   6.294   4.091   8.483 -2.0437  3.6162  0.3272
 2783TIP3    H232545   6.436   4.122   8.441  0.3491 -4.7114  0.4839
 2784TIP3   OH232546   3.431   2.116   7.341 -0.1140 -0.6116  0.1038
 2784TIP3    H132547   3.450   2.202   7.304 -0.8856 -0.9950 -1.2510
 2784TIP3    H232548   3.346   2.092   7.305  0.0981 -1.9546  0.4412
 2785TIP3   OH232549   1.579   4.018   8.474  0.6770  0.5238  0.0446
 2785TIP3    H132550   1.483   4.012   8.473  0.6270  1.2630  0.0805
 2785TIP3    H232551   1.608   3.927   8.472 -0.0273  0.2878  0.1360
 2786TIP3   OH232552   4.644   2.673   1.300 -0.0358 -0.0441 -0.5548
 2786TIP3    H132553   4.680   2.696   1.385  1.1585  0.6977 -1.2222
 2786TIP3    H232554   4.627   2.757   1.258 -1.8933 -0.3874 -0.5591
 2787TIP3   OH232555   3.076   6.317   9.904 -0.2890  0.5161  0.3151
 2787TIP3    H132556   3.015   6.365   9.847 -1.3648 -0.0139  0.9897
 2787TIP3    H232557   3.126   6.262   9.844 -1.5392 -0.1805 -0.1332
 2788TIP3   OH232558   2.257   7.437   2.600 -0.0155  0.1569 -0.9832
 2788TIP3    H132559   2.243   7.404   2.511  1.4309  0.2431 -1.2675
 2788TIP3    H232560   2.245   7.360   2.656 -3.0061  0.4973 -0.9814
 2789TIP3   OH232561   3.678   6.488   2.588 -0.2316  0.3656  0.5203
 2789TIP3    H132562   3.652   6.464   2.678 -1.5887 -0.9837 -0.1873
 2789TIP3    H232563   3.608   6.546   2.558  0.0605  0.5588  0.2033
 2790TIP3   OH232564   3.282   0.009   1.253  0.0447 -0.0679 -0.6528
 2790TIP3    H132565   3.305   0.055   1.172  0.7323  0.1096 -0.3639
 2790TIP3    H232566   3.233  -0.068   1.224 -0.5027  0.4655 -1.1830
 2791TIP3   OH232567   3.015   1.444   7.812  0.1314 -0.0190  0.0598
 2791TIP3    H132568   2.941   1.409   7.862 -0.2580 -1.4825 -1.4618
 2791TIP3    H232569   2.977   1.472   7.729  1.2674 -0.7957 -0.7492
 2792TIP3   OH232570   6.551   7.197   8.413 -0.8667  0.0443  0.1427
 2792TIP3    H132571   6.508   7.273   8.373 -0.6105  0.8428  1.3302
 2792TIP3    H232572   6.505   7.121   8.376 -0.3818  0.6859 -1.9529
 2793TIP3   OH232573   0.422   5.270   8.514  0.0015  0.5107 -0.2051
 2793TIP3    H132574   0.378   5.211   8.576 -0.6996  2.1422  0.9178
 2793TIP3    H232575   0.506   5.290   8.556  1.0439 -1.0716 -1.4417
 2794TIP3   OH232576   0.432   3.877   7.991 -0.6158 -0.5279  0.4439
 2794TIP3    H132577   0.408   3.794   8.031  1.6369 -1.9981 -1.0129
 2794TIP3    H232578   0.446   3.857   7.898 -0.3752  1.5487 -0.0275
 2795TIP3   OH232579   1.309   4.362   2.200 -0.4301  0.0707  0.3085
 2795TIP3    H132580   1.390   4.331   2.240 -0.2885  1.2851  1.0151
 2795TIP3    H232581   1.327   4.453   2.177 -1.0176 -0.1606 -1.1848
 2796TIP3   OH232582   0.381   2.400   2.774  0.7129 -0.9405 -0.1894
 2796TIP3    H132583   0.475   2.402   2.793  0.7076  1.0618 -0.2351
 2796TIP3    H232584   0.342   2.454   2.842  0.1272  2.0260 -2.6632
 2797TIP3   OH232585   2.152   6.524   0.604 -0.0571 -0.3022 -0.5527
 2797TIP3    H132586   2.220   6.591   0.614 -0.3542 -0.1080  0.2486
 2797TIP3    H232587   2.127   6.529   0.512  0.0873  0.5434 -0.5580
 2798TIP3   OH232588   1.748   1.161   1.862 -0.7621 -0.2330 -0.1978
 2798TIP3    H132589   1.743   1.233   1.925  1.6920 -0.2038  0.0849
 2798TIP3    H232590   1.658   1.133   1.849 -1.7294  2.3743  0.2762
 2799TIP3   OH232591   6.076   4.852   0.870 -0.6887  0.0470 -0.2282
 2799TIP3    H132592   6.157   4.847   0.920 -0.7307  0.5845 -0.0923
 2799TIP3    H232593   6.093   4.802   0.791 -0.6122 -0.7912  0.3110
 2800TIP3   OH232594   1.447   3.106   2.018  0.3460 -0.0066  0.3851
 2800TIP3    H132595   1.515   3.141   1.960 -0.6226  2.9076  0.8621
 2800TIP3    H232596   1.365   3.121   1.971 -0.4463  2.3002  2.3121
 2801TIP3   OH232597   4.756   3.792   1.261 -0.4980 -0.3144 -0.4939
 2801TIP3    H132598   4.792   3.705   1.241  0.2425  0.0167 -0.6118
 2801TIP3    H232599   4.782   3.847   1.187 -0.8487  0.0501 -0.3530
 2802TIP3   OH232600   0.539   6.067   6.478  0.1408  0.1581 -0.0780
 2802TIP3    H132601   0.552   6.157   6.450 -2.9748  0.6915 -0.2259
 2802TIP3    H232602   0.588   6.015   6.415 -1.5551  1.6077 -2.7825
 2803TIP3   OH232603   4.290   5.116   1.875  0.6508  0.1552  0.2874
 2803TIP3    H132604   4.219   5.082   1.929  1.7531 -1.0253  1.0485
 2803TIP3    H232605   4.291   5.058   1.799  2.0912 -1.1819  1.2628
 2804TIP3   OH232606   7.204   0.580   8.555  0.3212 -0.0472 -0.3644
 2804TIP3    H132607   7.285   0.529   8.559  0.4897  0.1830 -0.7818
 2804TIP3    H232608   7.222   0.649   8.491 -0.1757  0.0564 -0.3970
 2805TIP3   OH232609   1.959   4.861   8.129 -0.0349  0.5473  0.1505
 2805TIP3    H132610   1.890   4.891   8.070  1.3487  2.7284 -0.4958
 2805TIP3    H232611   1.944   4.909   8.210 -0.7175 -0.9088  0.9380
 2806TIP3   OH232612   2.785   5.762   6.980 -0.3748 -0.0774  0.4261
 2806TIP3    H132613   2.864   5.777   6.929 -0.5190 -1.6169 -0.3101
 2806TIP3    H232614   2.815   5.724   7.062 -0.2989  0.0921  0.4763
 2807TIP3   OH232615   3.137   4.059   9.959  0.2396 -0.1819 -0.0954
 2807TIP3    H132616   3.093   3.986   9.915 -0.1889 -0.6791  1.1091
 2807TIP3    H232617   3.221   4.024   9.986 -0.5583 -0.7523  1.8231
 2808TIP3   OH232618   0.481   3.471   8.941  0.1891 -0.4838  0.1549
 2808TIP3    H132619   0.568   3.445   8.971  0.4079  0.3632  0.2785
 2808TIP3    H232620   0.437   3.388   8.919  0.7139 -0.9740  0.9266
 2809TIP3   OH232621   4.907   7.240   9.197  0.3001 -0.1576  0.2098
 2809TIP3    H132622   4.984   7.257   9.250  0.7340 -1.8356  0.1639
 2809TIP3    H232623   4.880   7.327   9.166  0.8297  0.7151  2.0278
 2810TIP3   OH232624   7.408   3.775   8.885  0.4910  0.1827 -0.1380
 2810TIP3    H132625   7.392   3.869   8.886  1.5422  0.3906 -0.5418
 2810TIP3    H232626   7.453   3.760   8.802  0.8478 -0.5816  0.1833
 2811TIP3   OH232627   0.274   2.301   7.687 -0.1530 -0.4108  0.6354
 2811TIP3    H132628   0.311   2.305   7.598  1.0254  2.0520  1.1510
 2811TIP3    H232629   0.179   2.293   7.673 -0.1003  1.0447 -0.9008
 2812TIP3   OH232630   3.705   6.994   7.344  0.4811 -0.1980 -0.1046
 2812TIP3    H132631   3.613   7.010   7.364  0.9887  0.6355  1.8341
 2812TIP3    H232632   3.745   7.081   7.347  1.5476 -0.6872  0.3595
 2813TIP3   OH232633   3.256   7.649   9.251  0.6957 -0.5097  0.1308
 2813TIP3    H132634   3.221   7.736   9.234 -0.3948 -0.9698 -0.1360
 2813TIP3    H232635   3.236   7.599   9.172 -0.3135 -1.4610  0.9445
 2814TIP3   OH232636   2.678   7.269   9.657 -0.6798  0.1073  0.0343
 2814TIP3    H132637   2.742   7.231   9.717 -1.1330 -1.1118 -0.2136
 2814TIP3    H232638   2.599   7.280   9.710 -0.3458  1.3920  0.2815
 2815TIP3   OH232639   2.868   0.695   8.264 -0.2476 -0.2795 -1.0572
 2815TIP3    H132640   2.951   0.732   8.236 -0.0256 -1.2407 -1.7058
 2815TIP3    H232641   2.883   0.601   8.267 -0.9738 -0.3795 -0.0282
 2816TIP3   OH232642   0.176   0.068   7.904 -0.7517 -0.4403 -0.0261
 2816TIP3    H132643   0.254   0.057   7.958  0.1871  1.8359 -0.7624
 2816TIP3    H232644   0.209   0.063   7.814 -1.2576  1.4273 -0.3514
 2817TIP3   OH232645   6.391   0.400   9.482  0.1663 -0.3365  0.5042
 2817TIP3    H132646   6.467   0.453   9.459 -0.0971 -0.0848  0.2031
 2817TIP3    H232647   6.427   0.315   9.505  0.4125 -0.8552 -1.6000
 2818TIP3   OH232648   2.169   3.172   9.676 -0.1342  0.2652  0.1925
 2818TIP3    H132649   2.093   3.122   9.706  1.4270 -1.9454  0.7132
 2818TIP3    H232650   2.175   3.245   9.737 -1.0852 -0.2432  0.9208
 2819TIP3   OH232651   1.147   3.224   1.072  0.4261  0.1903 -0.6128
 2819TIP3    H132652   1.070   3.280   1.078  1.8442  2.1662  0.4730
 2819TIP3    H232653   1.182   3.241   0.984  0.9505  1.2267 -0.2274
 2820TIP3   OH232654   2.214   3.185   0.506 -0.5825  0.3577  0.1555
 2820TIP3    H132655   2.124   3.180   0.537 -0.0730  0.0994  1.6975
 2820TIP3    H232656   2.221   3.116   0.440 -1.2502 -0.2772  0.7316
 2821TIP3   OH232657   3.514   3.124   0.366 -0.1509 -0.0098 -0.1106
 2821TIP3    H132658   3.473   3.045   0.332  0.4046  0.4095 -1.8535
 2821TIP3    H232659   3.530   3.178   0.289  0.6836  1.2412  0.8896
 2822TIP3   OH232660   7.641   0.586   1.276 -0.4078 -0.1298 -0.0573
 2822TIP3    H132661   7.651   0.562   1.368  0.3510  2.6109  0.6598
 2822TIP3    H232662   7.718   0.548   1.233  0.3661  0.3491  0.8643
 2823TIP3   OH232663   4.590   1.019   8.523 -0.0880 -0.2730  0.8410
 2823TIP3    H132664   4.565   0.967   8.600 -0.0999 -2.2588 -0.4543
 2823TIP3    H232665   4.520   1.005   8.460  0.1497  0.9675  0.2597
 2824TIP3   OH232666   4.482   1.496   7.059  0.4655  0.5699 -0.2451
 2824TIP3    H132667   4.541   1.560   7.019  0.0732  0.4716 -0.9892
 2824TIP3    H232668   4.509   1.412   7.021 -2.7364  0.9148 -3.8835
 2825TIP3   OH232669   4.650   6.825   9.196 -0.3013  0.5925  0.0656
 2825TIP3    H132670   4.641   6.809   9.102 -1.9575 -0.3407  0.3435
 2825TIP3    H232671   4.704   6.903   9.202  3.2815 -1.5217 -1.5405
 2826TIP3   OH232672   1.909   6.289   2.192  0.3837 -0.0302 -0.1154
 2826TIP3    H132673   1.946   6.369   2.154  0.0817  0.2997  0.2736
 2826TIP3    H232674   1.985   6.241   2.224  0.5489  0.2199 -0.1266
 2827TIP3   OH232675   2.040   4.469   8.075  0.2142  0.2992  0.8249
 2827TIP3    H132676   2.076   4.471   7.986 -0.0429 -0.0387  0.7069
 2827TIP3    H232677   2.081   4.542   8.120 -0.2389  0.9643  0.1957
 2828TIP3   OH232678   0.320   1.234   1.140  0.9145  0.5132 -0.4672
 2828TIP3    H132679   0.337   1.270   1.053 -2.2238  3.5181 -0.0812
 2828TIP3    H232680   0.373   1.288   1.199 -1.4192  2.7078 -0.1714
 2829TIP3   OH232681   2.968   6.346   7.025  0.6123 -0.4929 -0.1493
 2829TIP3    H132682   2.908   6.355   7.099  0.9719  0.4649  0.0396
 2829TIP3    H232683   2.927   6.280   6.969 -1.0376  0.6753 -0.4022
 2830TIP3   OH232684   6.537   4.663   8.179  0.4008 -0.3315 -0.2031
 2830TIP3    H132685   6.566   4.641   8.091  0.5487 -0.4628 -0.1245
 2830TIP3    H232686   6.466   4.726   8.167 -0.0877 -0.9166 -0.4361
 2831TIP3   OH232687   6.452   2.381   0.221 -0.0470  0.2096  0.7438
 2831TIP3    H132688   6.512   2.340   0.283 -0.4089 -0.6663  0.5360
 2831TIP3    H232689   6.461   2.329   0.141 -2.7721 -1.5207  1.4056
 2832TIP3   OH232690   7.471   1.359   0.114  0.0843 -0.4966 -0.4949
 2832TIP3    H132691   7.538   1.294   0.138 -0.0338 -0.2318  0.5848
 2832TIP3    H232692   7.477   1.426   0.182 -0.5714  0.0614 -0.9784
 2833TIP3   OH232693   3.303   2.315   0.764 -0.0898  0.2420 -0.4790
 2833TIP3    H132694   3.332   2.273   0.845 -2.0609  1.0199  0.6781
 2833TIP3    H232695   3.384   2.324   0.712  1.0213 -1.3313  0.8704
 2834TIP3   OH232696   1.903   3.653   9.535  0.1961  0.0068  0.0251
 2834TIP3    H132697   1.921   3.565   9.568 -1.3714 -0.2750  0.1991
 2834TIP3    H232698   1.918   3.711   9.609 -0.4071 -0.3055  0.3974
 2835TIP3   OH232699   2.562   3.887   9.469  0.1301 -0.3711  0.0208
 2835TIP3    H132700   2.636   3.896   9.409  0.7832  0.7328  0.9556
 2835TIP3    H232701   2.600   3.854   9.551 -0.1950  1.3157  0.8895
 2836TIP3   OH232702   2.895   7.343   1.224  0.1627  0.4788 -0.1747
 2836TIP3    H132703   2.960   7.398   1.182  3.1421 -0.7907  2.3711
 2836TIP3    H232704   2.857   7.397   1.293  1.5962  0.0768  0.9850
 2837TIP3   OH232705   2.320   2.002   1.093 -0.0166 -0.0102 -0.0871
 2837TIP3    H132706   2.410   2.004   1.127  0.0339  0.7030 -0.2465
 2837TIP3    H232707   2.328   1.963   1.006  0.0994 -0.1993  0.0075
 2838TIP3   OH232708   1.429   5.779   0.682 -0.2595 -0.1885 -0.1190
 2838TIP3    H132709   1.382   5.813   0.759 -0.5227 -2.7382  0.9716
 2838TIP3    H232710   1.507   5.738   0.719  1.3099  1.2924 -1.6159
 2839TIP3   OH232711   2.942   6.992   8.021  0.0849  0.1488 -0.7582
 2839TIP3    H132712   3.035   7.001   8.042 -0.0984  1.2988 -0.3302
 2839TIP3    H232713   2.931   7.045   7.942 -0.0907 -0.4694 -1.1466
 2840TIP3   OH232714   2.682   0.829   7.624  0.2294 -0.2786 -0.0477
 2840TIP3    H132715   2.759   0.835   7.568 -1.2681 -0.2209 -2.2028
 2840TIP3    H232716   2.684   0.910   7.676  2.2474 -0.8652  0.8776
 2841TIP3   OH232717   3.842   2.903   1.276  0.1704  0.2175  0.5973
 2841TIP3    H132718   3.909   2.836   1.288  0.2707  0.3673  0.9037
 2841TIP3    H232719   3.848   2.929   1.184  1.5694  1.3140  0.9699
 2842TIP3   OH232720   2.982   4.273   0.842  0.1109  0.3113 -0.0615
 2842TIP3    H132721   3.029   4.198   0.804 -1.9141 -1.7105  1.1401
 2842TIP3    H232722   3.025   4.287   0.926  2.3563  2.5245 -1.4395
 2843TIP3   OH232723   1.495   1.862   9.412 -0.2770 -0.1240  0.3370
 2843TIP3    H132724   1.405   1.875   9.441 -0.4417  1.2574 -0.7110
 2843TIP3    H232725   1.538   1.946   9.427  0.2558 -0.0954 -1.1673
 2844TIP3   OH232726   1.535   4.184   2.765  0.5750  0.0915  0.3091
 2844TIP3    H132727   1.530   4.104   2.817  0.0212 -0.9182 -1.2319
 2844TIP3    H232728   1.444   4.213   2.755  0.7288  0.6292  0.4305
 2845TIP3   OH232729   1.138   6.885   2.328 -0.1058  0.5651 -0.3064
 2845TIP3    H132730   1.222   6.843   2.305  1.2525  2.6667  0.5443
 2845TIP3    H232731   1.072   6.820   2.303  1.6154 -0.3328 -3.0270
 2846TIP3   OH232732   1.020   6.541   1.493  0.2830 -0.5651 -0.3580
 2846TIP3    H132733   0.936   6.535   1.538  0.6821 -0.7663  0.3782
 2846TIP3    H232734   1.059   6.622   1.526  0.7091 -0.8699 -0.1013
 2847TIP3   OH232735   5.608   6.518   8.867  0.0248 -0.3644 -0.1661
 2847TIP3    H132736   5.655   6.596   8.835 -0.7877  0.5049  0.6805
 2847TIP3    H232737   5.516   6.541   8.859 -0.2224 -1.0988  0.4487
 2848TIP3   OH232738   1.732   1.181   2.762 -0.7815 -0.0507  0.5421
 2848TIP3    H132739   1.755   1.134   2.842 -2.5366 -1.4005  0.3264
 2848TIP3    H232740   1.674   1.251   2.792  1.0539  1.4522  0.7508
 2849TIP3   OH232741   3.517   0.128   8.344  0.7292  0.1433 -0.1409
 2849TIP3    H132742   3.424   0.109   8.352  0.5570  0.9047 -0.2341
 2849TIP3    H232743   3.545   0.078   8.267  0.1220  0.8345 -0.8316
 2850TIP3   OH232744   4.956   6.178   8.041  0.2365  0.5292 -0.3367
 2850TIP3    H132745   5.029   6.116   8.043 -0.6299 -0.5154  0.9197
 2850TIP3    H232746   4.879   6.124   8.021 -0.2262  1.5923 -1.5503
 2851TIP3   OH232747   4.997   2.151   8.311 -0.3951 -0.0595 -0.5435
 2851TIP3    H132748   5.004   2.179   8.402 -2.4337  0.3621 -0.4806
 2851TIP3    H232749   5.078   2.181   8.271  0.1724  0.4803  0.9331
 2852TIP3   OH232750   5.873   6.147   9.278 -0.6387  0.8283  0.3307
 2852TIP3    H132751   5.942   6.083   9.293 -0.4702  0.2683 -2.3590
 2852TIP3    H232752   5.896   6.221   9.335 -0.2412 -0.9815  2.6640
 2853TIP3   OH232753   1.390   2.314   1.284  0.3192 -0.2287  0.0551
 2853TIP3    H132754   1.332   2.375   1.238  0.1136  0.3470  1.0306
 2853TIP3    H232755   1.465   2.368   1.310  1.0526 -0.8450 -0.7247
 2854TIP3   OH232756   6.668   1.541   0.598  0.2419 -0.3214  0.4370
 2854TIP3    H132757   6.650   1.519   0.506  1.3134  0.1369  0.1025
 2854TIP3    H232758   6.762   1.525   0.608  0.0508 -0.8020  1.5867
 2855TIP3   OH232759   5.265   5.557   9.322  0.5157 -0.4003 -0.2242
 2855TIP3    H132760   5.195   5.590   9.265 -0.2623 -1.9433 -0.2107
 2855TIP3    H232761   5.343   5.606   9.295 -0.3484  0.6022 -0.9690
 2856TIP3   OH232762   3.271   6.894   2.076  0.0117 -0.0226  0.4795
 2856TIP3    H132763   3.275   6.979   2.120  0.8995 -0.2632  0.8898
 2856TIP3    H232764   3.278   6.830   2.147  0.9537 -0.4185  0.0541
 2857TIP3   OH232765   3.213   6.924   8.860 -0.2273 -0.1233  0.2236
 2857TIP3    H132766   3.223   6.873   8.941  0.2478  0.1829  0.3589
 2857TIP3    H232767   3.120   6.917   8.839  0.1149 -2.7139 -0.8306
 2858TIP3   OH232768   2.498   4.085   2.366 -0.0200 -0.0854 -0.3448
 2858TIP3    H132769   2.441   4.035   2.424  1.5135 -0.1458  1.1581
 2858TIP3    H232770   2.462   4.174   2.367  0.8306  0.2900  1.9498
 2859TIP3   OH232771   7.300   5.642   0.348  0.1412  0.1577  0.1800
 2859TIP3    H132772   7.386   5.627   0.387 -0.1748  0.4771  1.0154
 2859TIP3    H232773   7.240   5.647   0.422 -0.4202  1.1290 -0.3110
 2860TIP3   OH232774   1.765   2.044   9.683  0.4643 -0.3619 -0.3942
 2860TIP3    H132775   1.815   2.122   9.662  0.6213 -0.2323  0.4420
 2860TIP3    H232776   1.794   2.019   9.771 -1.6472  0.3190  0.5714
 2861TIP3   OH232777   5.309   3.266   7.404  0.2221  0.1375  0.1600
 2861TIP3    H132778   5.216   3.277   7.424  0.2817 -1.1992  1.3222
 2861TIP3    H232779   5.343   3.356   7.400 -1.2928  0.6991 -1.3422
 2862TIP3   OH232780   7.191   2.290   9.124  0.5160 -0.2638 -0.1643
 2862TIP3    H132781   7.271   2.239   9.134  0.1231 -0.8098  0.3447
 2862TIP3    H232782   7.216   2.365   9.071  1.2540 -0.6710 -0.4066
 2863TIP3   OH232783   1.393   2.875   8.100 -0.1065 -0.0181 -0.9086
 2863TIP3    H132784   1.386   2.809   8.031 -0.0002  1.5178 -2.4492
 2863TIP3    H232785   1.471   2.926   8.077 -0.3384  0.8234  0.0802
 2864TIP3   OH232786   4.414   1.403   0.704  0.4757 -0.0740  0.3795
 2864TIP3    H132787   4.445   1.457   0.630  1.2020 -0.1390  0.6209
 2864TIP3    H232788   4.343   1.454   0.743  0.1094 -0.0232 -0.3443
 2865TIP3   OH232789   3.495   5.658   2.067 -0.0821  0.0184 -0.3150
 2865TIP3    H132790   3.580   5.615   2.059 -0.9980 -1.7753 -1.0566
 2865TIP3    H232791   3.514   5.742   2.109  2.2452  0.3440 -1.8250
 2866TIP3   OH232792   0.008   0.499   7.877 -0.8972 -0.6369 -0.6996
 2866TIP3    H132793   0.044   0.420   7.919 -0.0834  0.8425  1.5971
 2866TIP3    H232794   0.082   0.560   7.874 -2.0650  0.8816 -0.0960
 2867TIP3   OH232795   0.534   2.106   8.450 -0.0624  0.6920  0.0750
 2867TIP3    H132796   0.615   2.140   8.489  1.3796 -1.7525 -0.5397
 2867TIP3    H232797   0.557   2.087   8.359 -1.0596 -0.8044  0.1011
 2868TIP3   OH232798   6.567   4.532   0.606  0.0767  0.1863  0.9327
 2868TIP3    H132799   6.627   4.605   0.620 -1.4006  1.3440  1.5076
 2868TIP3    H232800   6.540   4.540   0.515  0.4259 -0.0633  0.8037
 2869TIP3   OH232801   5.077   3.477   9.217 -0.6140 -0.2878 -0.3490
 2869TIP3    H132802   5.077   3.416   9.143 -0.5015 -0.1734 -0.4450
 2869TIP3    H232803   5.021   3.436   9.283 -1.8509  0.2441 -1.0181
 2870TIP3   OH232804   0.579   1.194   7.554 -0.7521  0.0063  0.2040
 2870TIP3    H132805   0.541   1.281   7.539  0.3556  0.2277 -1.4843
 2870TIP3    H232806   0.630   1.204   7.635  2.3317  2.0294 -1.7898
 2871TIP3   OH232807   3.591   2.441   0.901 -0.2613 -0.6406  0.1740
 2871TIP3    H132808   3.604   2.375   0.969  1.2416  0.3242  0.8520
 2871TIP3    H232809   3.582   2.390   0.820 -0.6579 -1.7285  0.8759
 2872TIP3   OH232810   6.491   1.113   8.025 -0.5108 -0.0609 -0.0628
 2872TIP3    H132811   6.584   1.133   8.014 -0.8383  1.6695  0.0359
 2872TIP3    H232812   6.473   1.046   7.958  0.7538 -0.2925 -0.1936
 2873TIP3   OH232813   5.862   5.449   1.500 -0.9488  0.3772  0.0170
 2873TIP3    H132814   5.802   5.458   1.574 -1.0108 -0.1925  0.0422
 2873TIP3    H232815   5.938   5.402   1.536 -1.1787 -0.3156 -0.3792
 2874TIP3   OH232816   0.386   1.877   1.700 -0.4008  0.4084 -0.6420
 2874TIP3    H132817   0.371   1.802   1.643 -1.0677  0.8711 -1.0906
 2874TIP3    H232818   0.306   1.930   1.693 -0.1646  0.8888  0.0868
 2875TIP3   OH232819   6.870   1.386   1.321 -0.1701 -0.2029 -0.0430
 2875TIP3    H132820   6.800   1.386   1.386  1.2086 -2.7120  1.6326
 2875TIP3    H232821   6.839   1.444   1.252 -2.5603  1.0938  1.9552
 2876TIP3   OH232822   2.185   1.103   8.808 -0.2215 -0.0906 -1.2568
 2876TIP3    H132823   2.178   1.133   8.717  0.1004  1.7313 -0.7137
 2876TIP3    H232824   2.100   1.125   8.847  0.4556  1.3431 -0.5226
 2877TIP3   OH232825   6.962   0.815   0.638 -0.3978 -0.1275 -0.0475
 2877TIP3    H132826   6.959   0.770   0.553  0.4778 -1.2269  0.4722
 2877TIP3    H232827   6.891   0.879   0.634 -1.9310 -1.7932 -0.7068
 2878TIP3   OH232828   0.918   3.481   9.370 -0.6129  0.1793  0.6224
 2878TIP3    H132829   0.883   3.447   9.288  0.1714 -0.6263  0.6053
 2878TIP3    H232830   0.988   3.541   9.343 -0.9418  0.5936  0.6859
 2879TIP3   OH232831   0.329   4.116   9.631 -0.2576 -0.3259  0.2959
 2879TIP3    H132832   0.348   4.092   9.541  0.8751  0.5524  0.2835
 2879TIP3    H232833   0.355   4.208   9.638 -3.4415  0.6506  0.6366
 2880TIP3   OH232834   2.990   6.960   8.581 -0.1576  0.3999 -0.1962
 2880TIP3    H132835   3.082   6.948   8.559  0.1721 -0.5888  1.5097
 2880TIP3    H232836   2.948   6.878   8.556 -0.5345  0.7337 -0.6886
 2881TIP3   OH232837   5.839   3.834   8.533 -0.0705  0.4852  0.2429
 2881TIP3    H132838   5.788   3.753   8.536  1.4612 -0.4980  0.5186
 2881TIP3    H232839   5.781   3.900   8.572 -1.2790 -0.4920  0.1657
 2882TIP3   OH232840   4.927   3.534   9.696 -0.1614 -0.0746 -0.2313
 2882TIP3    H132841   4.848   3.544   9.643  0.4043 -0.7956 -1.2466
 2882TIP3    H232842   4.980   3.610   9.673 -1.6516  2.0045  2.5531
 2883TIP3   OH232843   7.310   1.442   8.685 -0.2131 -0.0675 -0.7251
 2883TIP3    H132844   7.281   1.439   8.776  0.4696  1.3812 -0.4192
 2883TIP3    H232845   7.366   1.365   8.675 -2.1447 -1.5395 -0.6291
 2884TIP3   OH232846   3.731   4.873   1.024  0.0373 -0.7377  0.1092
 2884TIP3    H132847   3.648   4.882   1.070 -0.7866 -2.5157 -0.9420
 2884TIP3    H232848   3.793   4.924   1.076 -1.8188  1.1670  0.5779
 2885TIP3   OH232849   2.256   3.687   9.601  0.0342 -0.6266 -0.2700
 2885TIP3    H132850   2.259   3.623   9.529 -0.4982  0.1423 -1.0022
 2885TIP3    H232851   2.186   3.655   9.658  0.6844 -1.4261  0.0927
 2886TIP3   OH232852   3.082   5.053   0.539  0.7065  0.0089 -0.7059
 2886TIP3    H132853   2.995   5.079   0.569  0.2233 -1.2713 -0.9243
 2886TIP3    H232854   3.136   5.052   0.618  0.0069 -1.1613 -0.2247
 2887TIP3   OH232855   0.152   6.501   7.243  0.0598 -0.2587  0.4277
 2887TIP3    H132856   0.232   6.447   7.241 -0.6358 -1.4152  1.7627
 2887TIP3    H232857   0.112   6.481   7.328 -1.1380  1.0741  0.2154
 2888TIP3   OH232858   7.143   1.474   1.397 -0.9983  0.2888  0.4310
 2888TIP3    H132859   7.212   1.443   1.338  0.8454  0.6761  2.2851
 2888TIP3    H232860   7.066   1.423   1.371  0.0026 -0.3461 -1.5480
 2889TIP3   OH232861   1.511   3.625   8.143 -0.2761  0.2132 -0.9201
 2889TIP3    H132862   1.550   3.541   8.122 -0.5251 -0.2241  0.2734
 2889TIP3    H232863   1.518   3.631   8.239  0.5190  1.9238 -1.0505
 2890TIP3   OH232864   4.580   0.811   7.409  0.2270 -0.3120  0.7016
 2890TIP3    H132865   4.605   0.873   7.477 -0.9474  0.4605  0.4598
 2890TIP3    H232866   4.492   0.838   7.383  0.9982 -0.0192 -1.8035
 2891TIP3   OH232867   7.041   4.146   9.666  0.0242  0.3528 -0.2958
 2891TIP3    H132868   6.992   4.070   9.635  0.9905 -0.7422  0.7710
 2891TIP3    H232869   6.990   4.221   9.635 -0.7773 -0.7048 -1.6615
 2892TIP3   OH232870   0.235   2.539   9.083  0.0195 -0.2861  0.6306
 2892TIP3    H132871   0.179   2.593   9.027  0.0242  0.5165  1.3870
 2892TIP3    H232872   0.324   2.561   9.055 -0.0006 -1.4029 -0.4234
 2893TIP3   OH232873   1.035   6.606   7.268 -0.3130 -0.0414 -0.4026
 2893TIP3    H132874   0.952   6.559   7.278 -0.2847 -0.9035 -3.3672
 2893TIP3    H232875   1.013   6.684   7.217  0.4674  0.5568  0.1557
 2894TIP3   OH232876   2.437   1.293   9.104 -0.1294  0.2535 -0.1641
 2894TIP3    H132877   2.462   1.227   9.039  1.3371 -0.3581  0.9631
 2894TIP3    H232878   2.519   1.315   9.148 -0.7496  2.1864  0.1025
 2895TIP3   OH232879   2.500   5.190   6.899 -0.0671 -0.2969  0.0236
 2895TIP3    H132880   2.540   5.152   6.821  0.3972 -1.0091  0.5893
 2895TIP3    H232881   2.425   5.239   6.867  0.9026  0.5664 -1.0175
 2896TIP3   OH232882   2.344   7.104   8.226 -0.4820 -0.1120 -0.3682
 2896TIP3    H132883   2.439   7.099   8.217 -0.7090 -0.8258 -3.0282
 2896TIP3    H232884   2.323   7.197   8.215 -0.1346  0.0431  0.2078
 2897TIP3   OH232885   3.731   2.685   1.887 -0.6657 -0.0291 -0.2668
 2897TIP3    H132886   3.797   2.751   1.868 -0.8324 -0.1874 -1.4527
 2897TIP3    H232887   3.712   2.644   1.803 -2.8921  0.5759 -0.1211
 2898TIP3   OH232888   4.217   0.747   9.602 -0.9665  0.4329 -0.6953
 2898TIP3    H132889   4.140   0.717   9.652  0.8801 -4.0592 -0.0813
 2898TIP3    H232890   4.271   0.793   9.666 -0.3551 -1.9863  0.6477
 2899TIP3   OH232891   0.965   6.661   9.254  0.5103  0.0146  0.8641
 2899TIP3    H132892   0.975   6.701   9.167  1.9532  0.2926  1.1354
 2899TIP3    H232893   1.036   6.597   9.259 -0.4200 -1.0173  1.3117
 2900TIP3   OH232894   1.669   5.969   3.278 -0.1439  0.2151 -0.3122
 2900TIP3    H132895   1.639   5.948   3.367  0.6344 -0.1871 -0.1342
 2900TIP3    H232896   1.695   5.884   3.242 -3.7125 -0.2399 -2.2284
 2901TIP3   OH232897   2.118   2.193   9.297 -0.1186 -0.5793 -0.0706
 2901TIP3    H132898   2.199   2.243   9.307 -1.5477  1.9728 -0.4686
 2901TIP3    H232899   2.146   2.108   9.261  2.1648  1.1657 -2.7938
 2902TIP3   OH232900   1.491   4.358   8.915  0.0134  0.3691 -0.5381
 2902TIP3    H132901   1.485   4.333   8.823  1.1326 -0.8863 -0.3035
 2902TIP3    H232902   1.571   4.315   8.947  1.5075  3.4378  0.2124
 2903TIP3   OH232903   7.197   4.311   0.233 -0.1668  0.6504 -0.3574
 2903TIP3    H132904   7.242   4.357   0.163 -0.0443 -0.1658 -0.8370
 2903TIP3    H232905   7.195   4.219   0.204  1.6506 -0.0924  1.5744
 2904TIP3   OH232906   0.906   3.147   2.732 -0.0790  0.1852  0.4290
 2904TIP3    H132907   0.979   3.086   2.735 -1.0881 -1.1264 -0.7263
 2904TIP3    H232908   0.854   3.126   2.810  0.3376  0.5972  0.8290
 2905TIP3   OH232909   7.142   6.846   9.121 -0.5106  0.0310  0.7350
 2905TIP3    H132910   7.186   6.894   9.191 -0.0689 -0.6004  0.8932
 2905TIP3    H232911   7.101   6.772   9.164 -0.5681 -0.1439  0.3833
 2906TIP3   OH232912   3.707   3.880   0.799 -0.2642  0.4452  0.0685
 2906TIP3    H132913   3.653   3.871   0.720  0.4842 -0.9769 -0.3339
 2906TIP3    H232914   3.652   3.925   0.862 -1.9430 -0.9461 -0.3281
 2907TIP3   OH232915   4.367   7.676   0.922  0.5370  0.3506 -0.2933
 2907TIP3    H132916   4.371   7.770   0.905 -0.5259  0.2627 -1.1502
 2907TIP3    H232917   4.387   7.668   1.015 -0.8434  1.5962  0.1603
 2908TIP3   OH232918   1.048   6.347   1.309  0.6385  0.3136 -0.0546
 2908TIP3    H132919   0.956   6.365   1.288  0.6446  0.2128 -0.1709
 2908TIP3    H232920   1.066   6.401   1.386  0.6332  0.7394 -0.3449
 2909TIP3   OH232921   5.463   0.099   9.816 -0.3610 -0.4106  0.2246
 2909TIP3    H132922   5.528   0.155   9.858 -1.2990  0.1031  1.0404
 2909TIP3    H232923   5.509   0.016   9.802  1.2586  0.7217 -1.6488
 2910TIP3   OH232924   4.885   0.748   1.008 -0.2038  0.2289 -0.0715
 2910TIP3    H132925   4.796   0.718   0.989 -0.1688  0.9153 -1.4607
 2910TIP3    H232926   4.880   0.843   0.998  0.9211  0.1816 -1.3494
 2911TIP3   OH232927   0.482   2.029   2.768 -0.3632 -0.3068  0.1364
 2911TIP3    H132928   0.503   2.115   2.732  1.5429 -0.6922  0.2413
 2911TIP3    H232929   0.398   2.007   2.728  0.3100  0.5096 -1.8601
 2912TIP3   OH232930   0.944   4.707   9.682 -1.1112  0.2084 -0.1331
 2912TIP3    H132931   1.024   4.691   9.633 -0.7557  1.1765  0.1040
 2912TIP3    H232932   0.912   4.620   9.707  0.1714 -0.1555  0.2792
 2913TIP3   OH232933   6.141   2.239   1.506 -0.2791 -0.2957 -0.1770
 2913TIP3    H132934   6.153   2.147   1.483  1.0498 -0.1498 -0.1377
 2913TIP3    H232935   6.188   2.250   1.589  0.3737  0.6097 -0.6445
 2914TIP3   OH232936   3.771   0.625   1.009  0.2194 -0.0872 -0.5653
 2914TIP3    H132937   3.725   0.637   1.092 -0.0442  0.4724 -0.7812
 2914TIP3    H232938   3.727   0.551   0.967 -0.5091  0.4462 -0.7724
 2915TIP3   OH232939   2.861   4.365   9.742 -0.4154 -0.0146 -0.3557
 2915TIP3    H132940   2.902   4.318   9.669  3.7968  1.4912  0.7283
 2915TIP3    H232941   2.885   4.314   9.819 -1.7447  0.3161  0.3065
 2916TIP3   OH232942   1.501   6.965   2.762 -0.5416  0.2905  0.2090
 2916TIP3    H132943   1.427   6.936   2.707 -0.5596  0.9367 -0.1156
 2916TIP3    H232944   1.466   7.039   2.811 -0.3469  0.0828  0.6652
 2917TIP3   OH232945   2.609   7.136   0.390  0.2638 -0.6848  0.4737
 2917TIP3    H132946   2.563   7.082   0.453 -0.2831  0.5072  1.1241
 2917TIP3    H232947   2.567   7.222   0.395  2.4505  0.4389  1.0180
 2918TIP3   OH232948   6.915   2.754   1.952  0.0835 -0.4327 -0.6592
 2918TIP3    H132949   6.833   2.800   1.966 -0.3828 -0.2333 -3.6005
 2918TIP3    H232950   6.898   2.665   1.984 -0.2089  0.3665  1.5702
 2919TIP3   OH232951   2.405   7.111   2.611 -0.3220  0.3909 -0.4275
 2919TIP3    H132952   2.457   7.178   2.567 -0.6045 -0.0929 -1.5577
 2919TIP3    H232953   2.350   7.159   2.672  0.6269  1.0150 -0.0383
 2920TIP3   OH232954   4.243   5.419   9.496 -0.3301  0.3617 -0.5220
 2920TIP3    H132955   4.314   5.474   9.529  0.2132 -1.0548  0.7681
 2920TIP3    H232956   4.186   5.480   9.449  0.9955  1.7696 -0.3820
 2921TIP3   OH232957   1.522   2.501   0.398 -0.2905 -0.0514  0.0177
 2921TIP3    H132958   1.493   2.412   0.379 -1.3463 -0.2502  2.2753
 2921TIP3    H232959   1.442   2.549   0.420  0.5998  0.2952  2.9734
 2922TIP3   OH232960   1.989   6.584   8.569  0.7291  0.2145  0.2121
 2922TIP3    H132961   2.036   6.668   8.577 -1.5896  1.8426 -1.6982
 2922TIP3    H232962   1.937   6.578   8.648 -0.1133  1.3180 -0.2333
 2923TIP3   OH232963   4.023   6.394   8.551 -0.2568 -0.1877  0.2249
 2923TIP3    H132964   3.977   6.473   8.580  1.6841  1.0943  0.0092
 2923TIP3    H232965   4.048   6.350   8.633 -2.7405 -1.5316  0.3586
 2924TIP3   OH232966   2.388   3.364   2.014  0.1156 -0.1394 -0.1356
 2924TIP3    H132967   2.432   3.450   2.012 -0.5256  0.3133  2.0605
 2924TIP3    H232968   2.307   3.380   2.063 -1.0721 -1.5921 -1.5188
 2925TIP3   OH232969   2.177   0.228   2.616 -0.0893 -0.1018 -0.5493
 2925TIP3    H132970   2.211   0.269   2.696  1.2445 -2.8374  0.4484
 2925TIP3    H232971   2.102   0.177   2.646 -1.4705  1.1809 -1.6738
 2926TIP3   OH232972   2.948   1.880   7.519 -0.1262  0.3446  0.1818
 2926TIP3    H132973   2.877   1.855   7.579 -0.9710  0.4225 -0.7577
 2926TIP3    H232974   2.931   1.829   7.440  0.9213  0.3179 -0.0353
 2927TIP3   OH232975   2.724   0.183   8.558 -0.0524  0.1111 -0.3220
 2927TIP3    H132976   2.731   0.263   8.507 -1.6668  0.4818 -0.0202
 2927TIP3    H232977   2.630   0.169   8.568  0.1724  0.1043  2.6033
 2928TIP3   OH232978   2.306   1.075   2.014 -0.2268 -0.4712  0.2442
 2928TIP3    H132979   2.243   1.063   2.085 -2.0360  0.4680 -1.1061
 2928TIP3    H232980   2.253   1.068   1.934  0.5167  4.2018 -0.9531
 2929TIP3   OH232981   3.357   0.062   9.676 -0.4135 -0.2818 -0.4792
 2929TIP3    H132982   3.354   0.143   9.625  0.5259 -0.0038 -0.1115
 2929TIP3    H232983   3.272   0.021   9.660 -0.1923 -0.1714 -2.2261
 2930TIP3   OH232984   2.626   2.130   1.616 -0.5095 -0.0060  0.3199
 2930TIP3    H132985   2.704   2.094   1.573 -0.6826 -1.1156  0.8887
 2930TIP3    H232986   2.658   2.205   1.665  0.0631  0.0185 -0.0856
 2931TIP3   OH232987   0.839   7.245   0.809  0.2797 -0.4482  0.6238
 2931TIP3    H132988   0.922   7.289   0.829  0.3073 -1.6884  3.7814
 2931TIP3    H232989   0.826   7.260   0.716  3.0657  1.4383  0.4212
 2932TIP3   OH232990   1.024   2.396   1.777 -0.2113  0.2077 -0.2250
 2932TIP3    H132991   1.107   2.348   1.771 -0.4462 -0.2348  0.0326
 2932TIP3    H232992   1.034   2.468   1.715  0.5587  0.4433  0.1492
 2933TIP3   OH232993   4.402   5.845   9.170  0.0058  0.2663 -0.3513
 2933TIP3    H132994   4.447   5.912   9.222 -0.1481 -0.6553  1.0500
 2933TIP3    H232995   4.426   5.762   9.213  0.1950 -0.5777 -2.0322
 2934TIP3   OH232996   0.808   6.188   1.925  0.3855 -0.2597 -0.2551
 2934TIP3    H132997   0.726   6.214   1.883 -0.2562 -1.6751  0.0741
 2934TIP3    H232998   0.840   6.269   1.966  0.3724  0.8531 -2.3198
 2935TIP3   OH232999   4.164   4.458   1.036 -0.3654 -0.4799 -0.5835
 2935TIP3    H133000   4.240   4.432   1.087 -0.9262 -1.5040 -0.2478
 2935TIP3    H233001   4.089   4.434   1.090 -0.9400 -0.2780 -1.2748
 2936TIP3   OH233002   2.313   1.259   0.839 -0.4542  0.0902  0.2103
 2936TIP3    H133003   2.375   1.309   0.785  0.3460 -1.6340 -0.5565
 2936TIP3    H233004   2.253   1.219   0.775 -0.3504 -0.8590  0.6845
 2937TIP3   OH233005   7.199   4.112   0.474  0.4133 -0.6646  0.1214
 2937TIP3    H133006   7.226   4.123   0.383 -1.3273  0.0708 -0.3473
 2937TIP3    H233007   7.280   4.093   0.521  1.8375  1.8759 -1.0962
 2938TIP3   OH233008   5.374   3.449   7.669 -0.0917  0.1033  0.0976
 2938TIP3    H133009   5.366   3.439   7.574  0.3976 -0.9718  0.1529
 2938TIP3    H233010   5.313   3.519   7.691  0.2429  0.7914 -1.0867
 2939TIP3   OH233011   4.102   5.830   8.022  0.3300  0.0878 -0.5171
 2939TIP3    H133012   4.057   5.812   8.105  0.5856 -2.0896 -0.7885
 2939TIP3    H233013   4.168   5.895   8.044 -1.2466  1.4515  0.4298
 2940TIP3   OH233014   2.687   0.899   0.331  1.1402  0.1324  0.2193
 2940TIP3    H133015   2.600   0.924   0.300  1.8017  0.9543 -1.0886
 2940TIP3    H233016   2.689   0.925   0.423 -0.8423 -2.1938  1.0272
 2941TIP3   OH233017   1.349   1.921   1.983 -0.4259  0.0237  0.1537
 2941TIP3    H133018   1.397   1.937   2.064  1.3919 -1.3376 -0.5746
 2941TIP3    H233019   1.278   1.984   1.984 -0.1127  0.4307  2.5195
 2942TIP3   OH233020   2.889   3.758   6.688  0.0971 -0.1686  0.1897
 2942TIP3    H133021   2.879   3.823   6.758 -1.1735 -0.0448 -0.0755
 2942TIP3    H233022   2.803   3.717   6.682 -0.1918  0.6146 -2.0824
 2943TIP3   OH233023   2.585   0.265   1.520  0.5302 -0.3937  0.1790
 2943TIP3    H133024   2.674   0.283   1.491  0.1159 -0.5964 -1.3617
 2943TIP3    H233025   2.534   0.341   1.492  0.1680 -0.4087  0.7747
 2944TIP3   OH233026   2.131   7.582   9.010  0.1464  0.2789 -0.7887
 2944TIP3    H133027   2.224   7.567   9.026 -0.2653 -0.5907  0.9581
 2944TIP3    H233028   2.129   7.655   8.948  1.9650  1.1825  0.1447
 2945TIP3   OH233029   5.750   5.362   1.787 -0.7696 -0.0450  0.1114
 2945TIP3    H133030   5.801   5.351   1.867 -1.1001  1.5935  0.5859
 2945TIP3    H233031   5.660   5.338   1.813 -0.7125 -0.4038 -0.0200
 2946TIP3   OH233032   7.040   3.454   8.655 -0.6841 -0.0344 -0.3449
 2946TIP3    H133033   6.981   3.471   8.728 -1.4866  0.4197 -1.0775
 2946TIP3    H233034   7.064   3.362   8.663  2.9995  0.9182  3.2067
 2947TIP3   OH233035   4.911   0.718   9.552  0.4936  0.0421 -0.0304
 2947TIP3    H133036   4.831   0.724   9.500  1.4888 -0.4547 -1.7116
 2947TIP3    H233037   4.939   0.627   9.541  1.5069  0.3217  0.1950
 2948TIP3   OH233038   4.705   1.410   0.989 -0.0092  0.5572  0.6153
 2948TIP3    H133039   4.611   1.392   0.979  0.5701 -2.7048 -0.2148
 2948TIP3    H233040   4.728   1.367   1.072  1.2006 -1.3448 -0.6164
 2949TIP3   OH233041   1.886   7.294   1.212  0.6240 -0.2034 -0.0651
 2949TIP3    H133042   1.893   7.239   1.134  1.4648 -0.7380  0.3705
 2949TIP3    H233043   1.964   7.272   1.264 -0.4075 -0.5865  1.3777
 2950TIP3   OH233044   2.943   4.366   8.846  0.7677  0.0776 -0.4691
 2950TIP3    H133045   2.849   4.350   8.840  1.0474 -2.3787  0.4030
 2950TIP3    H233046   2.982   4.279   8.855  3.0108  1.0983  0.7638
 2951TIP3   OH233047   5.400   5.457   9.975 -0.8626 -0.3521  0.1569
 2951TIP3    H133048   5.333   5.502   9.924 -1.0773 -0.9535 -0.0975
 2951TIP3    H233049   5.474   5.517   9.975 -1.1579  0.0166 -0.1488
 2952TIP3   OH233050   5.859   0.484   9.426 -0.1615  0.0678  0.6009
 2952TIP3    H133051   5.809   0.403   9.422 -1.9996  1.2030 -0.8462
 2952TIP3    H233052   5.949   0.456   9.444 -0.7686 -2.2468  0.2975
 2953TIP3   OH233053   4.254   4.435   9.798  0.3400  0.3077  0.8016
 2953TIP3    H133054   4.256   4.422   9.893 -0.1802  1.6175  1.0111
 2953TIP3    H233055   4.193   4.369   9.767 -1.1214  1.2109  1.6457
 2954TIP3   OH233056   7.494   0.275   2.111 -0.3436  0.0952 -0.9491
 2954TIP3    H133057   7.414   0.320   2.136 -0.7478  0.3480 -2.5981
 2954TIP3    H233058   7.498   0.198   2.168 -1.4890  0.3507 -0.5124
 2955TIP3   OH233059   1.169   7.393   6.767  0.2137  0.5091 -0.2363
 2955TIP3    H133060   1.136   7.303   6.772 -0.4132  0.5871 -2.0273
 2955TIP3    H233061   1.120   7.440   6.835  0.2111 -0.4070  0.4086
 2956TIP3   OH233062   3.955   4.725   8.069 -0.7347 -0.3635  0.6699
 2956TIP3    H133063   3.873   4.745   8.024 -0.1998 -2.0219 -1.1661
 2956TIP3    H233064   3.964   4.630   8.061  1.0470 -0.2871  1.4179
 2957TIP3   OH233065   5.181   2.434   0.565 -0.1119 -0.0900  0.1791
 2957TIP3    H133066   5.094   2.472   0.578 -1.2175 -2.8095  1.5092
 2957TIP3    H233067   5.170   2.375   0.490  1.3559  1.4839 -1.3616
 2958TIP3   OH233068   5.182   2.481   8.665 -0.4755  0.2495  0.7998
 2958TIP3    H133069   5.267   2.483   8.709 -0.6094  1.9380  1.0422
 2958TIP3    H233070   5.169   2.389   8.642  1.1122 -0.1388  1.3392
 2959TIP3   OH233071   0.005   2.974   9.998 -0.2238  0.4788 -0.2955
 2959TIP3    H133072   0.001   2.880  10.012 -1.3538  0.5292 -0.2390
 2959TIP3    H233073   0.056   2.984   9.917 -0.2362 -0.1773 -0.3900
 2960TIP3   OH233074   4.102   1.952   8.692 -0.0293  0.2601  0.3403
 2960TIP3    H133075   4.064   2.031   8.654  0.1055  0.6653  1.0338
 2960TIP3    H233076   4.125   1.898   8.617  0.1255  0.9983 -0.1564
 2961TIP3   OH233077   1.055   6.745   8.735 -0.0612 -0.1240 -0.9572
 2961TIP3    H133078   0.988   6.806   8.705 -1.3900 -0.5494  0.9742
 2961TIP3    H233079   1.131   6.800   8.755 -0.2802  0.5223 -1.8472
 2962TIP3   OH233080   4.973   0.075   9.266  0.5601  0.0834 -0.0231
 2962TIP3    H133081   5.039   0.005   9.263  0.5377 -0.0707  1.8301
 2962TIP3    H233082   5.009   0.139   9.326  0.3958  1.5341 -1.4111
 2963TIP3   OH233083   4.777   4.578   7.767  0.2407  0.2553  0.9333
 2963TIP3    H133084   4.731   4.589   7.850 -1.8141  1.6378 -0.2629
 2963TIP3    H233085   4.772   4.665   7.726  3.6418  0.3576  0.4844
 2964TIP3   OH233086   3.282   6.386   9.197  0.6582  0.3322 -0.0725
 2964TIP3    H133087   3.337   6.450   9.244  1.2145 -0.4887  0.4140
 2964TIP3    H233088   3.309   6.393   9.106 -0.5573  2.0767 -0.3532
 2965TIP3   OH233089   6.732   3.451   0.651 -0.0728  0.0197 -0.3171
 2965TIP3    H133090   6.684   3.383   0.603  1.0522 -1.6201  0.7844
 2965TIP3    H233091   6.808   3.405   0.689  0.9574  1.9817  0.1345
 2966TIP3   OH233092   4.580   6.883   8.426 -0.2035 -0.2129 -0.3857
 2966TIP3    H133093   4.646   6.920   8.367  0.5750 -1.3296 -0.2520
 2966TIP3    H233094   4.632   6.843   8.497 -1.1053  1.4614  1.3227
 2967TIP3   OH233095   2.330   1.843   9.457  0.0727 -0.1524  0.1215
 2967TIP3    H133096   2.289   1.879   9.378 -0.0262  1.4242  0.8549
 2967TIP3    H233097   2.416   1.813   9.428 -0.6254 -1.2306 -0.9275
 2968TIP3   OH233098   3.606   5.210   1.031 -0.6520  0.4704 -0.1698
 2968TIP3    H133099   3.584   5.171   0.947 -0.4332 -0.1926  0.0729
 2968TIP3    H233100   3.618   5.135   1.090  1.1052  0.8402 -0.0179
 2969TIP3   OH233101   6.463   6.515   0.851 -0.1864 -0.1553  0.1977
 2969TIP3    H133102   6.507   6.534   0.769 -0.0320 -0.5878  0.1823
 2969TIP3    H233103   6.494   6.429   0.876 -2.2718 -1.2242 -0.6634
 2970TIP3   OH233104   7.394   3.710   9.817  0.2432  0.0325  0.2491
 2970TIP3    H133105   7.451   3.733   9.744  0.2866  0.2005  0.3352
 2970TIP3    H233106   7.392   3.615   9.817  0.2576  0.0312  0.0395
 2971TIP3   OH233107   4.602   7.300   9.182  0.1161  0.0758 -0.1459
 2971TIP3    H133108   4.644   7.384   9.197 -0.3854  0.3576 -0.3082
 2971TIP3    H233109   4.624   7.247   9.259 -0.0843  0.5581  0.2440
 2972TIP3   OH233110   6.623   2.585   7.723  0.3085 -0.2617  0.3291
 2972TIP3    H133111   6.710   2.589   7.763  0.1714 -0.4946  0.6553
 2972TIP3    H233112   6.637   2.536   7.642  0.2244 -1.5811  1.0960
 2973TIP3   OH233113   2.645   6.288   8.056 -0.0193 -0.4023 -0.4966
 2973TIP3    H133114   2.568   6.244   8.022  0.1240 -0.1104 -1.2256
 2973TIP3    H233115   2.671   6.236   8.132 -1.3886 -0.0486  0.2483
 2974TIP3   OH233116   3.508   0.514   7.463  0.7678  0.0446 -0.2042
 2974TIP3    H133117   3.508   0.474   7.550 -0.8400 -0.5043 -0.4146
 2974TIP3    H233118   3.475   0.445   7.405 -0.4683  1.1207 -0.8445
 2975TIP3   OH233119   1.423   7.091   2.132 -0.1646  0.3471  0.2770
 2975TIP3    H133120   1.352   7.048   2.085  0.6457 -1.0244  0.2665
 2975TIP3    H233121   1.503   7.058   2.091  0.5014  1.2207  0.8316
 2976TIP3   OH233122   3.370   5.848   7.009  0.3889  0.0820  0.6732
 2976TIP3    H133123   3.320   5.770   6.983  1.7187 -0.9970  1.2170
 2976TIP3    H233124   3.369   5.904   6.931 -1.3508 -0.0336  0.5673
 2977TIP3   OH233125   1.693   5.623   1.726  0.1531  0.3571  0.6021
 2977TIP3    H133126   1.634   5.592   1.795 -0.0415 -3.2216 -0.9419
 2977TIP3    H233127   1.635   5.638   1.651  0.8922 -0.9200 -0.2505
 2978TIP3   OH233128   2.219   2.810   8.078  0.0215 -0.2767 -0.0082
 2978TIP3    H133129   2.186   2.721   8.073  0.8372 -0.5691 -0.4453
 2978TIP3    H233130   2.154   2.863   8.031  0.6719 -0.9953 -1.8297
 2979TIP3   OH233131   2.098   2.417   9.729  0.2777  0.0034  0.0386
 2979TIP3    H133132   2.024   2.444   9.784 -0.6568  0.8969 -1.5927
 2979TIP3    H233133   2.064   2.345   9.677  0.9070 -0.3029  0.0449
 2980TIP3   OH233134   2.086   1.090   9.656 -0.1994 -0.0731  0.0466
 2980TIP3    H133135   2.064   1.104   9.564  2.6913 -1.7620 -1.0565
 2980TIP3    H233136   2.038   1.012   9.681  0.8327 -1.0397 -0.8656
 2981TIP3   OH233137   2.422   7.389   2.066  0.2826 -0.4872 -0.0636
 2981TIP3    H133138   2.393   7.300   2.083  1.8494 -0.8078  1.1850
 2981TIP3    H233139   2.497   7.379   2.007  1.6781 -0.2111  1.5658
 2982TIP3   OH233140   2.170   5.801   9.038 -0.0398  0.7060 -0.5763
 2982TIP3    H133141   2.177   5.739   9.110  0.2799 -1.9814 -2.7727
 2982TIP3    H233142   2.211   5.757   8.964  1.0516  3.9590 -2.0965
 2983TIP3   OH233143   0.952   2.989   0.796 -0.3108 -0.3192 -0.5567
 2983TIP3    H133144   0.871   3.022   0.756  0.6416  1.5086 -1.0889
 2983TIP3    H233145   0.996   2.943   0.724  0.9669  2.1796 -1.5002
 2984TIP3   OH233146   3.509   5.341   2.309 -0.6831 -0.2592  0.4774
 2984TIP3    H133147   3.508   5.422   2.359 -0.0728  0.0094  0.0783
 2984TIP3    H233148   3.517   5.271   2.374 -1.8269 -0.0435  0.8599
 2985TIP3   OH233149   4.082   6.935   1.415  0.7454  0.9498 -0.6782
 2985TIP3    H133150   4.013   6.871   1.436  1.1879  1.0209  1.1974
 2985TIP3    H233151   4.160   6.900   1.457  1.4760  1.7098 -1.3802
 2986TIP3   OH233152   6.842   3.092   8.804  0.7397 -0.2122 -0.0419
 2986TIP3    H133153   6.776   3.025   8.789 -0.1323  0.2293  1.5177
 2986TIP3    H233154   6.860   3.128   8.717 -2.4932  0.9304 -0.3977
 2987TIP3   OH233155   3.234   2.100   9.505 -0.2641 -0.1568  0.2140
 2987TIP3    H133156   3.163   2.162   9.519  1.0388  1.0857  1.7400
 2987TIP3    H233157   3.304   2.130   9.564  1.6575 -1.1005 -1.4625
 2988TIP3   OH233158   2.244   0.829   7.705 -0.5233 -0.6103 -0.0585
 2988TIP3    H133159   2.319   0.772   7.721 -1.0289 -1.0789  0.6717
 2988TIP3    H233160   2.238   0.833   7.609 -0.7802 -2.1844 -0.1228
 2989TIP3   OH233161   0.332   6.212   8.345  0.4005 -0.6450 -0.0416
 2989TIP3    H133162   0.357   6.188   8.255  0.3121  0.0610 -0.2586
 2989TIP3    H233163   0.242   6.180   8.353 -0.0711  0.4770 -0.6703
 2990TIP3   OH233164   4.210   3.139   9.533  0.0340  0.4644 -0.8117
 2990TIP3    H133165   4.220   3.234   9.535  1.7075  0.2967  0.0625
 2990TIP3    H233166   4.181   3.121   9.443 -2.0767  1.9112 -0.4999
 2991TIP3   OH233167   3.129   3.787   8.666  0.4193  0.0734  0.0830
 2991TIP3    H133168   3.109   3.697   8.693 -0.0941 -0.1564 -1.0380
 2991TIP3    H233169   3.213   3.806   8.708  1.1459 -1.3675 -0.6665
 2992TIP3   OH233170   5.421   2.552   0.526  0.0438 -0.5661 -0.0545
 2992TIP3    H133171   5.344   2.496   0.536 -1.3622  1.4334  0.8657
 2992TIP3    H233172   5.397   2.634   0.568  2.4486  0.3783 -0.3648
 2993TIP3   OH233173   3.961   7.019   8.303  0.5016 -0.1005 -0.4410
 2993TIP3    H133174   3.994   6.933   8.276 -1.2543 -0.8552 -0.2951
 2993TIP3    H233175   3.923   7.056   8.223 -0.2980 -0.2283 -0.1334
 2994TIP3   OH233176   6.621   4.620   8.606  1.3504  0.5086  0.0209
 2994TIP3    H133177   6.566   4.559   8.654  1.0190 -0.6909 -1.7830
 2994TIP3    H233178   6.696   4.636   8.664 -0.4246  1.5370  2.1796
 2995TIP3   OH233179   4.394   7.615   2.088  0.1764 -0.1665  0.3462
 2995TIP3    H133180   4.378   7.653   2.175 -2.7762  3.7869 -1.6302
 2995TIP3    H233181   4.339   7.536   2.087 -1.9373  1.1909  1.2709
 2996TIP3   OH233182   2.218   4.143   0.126 -0.0344  0.1556  0.1014
 2996TIP3    H133183   2.157   4.199   0.078 -1.8079 -0.5071  1.4409
 2996TIP3    H233184   2.171   4.060   0.136  1.4340 -0.6638  0.4905
 2997TIP3   OH233185   1.131   6.840   0.710 -0.4637  0.3414  0.4362
 2997TIP3    H133186   1.136   6.864   0.618 -0.4047  0.1288  0.3825
 2997TIP3    H233187   1.118   6.745   0.709 -0.4038  0.3298  0.6481
 2998TIP3   OH233188   6.517   3.406   1.235  0.0823  0.1004 -0.0986
 2998TIP3    H133189   6.609   3.433   1.243  0.6787 -1.4805 -1.0251
 2998TIP3    H233190   6.511   3.327   1.290 -0.4844 -0.3230 -0.7538
 2999TIP3   OH233191   2.696   1.392   9.237 -1.1812  0.1552  0.4289
 2999TIP3    H133192   2.767   1.379   9.175 -0.7197  2.1774  0.4609
 2999TIP3    H233193   2.712   1.329   9.307 -0.6081 -0.8167 -0.5580
 3000TIP3   OH233194   6.486   3.113   1.253 -0.3680 -0.4762  0.2593
 3000TIP3    H133195   6.547   3.138   1.323  0.5449 -1.1962 -0.2581
 3000TIP3    H233196   6.460   3.024   1.275  1.0620 -1.2635 -1.0523
 3001TIP3   OH233197   2.003   1.177   7.570 -0.2728  0.2768 -0.3309
 3001TIP3    H133198   2.028   1.111   7.504  0.7103  1.1488 -0.8594
 3001TIP3    H233199   2.073   1.173   7.635 -1.8577 -1.4601  1.3999
 3002TIP3   OH233200   2.306   5.341   2.194  0.1990 -0.3310  0.9963
 3002TIP3    H133201   2.370   5.340   2.265  0.5143 -0.3348  0.7157
 3002TIP3    H233202   2.359   5.346   2.114 -0.1578  3.9523  0.7887
 3003TIP3   OH233203   0.931   2.449   0.089  0.4191  0.2824 -0.2346
 3003TIP3    H133204   0.998   2.383   0.074 -0.2918 -0.6912  0.7451
 3003TIP3    H233205   0.977   2.533   0.082  1.5499 -0.3470 -0.4249
 3004TIP3   OH233206   3.365   4.363   8.583  0.4315  0.2523 -0.1929
 3004TIP3    H133207   3.321   4.414   8.652  0.9080  2.4271 -1.3905
 3004TIP3    H233208   3.409   4.293   8.630 -1.5378 -0.0317  1.4017
 3005TIP3   OH233209   5.999   5.576   9.111 -0.0021  0.1706 -0.3124
 3005TIP3    H133210   5.916   5.530   9.124  0.3223 -0.2498  0.2790
 3005TIP3    H233211   6.045   5.524   9.045  0.1403 -0.0477 -0.0381
 3006TIP3   OH233212   0.071   6.009   0.645  0.0362 -0.5251 -0.1085
 3006TIP3    H133213   0.109   6.032   0.730  0.2805 -0.5572 -0.2065
 3006TIP3    H233214   0.147   5.995   0.588 -0.0944 -1.7497 -0.0069
 3007TIP3   OH233215   5.482   1.508   2.048 -0.0866  0.0803 -0.1128
 3007TIP3    H133216   5.576   1.521   2.059 -0.1664  2.3752 -1.4002
 3007TIP3    H233217   5.458   1.443   2.114  2.1368  0.6209  1.3173
 3008TIP3   OH233218   1.632   4.710   2.547  1.0985 -0.4164 -0.5210
 3008TIP3    H133219   1.717   4.683   2.584  1.6995  0.4708 -1.2096
 3008TIP3    H233220   1.569   4.693   2.617  1.9982 -0.1199  0.3919
 3009TIP3   OH233221   4.298   7.272   0.371  0.1866 -0.1598  0.1783
 3009TIP3    H133222   4.319   7.329   0.297 -3.5531  0.3239 -0.7389
 3009TIP3    H233223   4.243   7.204   0.333 -0.9178 -0.5388  2.3074
 3010TIP3   OH233224   2.709   2.313   8.391 -0.1933  0.3146 -0.3530
 3010TIP3    H133225   2.681   2.222   8.402  0.0417  0.5028  2.5837
 3010TIP3    H233226   2.634   2.365   8.418 -0.0109  1.0154 -1.1486
 3011TIP3   OH233227   2.480   2.730   6.906 -0.7566  0.0678  0.6248
 3011TIP3    H133228   2.399   2.777   6.925 -0.0513  1.1492  1.0904
 3011TIP3    H233229   2.469   2.697   6.817 -1.0454  1.6853  0.0206
 3012TIP3   OH233230   5.973   5.403   0.042 -0.2804  0.0395 -0.0290
 3012TIP3    H133231   5.882   5.428   0.058 -1.1107 -1.6323 -1.7635
 3012TIP3    H233232   5.979   5.313   0.075  1.1945  0.6116  1.4140
 3013TIP3   OH233233   2.384   5.983   8.985  0.1047  0.1893  0.3327
 3013TIP3    H133234   2.295   5.962   9.014  0.2072  0.6188  0.9745
 3013TIP3    H233235   2.376   6.069   8.944  0.0764 -0.1408 -0.3630
 3014TIP3   OH233236   1.953   0.209   8.612  0.3313  0.5371 -0.1325
 3014TIP3    H133237   1.949   0.286   8.669 -0.2161  1.4138 -1.3063
 3014TIP3    H233238   1.982   0.243   8.527  1.4577 -0.7862 -0.3143
 3015TIP3   OH233239   1.894   4.902   2.641 -0.2811  0.1545 -0.3737
 3015TIP3    H133240   1.969   4.960   2.626 -0.0150 -0.1820 -0.3390
 3015TIP3    H233241   1.911   4.862   2.726 -0.4352 -0.0264 -0.4288
 3016TIP3   OH233242   1.457   7.418   6.733 -0.5102  0.5094  0.1910
 3016TIP3    H133243   1.363   7.407   6.744 -0.2968 -0.5775  1.2694
 3016TIP3    H233244   1.494   7.381   6.814  0.9364 -1.0109 -1.1041
 3017TIP3   OH233245   0.404   5.362   1.040 -0.6938  0.2716 -0.1932
 3017TIP3    H133246   0.334   5.320   0.990 -1.1963 -1.1565  1.5786
 3017TIP3    H233247   0.364   5.440   1.077 -0.6111  0.7767 -1.1241
 3018TIP3   OH233248   2.942   4.577   1.178 -0.3924 -0.3203 -0.1858
 3018TIP3    H133249   3.014   4.633   1.146 -0.5341  0.4527  0.7844
 3018TIP3    H233250   2.873   4.588   1.113  0.3449 -1.0678 -1.1333
 3019TIP3   OH233251   5.961   7.327   8.540 -0.0332 -0.6745  0.1127
 3019TIP3    H133252   6.045   7.294   8.570  0.1523  0.5609  1.0455
 3019TIP3    H233253   5.970   7.335   8.445  0.9565 -0.3924  0.2219
 3020TIP3   OH233254   2.556   2.395   0.461  0.0176 -0.5908 -0.3313
 3020TIP3    H133255   2.515   2.312   0.437  1.4046 -0.9380 -1.6742
 3020TIP3    H233256   2.551   2.449   0.382 -1.8798  1.0953  0.8435
 3021TIP3   OH233257   3.313   3.343   7.925  0.1277  0.3366 -0.3261
 3021TIP3    H133258   3.343   3.352   7.834 -0.8502  0.9577 -0.5933
 3021TIP3    H233259   3.335   3.426   7.966 -1.6576  1.0277 -0.6709
 3022TIP3   OH233260   3.264   1.263   0.193 -0.3324 -0.8531  0.3648
 3022TIP3    H133261   3.180   1.278   0.150 -0.2355  0.2041  0.5205
 3022TIP3    H233262   3.326   1.250   0.122  0.4112  3.7393 -0.1009
 3023TIP3   OH233263   2.544   0.395   1.839 -0.7961 -0.0772 -0.0352
 3023TIP3    H133264   2.540   0.479   1.794 -0.8863  0.5391  1.1038
 3023TIP3    H233265   2.626   0.398   1.888 -2.1825  0.6446  2.4337
 3024TIP3   OH233266   6.996   3.874   1.376 -0.2208 -0.0374  0.2000
 3024TIP3    H133267   7.039   3.887   1.291  0.5192 -1.1673  0.3757
 3024TIP3    H233268   6.912   3.833   1.354  0.0935 -0.6035  0.0086
 3025TIP3   OH233269   2.575   0.660   8.191  0.0491  0.2647 -0.1016
 3025TIP3    H133270   2.669   0.675   8.203 -0.1946  0.9626  1.1593
 3025TIP3    H233271   2.538   0.748   8.182 -0.7467  0.1785  1.8282
 3026TIP3   OH233272   4.764   3.252   0.581  0.0027  0.5663 -0.1599
 3026TIP3    H133273   4.770   3.159   0.559 -0.2618  0.4395  0.2944
 3026TIP3    H233274   4.853   3.276   0.608  0.3130  0.7033 -1.2606
 3027TIP3   OH233275   5.956   6.838   9.234 -0.9157 -0.0509  0.3480
 3027TIP3    H133276   5.891   6.770   9.253 -0.7554 -0.3586 -0.1935
 3027TIP3    H233277   6.031   6.815   9.289 -0.6152 -0.6898 -0.3174
 3028TIP3   OH233278   2.794   4.450   6.784 -0.2722  0.2890  0.3478
 3028TIP3    H133279   2.805   4.461   6.689  0.2728  0.7232  0.4534
 3028TIP3    H233280   2.823   4.361   6.801  0.9047  0.6330  0.2767
 3029TIP3   OH233281   0.243   3.139   0.501 -0.5969  0.5140  0.5085
 3029TIP3    H133282   0.222   3.231   0.485 -0.8234  0.6675  1.5939
 3029TIP3    H233283   0.177   3.110   0.565 -0.0656 -0.1927  0.7533
 3030TIP3   OH233284   0.381   2.597   7.714  0.1240  0.6896 -0.1374
 3030TIP3    H133285   0.365   2.642   7.631  2.6278 -0.8799 -1.5893
 3030TIP3    H233286   0.358   2.506   7.697  1.9531  0.0803  0.4199
 3031TIP3   OH233287   1.926   5.842   2.638  0.8830 -0.4691 -0.4752
 3031TIP3    H133288   1.953   5.781   2.570  2.7612 -0.5305  0.2750
 3031TIP3    H233289   1.926   5.928   2.595  1.8644 -0.5322 -0.6190
 3032TIP3   OH233290   1.510   7.535   8.915  0.0901 -0.1527 -0.2349
 3032TIP3    H133291   1.511   7.440   8.904  0.7329 -0.0343 -1.3521
 3032TIP3    H233292   1.433   7.552   8.969 -0.1394 -1.2948 -0.1769
 3033TIP3   OH233293   4.258   2.403   1.454 -0.3116  0.2446  0.7295
 3033TIP3    H133294   4.302   2.487   1.464  0.2834  0.0943 -0.4022
 3033TIP3    H233295   4.329   2.338   1.451 -0.6211 -0.0668 -0.4766
 3034TIP3   OH233296   2.598   3.419   8.518  0.4316 -0.1460 -0.4390
 3034TIP3    H133297   2.678   3.469   8.505  0.5460 -0.3874 -0.6770
 3034TIP3    H233298   2.571   3.439   8.607  0.7116  0.0004 -0.3867
 3035TIP3   OH233299   0.473   4.166   8.436 -0.0344 -0.5808 -0.4370
 3035TIP3    H133300   0.497   4.189   8.525 -1.3935  0.5124 -0.3063
 3035TIP3    H233301   0.378   4.154   8.439 -0.0705 -0.7827 -1.6791
 3036TIP3   OH233302   4.949   2.364   0.877 -0.2638 -0.3222 -0.3192
 3036TIP3    H133303   4.995   2.438   0.918  1.8864 -0.9352 -1.4304
 3036TIP3    H233304   4.901   2.403   0.804  1.6070 -0.0589 -1.4729
 3037TIP3   OH233305   4.773   0.249   8.476 -0.1798  0.0517 -0.4750
 3037TIP3    H133306   4.793   0.342   8.478 -0.1298  0.0393 -0.3867
 3037TIP3    H233307   4.704   0.237   8.541  1.5787 -0.3837  1.4168
 3038TIP3   OH233308   2.322   3.064   2.358  0.1942  0.4656 -0.3302
 3038TIP3    H133309   2.376   3.134   2.394 -0.7570  1.1537 -0.1869
 3038TIP3    H233310   2.326   2.995   2.424  0.4254  0.7453 -0.0452
 3039TIP3   OH233311   0.159   0.472   8.295 -0.5475 -0.3711  0.2493
 3039TIP3    H133312   0.177   0.382   8.266  1.2782  0.4296 -1.3192
 3039TIP3    H233313   0.220   0.526   8.245  0.1267  1.5378  2.8875
 3040TIP3   OH233314   1.979   6.290   0.935 -0.2530 -0.3085  0.1352
 3040TIP3    H133315   1.907   6.340   0.897 -0.7402 -1.2415 -0.1958
 3040TIP3    H233316   1.937   6.215   0.976  0.5622 -1.1345 -0.5015
 3041TIP3   OH233317   1.347   5.774   1.713  0.6020  0.6641  0.6470
 3041TIP3    H133318   1.352   5.863   1.678 -2.5683  1.3099  1.4963
 3041TIP3    H233319   1.350   5.718   1.636 -1.4413  1.7892 -0.3352
 3042TIP3   OH233320   5.719   2.745   8.715  0.2715  0.4217  0.4299
 3042TIP3    H133321   5.726   2.836   8.745 -4.1606  0.8616  0.7689
 3042TIP3    H233322   5.686   2.698   8.791 -0.9461 -0.6710 -0.7339
 3043TIP3   OH233323   5.968   7.548   2.304 -0.5124 -0.0659 -0.0222
 3043TIP3    H133324   5.980   7.537   2.398 -0.3246 -0.5889 -0.1068
 3043TIP3    H233325   5.888   7.601   2.297 -2.2663 -2.4630  0.3777
 3044TIP3   OH233326   0.070   0.456   1.037  0.1854  0.2254  0.1982
 3044TIP3    H133327   0.062   0.415   1.124 -0.3852 -1.8967 -0.7896
 3044TIP3    H233328   0.164   0.461   1.021  0.3605 -3.0659 -0.5937
 3045TIP3   OH233329   2.170   2.749   8.398 -0.4632  0.0841 -0.0508
 3045TIP3    H133330   2.175   2.786   8.310  0.7195  0.5580  0.1964
 3045TIP3    H233331   2.093   2.692   8.396 -0.2338 -0.2161 -1.5004
 3046TIP3   OH233332   2.886   5.360   0.440  0.4442  0.0066  0.1368
 3046TIP3    H133333   2.946   5.417   0.391  0.2582 -0.6431 -0.9019
 3046TIP3    H233334   2.800   5.376   0.401  0.3376 -0.7271  0.0572
 3047TIP3   OH233335   1.506   7.127   2.391 -0.2361  0.6870 -0.0240
 3047TIP3    H133336   1.453   7.064   2.440 -1.1151  1.7343  0.4194
 3047TIP3    H233337   1.484   7.110   2.299  0.9594 -0.8818 -0.0562
 3048TIP3   OH233338   6.818   7.504   1.045 -0.1938 -0.1033  0.1301
 3048TIP3    H133339   6.841   7.592   1.016 -2.1593  0.5577  0.4145
 3048TIP3    H233340   6.750   7.475   0.983 -0.1662 -1.0795  0.5356
 3049TIP3   OH233341   6.313   6.148   1.014  0.2729  0.4017  0.2504
 3049TIP3    H133342   6.239   6.086   1.013  1.0881 -0.6122  0.8892
 3049TIP3    H233343   6.273   6.232   0.991 -0.7782 -0.4380 -1.2312
 3050TIP3   OH233344   3.060   0.149   0.146 -0.1873 -0.2352  0.2015
 3050TIP3    H133345   3.055   0.173   0.053  2.1418  3.9571  0.8820
 3050TIP3    H233346   3.141   0.099   0.153  0.9675  1.5334  0.1833
 3051TIP3   OH233347   6.588   6.930   8.077  0.4810 -0.6784 -0.3327
 3051TIP3    H133348   6.615   6.878   8.001  1.1119  0.7516 -1.1432
 3051TIP3    H233349   6.513   6.981   8.045 -0.1049 -1.0532  0.4298
 3052TIP3   OH233350   3.831   0.718   0.391 -0.4023  0.1798 -0.1009
 3052TIP3    H133351   3.858   0.656   0.324  0.7711  0.4441  0.1035
 3052TIP3    H233352   3.913   0.750   0.429 -1.0266 -0.0689  1.5611
 3053TIP3   OH233353   1.302   6.137   7.817 -0.0739  0.5703 -0.2758
 3053TIP3    H133354   1.286   6.170   7.906 -1.4245 -2.1244  0.5790
 3053TIP3    H233355   1.394   6.109   7.818  0.0075  0.8390  0.1428
 3054TIP3   OH233356   4.180   1.740   8.529 -0.1847 -0.7534  0.6284
 3054TIP3    H133357   4.115   1.783   8.473 -0.2221  0.0657  1.2833
 3054TIP3    H233358   4.169   1.647   8.511  0.6623 -0.4686 -1.6468
 3055TIP3   OH233359   1.211   3.806   2.954 -0.3429 -0.5158  0.0292
 3055TIP3    H133360   1.129   3.854   2.943 -0.7306 -1.0159  0.6500
 3055TIP3    H233361   1.199   3.725   2.905  0.8342  0.5541 -2.2017
 3056TIP3   OH233362   2.932   3.594   0.130  0.2852  0.1984  0.4894
 3056TIP3    H133363   2.931   3.626   0.221 -0.1689 -0.4469  0.7116
 3056TIP3    H233364   2.863   3.643   0.087 -0.2079 -0.2590  0.7552
 3057TIP3   OH233365   6.624   5.698   0.073  0.5223 -0.1938 -0.0067
 3057TIP3    H133366   6.600   5.614   0.112 -0.1701 -0.2127 -0.4609
 3057TIP3    H233367   6.644   5.754   0.148  2.2575 -1.1168  0.2653
 3058TIP3   OH233368   0.466   7.109   7.695  0.0166  0.5995 -0.2224
 3058TIP3    H133369   0.377   7.080   7.714  0.6469 -0.2123  1.7622
 3058TIP3    H233370   0.522   7.049   7.745  1.6301  1.8610 -0.4262
 3059TIP3   OH233371   6.632   3.204   9.310 -0.1322 -0.0236  0.0737
 3059TIP3    H133372   6.673   3.189   9.225  0.0555  0.6486  0.0454
 3059TIP3    H233373   6.700   3.181   9.374 -0.9643 -2.7308  0.1232
 3060TIP3   OH233374   6.864   5.455   9.321  0.4514 -0.0191  0.0504
 3060TIP3    H133375   6.839   5.511   9.247 -0.8906 -0.7754 -0.0994
 3060TIP3    H233376   6.903   5.516   9.384  0.7066  0.7944 -0.8602
 3061TIP3   OH233377   0.011   6.239   7.298 -0.0331  0.1048  0.1249
 3061TIP3    H133378   0.064   6.312   7.266  1.0366 -0.8412 -0.3173
 3061TIP3    H233379  -0.070   6.280   7.327  0.7249  1.5275  0.3316
 3062TIP3   OH233380   6.270   4.511   9.289 -0.5128 -0.4760  0.0756
 3062TIP3    H133381   6.219   4.462   9.225  0.2618  0.1179 -1.0308
 3062TIP3    H233382   6.226   4.596   9.295 -0.1317 -0.2536 -0.2627
 3063TIP3   OH233383   1.038   7.555   6.935 -0.3625  0.2546 -0.0080
 3063TIP3    H133384   1.031   7.633   6.990 -1.3363 -0.7844  1.4154
 3063TIP3    H233385   1.020   7.483   6.994 -0.1024 -1.0242 -1.4354
 3064TIP3   OH233386   5.597   5.093   0.623  0.2672 -0.7398 -0.7377
 3064TIP3    H133387   5.692   5.079   0.625  0.1362 -1.6317  0.8284
 3064TIP3    H233388   5.559   5.011   0.654 -0.9554  0.0474 -0.0461
 3065TIP3   OH233389   2.342   7.570   0.602  0.7825  0.1774  0.1291
 3065TIP3    H133390   2.393   7.651   0.605  3.2481 -1.2449  0.4871
 3065TIP3    H233391   2.356   7.531   0.689 -1.4283 -0.0700  0.4254
 3066TIP3   OH233392   3.561   6.470   8.434 -0.1623 -0.9482  0.4145
 3066TIP3    H133393   3.498   6.404   8.405 -0.3163 -1.2771  1.4597
 3066TIP3    H233394   3.509   6.533   8.483  0.2543 -1.0451  1.0028
 3067TIP3   OH233395   1.078   2.125   1.427 -0.3601  0.3301  0.1786
 3067TIP3    H133396   1.148   2.155   1.486 -0.1790  0.7735 -0.2510
 3067TIP3    H233397   1.123   2.072   1.362 -0.0238  2.5387 -1.4881
 3068TIP3   OH233398   0.624   1.042   1.357 -0.4978 -0.7675  0.0212
 3068TIP3    H133399   0.713   1.073   1.341 -0.6208  0.5965  1.7622
 3068TIP3    H233400   0.613   1.045   1.452 -2.3805 -0.9721 -0.1411
 3069TIP3   OH233401   3.971   6.795   9.398 -0.2413  0.1600 -0.3037
 3069TIP3    H133402   3.963   6.884   9.363 -1.5353  0.2005  0.0632
 3069TIP3    H233403   3.958   6.738   9.321  2.2079  0.2488 -0.8672
 3070TIP3   OH233404   1.234   6.596   0.353  0.3264 -0.1543  0.6595
 3070TIP3    H133405   1.305   6.537   0.328  1.3951  1.3732 -0.0058
 3070TIP3    H233406   1.173   6.592   0.278 -0.0909 -1.0888  1.0227
 3071TIP3   OH233407   3.627   4.434   9.435 -0.2542  0.0071  0.0610
 3071TIP3    H133408   3.677   4.459   9.513  0.8298  0.3938 -0.7251
 3071TIP3    H233409   3.645   4.341   9.424  1.5551  0.4365 -1.0473
 3072TIP3   OH233410   1.058   7.052   6.484 -0.3428  0.5066  0.2385
 3072TIP3    H133411   1.000   6.983   6.453 -0.3838  1.5421 -2.2542
 3072TIP3    H233412   1.027   7.071   6.573 -2.1569 -0.7365 -0.0661
 3073TIP3   OH233413   0.102   6.575   2.383  0.2859 -0.5602 -0.1707
 3073TIP3    H133414   0.170   6.563   2.317 -0.3533 -0.7294 -0.8195
 3073TIP3    H233415   0.084   6.487   2.416 -0.4713 -0.6987 -0.8985
 3074TIP3   OH233416   5.700   2.864   1.251 -0.1556 -0.0972 -0.0000
 3074TIP3    H133417   5.778   2.857   1.306  0.5618 -1.6962 -1.1460
 3074TIP3    H233418   5.633   2.814   1.299 -0.2812  0.6589  0.6288
 3075TIP3   OH233419   0.027   2.452   8.389  0.2919 -0.2526  0.1218
 3075TIP3    H133420  -0.058   2.465   8.348  0.5426  0.3669 -0.2249
 3075TIP3    H233421   0.088   2.442   8.315  0.4524 -1.1594  0.3696
 3076TIP3   OH233422   7.388   1.702   7.861  0.0343 -0.2649  0.0209
 3076TIP3    H133423   7.418   1.760   7.791 -0.5770  0.7633  0.6026
 3076TIP3    H233424   7.349   1.627   7.815 -0.1537  0.2903 -0.7388
 3077TIP3   OH233425   3.312   1.333   6.949 -0.1956  0.3463  0.2744
 3077TIP3    H133426   3.356   1.294   7.025  0.3553  1.1637  0.3886
 3077TIP3    H233427   3.284   1.258   6.897  0.0439 -0.2158  0.9367
 3078TIP3   OH233428   3.664   1.293   0.790 -0.0678 -0.1646  0.3482
 3078TIP3    H133429   3.673   1.198   0.796 -0.6082 -0.2359  0.0912
 3078TIP3    H233430   3.752   1.327   0.807  0.0845 -0.7002  0.6378
 3079TIP3   OH233431   4.944   3.335   9.418 -0.0008  0.4492 -0.1847
 3079TIP3    H133432   4.951   3.248   9.380  0.0116  0.1802  0.4177
 3079TIP3    H233433   4.856   3.339   9.454  0.7922 -0.2607  1.9981
 3080TIP3   OH233434   1.395   4.400   7.379  0.3978 -0.1614  0.6256
 3080TIP3    H133435   1.373   4.323   7.326  0.3318 -0.5816  1.2557
 3080TIP3    H233436   1.329   4.401   7.448 -0.1935  1.0238  0.0663
 3081TIP3   OH233437   3.953   4.920   9.355 -0.2191 -0.0116  1.1641
 3081TIP3    H133438   4.018   4.888   9.418  2.1978  0.9877 -0.6854
 3081TIP3    H233439   3.909   4.991   9.402  0.1568 -0.5386  2.3779
 3082TIP3   OH233440   7.397   1.318   2.131  0.5375 -0.3813 -0.8160
 3082TIP3    H133441   7.425   1.382   2.196  1.5302 -1.1254 -0.4975
 3082TIP3    H233442   7.356   1.249   2.182 -0.9180  0.1685 -1.1914
 3083TIP3   OH233443   7.461   2.627   7.876 -0.4441  0.6719 -0.4507
 3083TIP3    H133444   7.392   2.693   7.870 -0.7617  0.2423 -2.1500
 3083TIP3    H233445   7.415   2.546   7.899 -0.7153  0.1711 -2.5455
 3084TIP3   OH233446   5.272   1.539   8.329  0.2162 -0.0645  0.0327
 3084TIP3    H133447   5.219   1.462   8.311  0.8942 -0.3813 -0.6637
 3084TIP3    H233448   5.360   1.504   8.346  0.5336  0.5502 -0.3102
 3085TIP3   OH233449   1.551   5.594   1.486  0.2441  1.0261  0.2088
 3085TIP3    H133450   1.579   5.522   1.429  0.8012 -0.4332  2.2302
 3085TIP3    H233451   1.460   5.611   1.460 -1.3787 -3.2201  2.2307
 3086TIP3   OH233452   0.908   4.688   1.490  0.4959 -0.5524 -0.3694
 3086TIP3    H133453   0.899   4.656   1.580  0.1391 -0.7625 -0.4761
 3086TIP3    H233454   0.853   4.629   1.438 -1.5816  1.2491 -0.3465
 3087TIP3   OH233455   1.000   3.998   1.498 -0.0472  0.0603 -0.3551
 3087TIP3    H133456   1.030   4.081   1.534  1.3892 -1.0206  1.0623
 3087TIP3    H233457   1.062   3.978   1.428  1.5724 -1.2587  1.3458
 3088TIP3   OH233458   4.283   3.104   1.486  0.3078 -0.2543  0.1464
 3088TIP3    H133459   4.249   3.091   1.574  2.5662 -1.5795  0.9221
 3088TIP3    H233460   4.313   3.017   1.459  1.3140  0.4630 -1.1970
 3089TIP3   OH233461   4.119   2.718   1.643 -0.2716  0.1326 -0.4910
 3089TIP3    H133462   4.052   2.766   1.691  0.0666  1.6429 -1.4643
 3089TIP3    H233463   4.081   2.631   1.629 -1.3348  0.4367  0.3781
 3090TIP3   OH233464   0.204   1.328   9.395 -0.3204  0.1339 -0.1914
 3090TIP3    H133465   0.155   1.308   9.475  0.9477  0.7739  0.7867
 3090TIP3    H233466   0.141   1.317   9.324 -1.9262  1.1191  1.0309
 3091TIP3   OH233467   0.021   3.250   8.323  0.2424 -0.3108 -0.0697
 3091TIP3    H133468   0.111   3.217   8.329  0.4942  0.3308 -0.2318
 3091TIP3    H233469  -0.012   3.214   8.240  0.1479 -1.0219  0.2702
 3092TIP3   OH233470   2.190   4.948   7.697  0.2715  0.5531  0.0439
 3092TIP3    H133471   2.100   4.928   7.670  1.3180 -1.9651 -1.9728
 3092TIP3    H233472   2.205   4.892   7.773  0.3891  0.4270 -0.0735
 3093TIP3   OH233473   4.334   0.629   1.879 -0.1888 -0.3599  0.1382
 3093TIP3    H133474   4.357   0.577   1.956  1.2292 -1.8403 -1.2102
 3093TIP3    H233475   4.249   0.594   1.851  0.3462 -1.3984 -0.2450
 3094TIP3   OH233476   5.389   4.854   9.148 -0.0142 -0.3311 -0.4093
 3094TIP3    H133477   5.369   4.823   9.060 -2.4930 -0.4413  0.1373
 3094TIP3    H233478   5.309   4.839   9.198  0.7675  1.2468  1.4516
 3095TIP3   OH233479   2.574   7.344   0.674  0.4715  0.1367 -0.2055
 3095TIP3    H133480   2.493   7.294   0.683  1.3007 -1.9495 -2.8387
 3095TIP3    H233481   2.629   7.314   0.746 -0.6447  0.7233  0.9260
 3096TIP3   OH233482   3.560   7.526   8.963  0.0619  0.2446 -0.2170
 3096TIP3    H133483   3.633   7.562   9.013 -0.4029 -1.0041  1.4476
 3096TIP3    H233484   3.586   7.436   8.944 -1.0086 -0.2228  0.4142
 3097TIP3   OH233485   3.497   6.674   1.213  0.1153 -0.5063 -0.5430
 3097TIP3    H133486   3.432   6.740   1.234  0.6168 -0.0641 -0.3610
 3097TIP3    H233487   3.450   6.591   1.218 -0.4268 -0.1898 -0.3970
 3098TIP3   OH233488   0.070   7.372   1.398 -0.3045  0.5689  0.4332
 3098TIP3    H133489  -0.003   7.418   1.439  1.0806  0.1635  3.6628
 3098TIP3    H233490   0.148   7.405   1.443  1.3757 -0.2534 -1.6886
 3099TIP3   OH233491   5.815   5.011   1.457 -0.0941  0.1099  0.1767
 3099TIP3    H133492   5.780   4.930   1.419  0.7326 -0.3622  0.4034
 3099TIP3    H233493   5.834   4.988   1.548  1.7612  0.0383 -0.1932
 3100TIP3   OH233494   4.232   1.004   7.999  0.5721  0.3540  0.2874
 3100TIP3    H133495   4.280   1.071   7.950  1.8150 -0.4084  0.4244
 3100TIP3    H233496   4.214   1.045   8.083 -1.2598  1.5439 -0.6192
 3101TIP3   OH233497   6.008   0.072   0.177 -0.3359  0.3680  0.0971
 3101TIP3    H133498   5.997   0.124   0.097 -0.3213  0.8546  0.4113
 3101TIP3    H233499   6.025   0.136   0.246 -0.5755 -0.0342  0.5372
 3102TIP3   OH233500   0.865   3.285   9.138  0.2619  0.6723  0.0663
 3102TIP3    H133501   0.861   3.192   9.162 -0.6778  0.9674  1.1642
 3102TIP3    H233502   0.955   3.299   9.110  0.8471 -0.2357  1.3983
 3103TIP3   OH233503   5.713   2.304   2.329 -0.2097  0.2259  0.7216
 3103TIP3    H133504   5.685   2.394   2.309 -0.8446 -0.5031 -2.0111
 3103TIP3    H233505   5.631   2.257   2.345 -0.0473 -0.3349 -0.0711
 3104TIP3   OH233506   2.396   1.627   1.617 -0.1382 -0.2771  0.1619
 3104TIP3    H133507   2.415   1.572   1.693  0.2032  1.1181  1.1208
 3104TIP3    H233508   2.367   1.565   1.549 -2.5636 -1.3938  2.0629
 3105TIP3   OH233509   3.045   5.343   1.304  0.2581 -0.2752 -0.4091
 3105TIP3    H133510   3.126   5.394   1.309  0.1280 -0.1173  0.1934
 3105TIP3    H233511   3.031   5.331   1.211  0.0528  1.1856 -0.5955
 3106TIP3   OH233512   2.449   6.860   1.745 -0.2055 -0.7481 -0.0138
 3106TIP3    H133513   2.544   6.856   1.734 -0.2717  0.6598 -1.4324
 3106TIP3    H233514   2.414   6.812   1.671 -0.6084 -0.9019  0.2748
 3107TIP3   OH233515   5.569   6.367   9.270  0.7564 -0.6317 -0.2160
 3107TIP3    H133516   5.654   6.409   9.257  0.1676  1.5119  2.0702
 3107TIP3    H233517   5.516   6.433   9.315 -2.5573 -1.4505 -2.5037
 3108TIP3   OH233518   5.175   6.761   0.329 -0.1783  0.2118 -0.1369
 3108TIP3    H133519   5.235   6.813   0.277  2.4005  0.4704  2.7941
 3108TIP3    H233520   5.225   6.738   0.407 -3.6040 -0.4531  2.0799
 3109TIP3   OH233521   0.323   7.041   9.539 -0.1314  0.2536 -0.0529
 3109TIP3    H133522   0.354   7.092   9.464 -0.0327 -0.8948 -0.8348
 3109TIP3    H233523   0.350   7.091   9.616 -1.2575  2.0581 -0.7719
 3110TIP3   OH233524   4.418   5.658   9.566  0.3236 -0.3846 -0.0485
 3110TIP3    H133525   4.388   5.677   9.655  0.4585  0.6050 -0.2065
 3110TIP3    H233526   4.481   5.727   9.546  0.1477 -0.4778 -0.9882
 3111TIP3   OH233527   3.908   1.715   0.744 -0.1647  0.4460  0.5338
 3111TIP3    H133528   3.826   1.746   0.703 -0.1279  2.9869  2.1629
 3111TIP3    H233529   3.896   1.620   0.750 -2.8512  0.6702  0.3758
 3112TIP3   OH233530   6.742   4.753   0.567 -0.2478  0.3251 -0.2245
 3112TIP3    H133531   6.736   4.773   0.661 -0.3855  0.0783 -0.1802
 3112TIP3    H233532   6.833   4.728   0.553 -0.5150 -0.8989  0.0979
 3113TIP3   OH233533   7.552   5.190   7.082 -0.2411  0.3779  0.2390
 3113TIP3    H133534   7.499   5.269   7.071 -0.2074  0.4215  0.3849
 3113TIP3    H233535   7.494   5.129   7.128 -0.4329  0.1430 -0.3060
 3114TIP3   OH233536   1.869   5.242   7.323 -0.1997  0.3738 -0.9687
 3114TIP3    H133537   1.927   5.315   7.345 -0.1459  0.1171 -0.2371
 3114TIP3    H233538   1.789   5.259   7.373 -0.1582 -0.0999 -0.7367
 3115TIP3   OH233539   1.537   4.599   8.212 -0.1718  0.6179 -0.1610
 3115TIP3    H133540   1.522   4.592   8.306 -1.4349  0.1433 -0.3820
 3115TIP3    H233541   1.632   4.604   8.203  0.0004 -0.1206  1.0925
 3116TIP3   OH233542   7.485   4.431   9.464  0.3099  0.3981  0.3661
 3116TIP3    H133543   7.479   4.339   9.492 -0.3900  0.4980  0.5763
 3116TIP3    H233544   7.576   4.455   9.479  0.6031 -0.3877 -0.0929
 3117TIP3   OH233545   3.931   7.043   9.254 -0.1211 -0.2198  0.6179
 3117TIP3    H133546   3.880   7.123   9.245  0.9790  0.4508  0.1127
 3117TIP3    H233547   4.019   7.073   9.279  1.1877 -0.9743 -2.5776
 3118TIP3   OH233548   1.848   1.893   1.928  0.2299  0.4438 -0.1336
 3118TIP3    H133549   1.915   1.915   1.863  0.2391 -0.6975 -0.5446
 3118TIP3    H233550   1.768   1.931   1.894  0.4156  0.6593 -0.3316
 3119TIP3   OH233551   4.332   4.423   1.974  0.2809  0.0385  0.4506
 3119TIP3    H133552   4.388   4.392   1.902 -2.7196 -2.6468 -1.0091
 3119TIP3    H233553   4.356   4.368   2.048  0.1584 -0.5353  0.0727
 3120TIP3   OH233554   1.030   4.532   7.640 -0.2435 -0.7708 -0.2216
 3120TIP3    H133555   0.998   4.484   7.564  2.1829 -2.2529 -0.4179
 3120TIP3    H233556   0.968   4.512   7.709 -0.7647 -1.9983 -1.0122
 3121TIP3   OH233557   0.478   1.005   9.696  0.3992 -0.1382 -0.3281
 3121TIP3    H133558   0.495   1.051   9.779 -0.7703  0.4812 -0.4042
 3121TIP3    H233559   0.559   0.958   9.677  0.6179 -0.4714  1.2906
 3122TIP3   OH233560   6.600   3.967   0.949  0.3536 -0.2699  0.0001
 3122TIP3    H133561   6.625   3.874   0.943 -0.9678 -0.6737  0.4023
 3122TIP3    H233562   6.681   4.012   0.972  1.0511 -1.3100 -0.3295
 3123TIP3   OH233563   3.782   3.964   7.711 -0.0204  0.5390  0.5772
 3123TIP3    H133564   3.800   3.894   7.774  0.5173  0.8835  0.8092
 3123TIP3    H233565   3.702   4.005   7.744  0.5004  0.9984  1.2892
 3124TIP3   OH233566   5.029   6.861   9.157 -0.5577 -0.2554  0.2699
 3124TIP3    H133567   4.954   6.906   9.195  0.5321  0.9903  1.0173
 3124TIP3    H233568   5.102   6.883   9.215  0.8308  0.3072 -1.6000
 3125TIP3   OH233569   2.133   0.233   0.399  0.2642 -0.7358  0.1516
 3125TIP3    H133570   2.104   0.323   0.415 -0.6523 -0.9639 -0.1533
 3125TIP3    H233571   2.165   0.203   0.484 -1.3929 -0.8080  0.7940
 3126TIP3   OH233572   3.948   7.385   8.565  0.7649 -0.6514 -0.3535
 3126TIP3    H133573   3.896   7.309   8.591  0.8108 -0.7309 -0.4943
 3126TIP3    H233574   3.883   7.454   8.547  0.6598 -0.9867 -1.3157
 3127TIP3   OH233575   5.863   5.062   1.918  0.1930 -0.0947 -0.5648
 3127TIP3    H133576   5.778   5.103   1.903  0.7202  1.4225  0.3946
 3127TIP3    H233577   5.861   5.037   2.011  1.8756  2.7327  0.3381
 3128TIP3   OH233578   5.770   7.143   8.271 -0.3600  0.4363 -0.2405
 3128TIP3    H133579   5.784   7.154   8.177 -1.8257 -1.1856 -0.7150
 3128TIP3    H233580   5.800   7.054   8.290 -1.3448  0.2420  0.5290
 3129TIP3   OH233581   2.919   3.275   1.369 -0.9182 -0.0283 -0.4982
 3129TIP3    H133582   2.873   3.322   1.438 -0.8498  1.8048 -1.6433
 3129TIP3    H233583   2.899   3.324   1.289  0.3014 -1.1616 -1.5447
 3130TIP3   OH233584   1.783   5.082   6.251 -0.4991 -0.6182 -0.3353
 3130TIP3    H133585   1.756   5.073   6.343 -1.0679 -2.7038 -0.6391
 3130TIP3    H233586   1.788   5.176   6.236 -0.6808 -0.2302  1.7515
 3131TIP3   OH233587   5.636   0.138   0.480 -0.5863  0.6240  0.3308
 3131TIP3    H133588   5.580   0.208   0.513 -0.1886  1.2253 -0.2480
 3131TIP3    H233589   5.605   0.121   0.392 -0.5497  0.2108  0.3963
 3132TIP3   OH233590   3.485   2.734   0.260  0.1535  0.5630  0.0757
 3132TIP3    H133591   3.569   2.754   0.300 -0.5962  1.4150  1.3067
 3132TIP3    H233592   3.432   2.813   0.275 -0.9846 -0.1048 -0.3123
 3133TIP3   OH233593   5.103   7.621   8.842  0.4549  0.2865 -0.1499
 3133TIP3    H133594   5.097   7.566   8.920  2.3517 -0.9876 -0.8294
 3133TIP3    H233595   5.052   7.699   8.864 -1.8623 -1.4409  1.0683
 3134TIP3   OH233596   1.540   0.033   8.702  0.1820 -0.5162 -0.4228
 3134TIP3    H133597   1.558  -0.036   8.766 -0.4120 -1.9949 -1.7768
 3134TIP3    H233598   1.445   0.032   8.692  0.2359 -0.0410 -1.0352
 3135TIP3   OH233599   2.773   6.453   2.533  0.1798  0.4315 -0.1047
 3135TIP3    H133600   2.701   6.505   2.569  0.8467  0.2235  1.6007
 3135TIP3    H233601   2.815   6.414   2.609  1.0788 -0.8119 -1.1896
 3136TIP3   OH233602   6.678   0.366   8.230 -0.2709  0.6803  0.3516
 3136TIP3    H133603   6.682   0.364   8.325  1.0222  0.9999  0.3272
 3136TIP3    H233604   6.609   0.304   8.207  1.4995 -1.8819  1.4078
 3137TIP3   OH233605   1.096   5.901   8.114 -0.6172 -0.1769 -0.3450
 3137TIP3    H133606   1.011   5.913   8.158 -0.0045  0.5311  0.6845
 3137TIP3    H233607   1.087   5.952   8.033 -1.1445 -0.0367 -0.2069
 3138TIP3   OH233608   2.139   4.235   1.821  0.8234 -0.3581  0.5159
 3138TIP3    H133609   2.062   4.222   1.766  1.4228 -1.7619 -0.0515
 3138TIP3    H233610   2.209   4.256   1.759  1.1345 -0.1895  0.9181
 3139TIP3   OH233611   3.198   2.602   1.125  0.3377 -0.2214  0.1499
 3139TIP3    H133612   3.158   2.618   1.210 -1.0846  0.8556 -0.6935
 3139TIP3    H233613   3.178   2.679   1.073  0.2164 -1.3170 -1.5233
 3140TIP3   OH233614   2.045   4.648   9.484 -0.0647 -0.2458 -0.9144
 3140TIP3    H133615   2.121   4.596   9.510 -0.4397 -1.0598 -1.3766
 3140TIP3    H233616   1.979   4.582   9.461 -0.7925  0.4486 -0.8395
 3141TIP3   OH233617   3.611   6.357   0.739 -0.2461 -0.0340  0.1557
 3141TIP3    H133618   3.522   6.392   0.732  0.0757  0.6993 -0.4820
 3141TIP3    H233619   3.635   6.333   0.649 -0.4190 -1.8680  0.5545
 3142TIP3   OH233620   2.144   7.022   7.484  0.0901  0.0598 -0.1130
 3142TIP3    H133621   2.193   6.942   7.503 -1.5506 -1.4480 -1.9372
 3142TIP3    H233622   2.157   7.076   7.562  0.5225 -2.3380  1.5972
 3143TIP3   OH233623   6.266   3.307   9.851 -0.2000  0.1086 -0.5394
 3143TIP3    H133624   6.254   3.229   9.797 -1.5308  0.7407 -1.2020
 3143TIP3    H233625   6.177   3.340   9.865  0.1476  0.2684  1.6083
 3144TIP3   OH233626   1.145   5.580   3.129 -0.1146  0.2060  0.2890
 3144TIP3    H133627   1.192   5.500   3.106  0.2278  0.6651 -0.6464
 3144TIP3    H233628   1.213   5.647   3.131 -0.7064  0.8585 -0.9435
 3145TIP3   OH233629   3.465   2.413   1.824  0.3617 -0.0007  0.7343
 3145TIP3    H133630   3.514   2.357   1.764 -0.1862  0.6683 -0.3713
 3145TIP3    H233631   3.377   2.418   1.785 -0.1852 -0.0541  1.9283
 3146TIP3   OH233632   3.935   7.650   8.788  0.1108 -0.5551 -0.1101
 3146TIP3    H133633   3.914   7.599   8.709  1.0007 -2.0316  0.5589
 3146TIP3    H233634   4.002   7.712   8.759 -0.1946 -0.4885 -0.6993
 3147TIP3   OH233635   3.412   6.172   9.921 -0.3107 -0.3071  0.0788
 3147TIP3    H133636   3.430   6.155  10.014  0.3236 -1.5679 -0.2538
 3147TIP3    H233637   3.377   6.089   9.888  1.1391 -0.4384 -1.2118
 3148TIP3   OH233638   3.373   3.726   9.258  0.1494  0.0130  0.5625
 3148TIP3    H133639   3.407   3.694   9.341  0.2779  1.5481  1.1265
 3148TIP3    H233640   3.338   3.813   9.278 -2.0366 -0.5687 -0.4793
 3149TIP3   OH233641   2.334   1.555   6.952 -0.5307 -0.1846 -0.1578
 3149TIP3    H133642   2.408   1.585   6.898  0.7520 -1.1833  0.9737
 3149TIP3    H233643   2.371   1.546   7.039 -2.1630 -0.1888  0.5574
 3150TIP3   OH233644   2.194   2.203   0.526 -0.0328  0.1031 -0.0804
 3150TIP3    H133645   2.176   2.208   0.433  1.4205  1.1293 -0.3414
 3150TIP3    H233646   2.116   2.162   0.564 -0.8279  0.0843 -1.6745
 3151TIP3   OH233647   5.265   6.148   9.052 -0.0011 -0.1628 -0.3618
 3151TIP3    H133648   5.229   6.199   8.980  0.3723  1.6474  0.6874
 3151TIP3    H233649   5.246   6.199   9.130  1.6810 -0.9059  0.5917
 3152TIP3   OH233650   7.397   6.667   8.158  0.3851  0.1444  0.2497
 3152TIP3    H133651   7.488   6.690   8.142  0.5686 -1.9400 -2.2274
 3152TIP3    H233652   7.347   6.733   8.111  0.7000 -0.1521 -0.5104
 3153TIP3   OH233653   2.612   2.615   9.862 -0.0510  0.7770  0.0990
 3153TIP3    H133654   2.530   2.621   9.813 -0.5110 -1.1675  0.5207
 3153TIP3    H233655   2.665   2.552   9.813 -0.4775 -1.1183  1.8996
 3154TIP3   OH233656   2.404   2.877   2.169  0.0213 -0.2172 -0.1493
 3154TIP3    H133657   2.374   2.808   2.228  0.8219  0.2257  0.8029
 3154TIP3    H233658   2.394   2.958   2.218  1.4642  0.0800 -0.2827
 3155TIP3   OH233659   5.401   5.402   8.259  0.2179 -0.3785 -0.0125
 3155TIP3    H133660   5.344   5.339   8.216  0.9062  0.0412 -1.6121
 3155TIP3    H233661   5.418   5.364   8.345 -1.3508 -1.1631 -0.0071
 3156TIP3   OH233662   2.833   4.984   8.998 -0.0889 -0.3471 -0.4386
 3156TIP3    H133663   2.855   5.073   9.024 -0.4766 -1.1428  3.2046
 3156TIP3    H233664   2.776   4.995   8.922 -0.3636  2.5190  0.0617
 3157TIP3   OH233665   5.972   0.715   1.882  0.1781  0.2767 -0.5992
 3157TIP3    H133666   5.998   0.691   1.793  1.0655 -1.4413  0.0815
 3157TIP3    H233667   5.907   0.649   1.907  3.4953 -2.4581  1.7296
 3158TIP3   OH233668   1.545   0.435   1.499 -0.5072  0.0792 -0.1898
 3158TIP3    H133669   1.631   0.474   1.511 -0.6220  0.0754  0.6792
 3158TIP3    H233670   1.532   0.380   1.576 -1.1587 -0.1630 -0.4611
 3159TIP3   OH233671   4.490   4.908   9.883 -0.3071 -0.0050 -0.1653
 3159TIP3    H133672   4.459   4.946   9.801  1.3932  0.7403 -0.4999
 3159TIP3    H233673   4.435   4.948   9.951 -1.3860 -0.2505 -0.8685
 3160TIP3   OH233674   1.555   4.323   2.324 -0.5130 -0.5936  0.6068
 3160TIP3    H133675   1.623   4.311   2.258 -1.2455  1.3940 -0.5907
 3160TIP3    H233676   1.600   4.366   2.397 -0.0724 -1.1413  0.6591
 3161TIP3   OH233677   2.012   1.414   0.233  0.0856  0.3881  0.1796
 3161TIP3    H133678   1.943   1.451   0.288 -0.2686 -0.8486  0.5875
 3161TIP3    H233679   2.059   1.354   0.291 -1.1551 -2.0190 -1.1888
 3162TIP3   OH233680   3.922   6.613   9.190 -0.5874 -0.0815 -0.2005
 3162TIP3    H133681   3.831   6.583   9.184 -0.2282 -1.6801  1.5539
 3162TIP3    H233682   3.932   6.673   9.116 -2.6866 -0.8420 -1.1800
 3163TIP3   OH233683   7.430   3.524   8.363  0.1151 -0.3770  0.7236
 3163TIP3    H133684   7.381   3.456   8.316 -1.5948  1.7783 -0.8120
 3163TIP3    H233685   7.509   3.538   8.310 -0.3299 -0.0532  0.1374
 3164TIP3   OH233686   4.644   5.285   7.498 -0.3555  0.2408  0.2562
 3164TIP3    H133687   4.676   5.250   7.415 -0.1178 -0.3304  0.5838
 3164TIP3    H233688   4.631   5.208   7.553 -0.1314  0.6437  0.8826
 3165TIP3   OH233689   6.724   4.030   9.740  0.5221  0.0788 -0.4671
 3165TIP3    H133690   6.741   3.960   9.677  2.4578  2.6238 -3.0948
 3165TIP3    H233691   6.630   4.026   9.755  0.4629 -2.5775 -1.0482
 3166TIP3   OH233692   0.234   4.376   0.255  0.0879  0.6619  0.6792
 3166TIP3    H133693   0.216   4.469   0.262  1.6746  1.0233  0.4899
 3166TIP3    H233694   0.308   4.361   0.314 -1.2170 -0.8484  2.0434
 3167TIP3   OH233695   5.878   1.986   7.859 -0.0059  0.1325  0.4980
 3167TIP3    H133696   5.782   1.987   7.855 -0.1644  1.9613  2.5257
 3167TIP3    H233697   5.903   1.901   7.823 -2.3413 -0.1963 -0.5361
 3168TIP3   OH233698   4.086   3.696   9.265  0.0280 -0.1299  0.0647
 3168TIP3    H133699   4.051   3.698   9.176  2.5766 -0.8964 -1.0201
 3168TIP3    H233700   4.068   3.607   9.296 -0.9616  0.1705  0.4167
 3169TIP3   OH233701   4.058   6.583   1.997  0.1388 -0.2867 -0.4798
 3169TIP3    H133702   3.977   6.635   1.996  0.2738  0.1481  2.4042
 3169TIP3    H233703   4.029   6.494   1.977 -0.9565 -0.0144 -0.2113
 3170TIP3   OH233704   0.701   4.098   7.771  0.8822 -0.3471 -0.2043
 3170TIP3    H133705   0.765   4.169   7.762 -0.1610  0.6107 -0.2335
 3170TIP3    H233706   0.626   4.138   7.814  0.1949 -1.3985 -0.3860
 3171TIP3   OH233707   2.641   4.778   0.157 -0.1921  0.3696 -0.6366
 3171TIP3    H133708   2.626   4.684   0.150 -0.2106  0.4719 -2.9527
 3171TIP3    H233709   2.705   4.797   0.088 -0.6409  2.1439 -0.6257
 3172TIP3   OH233710   3.931   3.380   1.198 -0.3252  0.3340 -0.1394
 3172TIP3    H133711   3.942   3.305   1.257  0.2433 -0.0914 -0.7826
 3172TIP3    H233712   4.018   3.397   1.163 -0.4538  1.2837 -0.0301
 3173TIP3   OH233713   6.187   5.874   0.613 -0.1762 -0.0979  0.0504
 3173TIP3    H133714   6.245   5.917   0.550 -0.5669 -0.9180 -0.8964
 3173TIP3    H233715   6.104   5.865   0.567 -0.3431 -1.0915  0.5127
 3174TIP3   OH233716   0.976   4.978   8.190 -0.4254 -0.5933 -0.2892
 3174TIP3    H133717   0.950   4.887   8.176 -2.3372  0.0437 -1.1918
 3174TIP3    H233718   0.932   5.003   8.271 -1.2364 -0.0179 -0.8947
 3175TIP3   OH233719   5.698   7.272   9.784 -0.3949 -0.2679  0.0823
 3175TIP3    H133720   5.724   7.198   9.729 -1.4999 -0.0716 -0.7406
 3175TIP3    H233721   5.779   7.298   9.828  0.6367 -0.2010 -1.7276
 3176TIP3   OH233722   0.458   2.019   2.415 -0.2121 -0.0539 -0.0832
 3176TIP3    H133723   0.541   1.983   2.385 -0.0824 -0.4562  0.7597
 3176TIP3    H233724   0.481   2.075   2.490 -0.8418 -1.2483  1.0304
 3177TIP3   OH233725   3.860   1.020   8.317  0.0122 -0.5431 -0.2939
 3177TIP3    H133726   3.900   0.941   8.352 -0.6293 -0.4807  0.6055
 3177TIP3    H233727   3.912   1.041   8.239  0.4897 -1.5620 -0.2598
 3178TIP3   OH233728   3.010   2.808   7.821 -0.1924  0.1670 -0.2020
 3178TIP3    H133729   3.062   2.888   7.814 -0.0900  0.0575 -0.7294
 3178TIP3    H233730   2.926   2.830   7.781 -1.0668  0.7520  1.8088
 3179TIP3   OH233731   6.258   1.883   2.091 -0.0813  0.2903 -0.1066
 3179TIP3    H133732   6.234   1.975   2.102 -0.0119  0.4126 -0.9674
 3179TIP3    H233733   6.275   1.853   2.181 -2.5591  0.4164  0.4653
 3180TIP3   OH233734   5.585   4.728   9.853  0.1323 -0.8676 -0.4045
 3180TIP3    H133735   5.549   4.786   9.920 -0.2294 -2.3335  0.7232
 3180TIP3    H233736   5.508   4.686   9.813  0.4508 -2.4644  0.5798
 3181TIP3   OH233737   7.290   2.519   1.651  0.2214 -0.0040  0.1653
 3181TIP3    H133738   7.375   2.527   1.608  0.8205 -1.0384  1.1013
 3181TIP3    H233739   7.226   2.539   1.582  1.2092  2.6214 -0.1352
 3182TIP3   OH233740   2.697   6.373   1.219 -0.2383 -0.2050 -0.4166
 3182TIP3    H133741   2.754   6.336   1.288 -1.4563 -0.0794  0.6984
 3182TIP3    H233742   2.631   6.422   1.267  0.0085  1.5521 -1.7901
 3183TIP3   OH233743   1.425   1.682   2.216 -0.7438 -0.8269 -0.2169
 3183TIP3    H133744   1.463   1.609   2.167 -3.0001 -1.2281 -1.4889
 3183TIP3    H233745   1.484   1.755   2.200  0.3510 -1.8009 -0.7772
 3184TIP3   OH233746   3.153   3.667   9.918  0.4451 -0.1412  0.2553
 3184TIP3    H133747   3.128   3.589   9.868  2.2716  0.1394 -1.2408
 3184TIP3    H233748   3.235   3.696   9.877  0.3832  1.9516  1.4629
 3185TIP3   OH233749   7.566   5.040   8.271 -0.0763  0.0473 -0.0460
 3185TIP3    H133750   7.650   5.062   8.230 -0.2986  0.3702 -0.3273
 3185TIP3    H233751   7.584   5.041   8.365  0.1215  0.5920 -0.0868
 3186TIP3   OH233752   0.737   6.205   1.297  0.3825 -0.0277 -0.8227
 3186TIP3    H133753   0.643   6.191   1.303  0.5513 -1.0344 -0.4383
 3186TIP3    H233754   0.746   6.298   1.273 -0.7019  0.0194 -1.0822
 3187TIP3   OH233755   5.485   6.453   1.295 -0.3503 -0.1519  0.1689
 3187TIP3    H133756   5.411   6.446   1.235  1.2458 -1.7772 -1.7843
 3187TIP3    H233757   5.477   6.377   1.352 -0.1615 -0.3988 -0.1252
 3188TIP3   OH233758   0.914   1.118   7.546 -0.5208  0.0522  0.1226
 3188TIP3    H133759   0.992   1.062   7.551 -0.9729 -0.5388  0.8767
 3188TIP3    H233760   0.898   1.128   7.452  0.4407  0.1578 -0.0429
 3189TIP3   OH233761   3.246   1.394   8.946  0.0607  0.4230  0.1945
 3189TIP3    H133762   3.257   1.373   8.853 -0.1957 -0.9158  0.4376
 3189TIP3    H233763   3.247   1.309   8.989 -0.9673  0.9499  1.3039
 3190TIP3   OH233764   6.608   2.260   9.454 -0.2411 -0.5971 -0.2318
 3190TIP3    H133765   6.653   2.345   9.449 -1.0709 -0.1336 -0.1492
 3190TIP3    H233766   6.515   2.282   9.442 -0.4309 -1.5460 -0.6260
 3191TIP3   OH233767   1.199   5.660   9.353  0.0521  0.2168 -0.1200
 3191TIP3    H133768   1.236   5.704   9.276  0.5411  0.7380  0.4088
 3191TIP3    H233769   1.274   5.619   9.395 -0.1437  0.3152  0.3295
 3192TIP3   OH233770   1.000   0.713   9.776 -0.1793  0.2350 -0.1943
 3192TIP3    H133771   1.094   0.726   9.790 -0.3835  1.3901  0.2336
 3192TIP3    H233772   0.965   0.692   9.862 -0.1421 -1.5419 -0.5727
 3193TIP3   OH233773   4.288   7.610   7.477  0.5834  0.0850  0.2668
 3193TIP3    H133774   4.331   7.666   7.413  1.5053  0.0557  0.8519
 3193TIP3    H233775   4.244   7.670   7.537  1.4607  0.1894  0.8159
 3194TIP3   OH233776   5.138   6.896   2.347 -0.2862 -0.1010  0.2776
 3194TIP3    H133777   5.112   6.962   2.411  0.3808  0.3340  0.1141
 3194TIP3    H233778   5.208   6.848   2.390  1.1568  1.1014 -0.6085
 3195TIP3   OH233779   3.587   6.188   9.449  0.4401  0.3829 -0.1727
 3195TIP3    H133780   3.572   6.278   9.420 -1.5965  0.5744  1.2299
 3195TIP3    H233781   3.622   6.197   9.538 -0.3046 -0.1970  0.1884
 3196TIP3   OH233782   0.520   5.977   8.799  0.0217  0.0923 -0.3581
 3196TIP3    H133783   0.484   6.001   8.714 -1.1085 -0.6398 -0.1032
 3196TIP3    H233784   0.524   5.882   8.798  0.7784  0.1075  0.1104
 3197TIP3   OH233785   7.434   5.474   7.858 -0.3612 -0.0130  0.0156
 3197TIP3    H133786   7.525   5.482   7.829  0.3416 -1.3378  1.6495
 3197TIP3    H233787   7.431   5.390   7.904 -1.9790  0.7990  1.5215
 3198TIP3   OH233788   1.649   7.015   0.185  0.0861 -0.0546  0.2949
 3198TIP3    H133789   1.736   6.978   0.169  0.3547  0.6980 -0.0333
 3198TIP3    H233790   1.614   6.965   0.259  0.2991 -1.1736 -0.3455
 3199TIP3   OH233791   7.040   1.651   9.752  0.2716 -0.1424 -0.5193
 3199TIP3    H133792   7.013   1.608   9.833 -1.3420  0.1250 -0.8857
 3199TIP3    H233793   7.123   1.694   9.774 -0.9488  1.3583  1.4941
 3200TIP3   OH233794   2.443   0.430   1.024 -0.0973  0.1272  0.2319
 3200TIP3    H133795   2.438   0.508   1.079  0.0332  0.8607 -0.7698
 3200TIP3    H233796   2.366   0.379   1.047 -0.4644  0.8033  0.5293
 3201TIP3   OH233797   1.454   7.051   8.130  0.2319  0.8566  0.2164
 3201TIP3    H133798   1.540   7.009   8.119  0.4283  1.5265 -1.0247
 3201TIP3    H233799   1.394   6.978   8.147  0.9620  0.3242  0.5392
 3202TIP3   OH233800   5.826   0.645   1.194 -0.1294 -0.4285  0.0069
 3202TIP3    H133801   5.764   0.589   1.242 -0.5544 -1.1037 -1.2790
 3202TIP3    H233802   5.772   0.690   1.129  0.2753  1.2171  0.7438
 3203TIP3   OH233803   3.934   3.096   7.605 -0.0215 -0.1545  0.0693
 3203TIP3    H133804   3.882   3.080   7.527 -0.8110  0.4184  0.4685
 3203TIP3    H233805   3.888   3.166   7.651 -0.9313 -2.0903  2.2784
 3204TIP3   OH233806   7.215   6.336   1.071  0.6370  0.1731  0.1674
 3204TIP3    H133807   7.132   6.378   1.095 -0.7250 -1.4630 -1.4849
 3204TIP3    H233808   7.229   6.270   1.139  1.4750  1.4733  1.3325
 3205TIP3   OH233809   5.392   5.365   8.533  0.3340  0.1215  0.0095
 3205TIP3    H133810   5.410   5.439   8.591 -1.8978  1.0218 -0.3553
 3205TIP3    H233811   5.337   5.307   8.585 -0.0264 -0.0393 -0.5470
 3206TIP3   OH233812   6.345   6.455   8.617 -0.2359  0.7286  0.2395
 3206TIP3    H133813   6.321   6.441   8.709 -0.5890  0.3971  0.0990
 3206TIP3    H233814   6.286   6.398   8.568  1.5102 -0.8878 -0.0604
 3207TIP3   OH233815   0.239   4.359   7.387  0.1395 -0.5601  0.7730
 3207TIP3    H133816   0.263   4.369   7.295 -0.5040 -0.2863  0.6340
 3207TIP3    H233817   0.198   4.273   7.393 -1.3079  0.0877  0.4767
 3208TIP3   OH233818   5.454   7.512   8.042  0.1799 -0.1244 -0.9895
 3208TIP3    H133819   5.499   7.435   8.007  0.3358 -0.9927  0.9653
 3208TIP3    H233820   5.525   7.574   8.060  0.1895 -0.0355 -1.3184
 3209TIP3   OH233821   2.674   3.729   0.788  0.0750 -0.2211 -0.0973
 3209TIP3    H133822   2.623   3.789   0.842 -0.0283 -1.6944  1.5168
 3209TIP3    H233823   2.699   3.658   0.847 -0.0197 -1.9124 -1.9690
 3210TIP3   OH233824   6.305   5.703   8.637 -0.2163 -0.0851  0.0731
 3210TIP3    H133825   6.354   5.739   8.711 -0.4399 -1.4791  0.9239
 3210TIP3    H233826   6.236   5.767   8.621  0.1793  0.5111  0.6900
 3211TIP3   OH233827   2.661   5.004   2.376 -0.1596  0.1226 -0.1910
 3211TIP3    H133828   2.709   5.011   2.294 -1.9041 -1.8637 -1.4616
 3211TIP3    H233829   2.576   5.044   2.358 -0.8623 -1.0608  0.3607
 3212TIP3   OH233830   2.437   6.314   2.258 -0.3677  0.4611  0.0657
 3212TIP3    H133831   2.395   6.400   2.262  0.4615  0.8970 -0.2116
 3212TIP3    H233832   2.520   6.330   2.213  0.1148 -0.3538  0.6240
 3213TIP3   OH233833   6.982   5.889   0.111 -0.3086 -0.0741  0.2461
 3213TIP3    H133834   6.922   5.879   0.037  0.1494 -0.7694 -0.0464
 3213TIP3    H233835   7.043   5.958   0.084 -1.8568  1.7500  1.1664
 3214TIP3   OH233836   6.213   0.524   2.480 -0.5106 -0.6670  0.1372
 3214TIP3    H133837   6.250   0.441   2.451  0.3750 -0.2198 -0.0168
 3214TIP3    H233838   6.285   0.571   2.522 -1.0016  0.0273  0.2380
 3215TIP3   OH233839   6.389   0.226   8.241 -0.5194 -0.2995  0.5013
 3215TIP3    H133840   6.355   0.295   8.184  0.3436 -0.3696 -0.1244
 3215TIP3    H233841   6.406   0.152   8.183  0.7873 -0.2222  0.7384
 3216TIP3   OH233842   0.413   2.746   8.207 -0.7582  0.2533  0.2087
 3216TIP3    H133843   0.400   2.693   8.286 -0.6539 -0.9953 -0.5916
 3216TIP3    H233844   0.474   2.815   8.235 -1.6637  0.5710  1.5168
 3217TIP3   OH233845   2.356   5.236   7.354 -0.1050 -0.3278 -0.0143
 3217TIP3    H133846   2.361   5.161   7.295  3.1190 -0.6918  0.5095
 3217TIP3    H233847   2.441   5.237   7.398 -0.8947  2.3038  1.6867
 3218TIP3   OH233848   4.869   6.783   1.496 -0.2025 -0.6991 -0.6170
 3218TIP3    H133849   4.799   6.845   1.520  1.6695  0.2422  3.3610
 3218TIP3    H233850   4.836   6.698   1.523 -0.4887 -0.5259 -0.4130
 3219TIP3   OH233851   5.396   4.616   2.108 -0.6494 -0.0912 -0.1448
 3219TIP3    H133852   5.327   4.561   2.145 -0.2860  0.5246  1.5542
 3219TIP3    H233853   5.360   4.705   2.109  0.8099  0.6284  2.8940
 3220TIP3   OH233854   3.880   2.785   9.614 -0.2666 -0.1237  0.5100
 3220TIP3    H133855   3.799   2.829   9.590  0.5095  0.3198 -1.5077
 3220TIP3    H233856   3.852   2.702   9.652 -1.6767  0.8382  1.7208
 3221TIP3   OH233857   7.537   7.008   1.273  0.3246  0.3532  0.1227
 3221TIP3    H133858   7.600   7.058   1.222  0.9496  0.2066  0.7406
 3221TIP3    H233859   7.493   7.073   1.328 -0.7571  0.5950 -1.0001
 3222TIP3   OH233860   4.342   4.360   7.744 -0.2889  0.2185  0.2090
 3222TIP3    H133861   4.261   4.350   7.693 -0.3130  2.2288 -0.2079
 3222TIP3    H233862   4.410   4.377   7.678 -0.2338  2.3598  0.7631
 3223TIP3   OH233863   0.765   2.266   0.765  0.1191  0.8439  0.2342
 3223TIP3    H133864   0.822   2.309   0.702 -0.2830  0.4152 -0.4250
 3223TIP3    H233865   0.789   2.305   0.849 -0.0071  2.1256 -0.3017
 3224TIP3   OH233866   3.218   3.723   7.937 -0.7166 -0.0450  0.2468
 3224TIP3    H133867   3.134   3.725   7.892 -1.0503 -0.2691  0.8487
 3224TIP3    H233868   3.209   3.654   8.003  0.0387 -0.2760  0.1255
 3225TIP3   OH233869   0.293   2.465   3.044  0.1425 -0.0536 -0.4456
 3225TIP3    H133870   0.238   2.396   3.005  0.7482 -1.8062  1.6261
 3225TIP3    H233871   0.230   2.524   3.086 -0.3538 -2.4468  2.5667
 3226TIP3   OH233872   3.846   1.723   9.980  0.0677  0.3419 -0.0993
 3226TIP3    H133873   3.751   1.735   9.982  0.1606  1.0590  0.1276
 3226TIP3    H233874   3.874   1.736  10.071  0.5018  1.2060 -0.3451
 3227TIP3   OH233875   2.227   6.264   6.514 -0.1296 -0.2716  0.4859
 3227TIP3    H133876   2.309   6.225   6.543 -0.3179 -1.4532 -0.4781
 3227TIP3    H233877   2.254   6.340   6.462  0.4837 -1.4601 -1.0537
 3228TIP3   OH233878   1.618   3.893   1.850  0.0308 -0.0367 -0.9341
 3228TIP3    H133879   1.695   3.908   1.795  0.2708 -0.4461 -0.7162
 3228TIP3    H233880   1.546   3.935   1.802  0.9636  3.8281  0.7135
 3229TIP3   OH233881   0.882   4.342   7.233  0.8570 -0.5227 -0.1791
 3229TIP3    H133882   0.845   4.419   7.276 -0.3263 -1.0071 -0.2903
 3229TIP3    H233883   0.892   4.278   7.304 -1.4914 -1.4714 -0.5970
 3230TIP3   OH233884   5.989   4.653   1.470  0.0182 -0.0096  0.4256
 3230TIP3    H133885   6.031   4.626   1.552 -1.0793  0.0695  1.0287
 3230TIP3    H233886   6.061   4.657   1.407  0.7469 -0.9414  1.1606
 3231TIP3   OH233887   6.962   6.602   0.469  0.1781  0.5294  0.6587
 3231TIP3    H133888   7.031   6.554   0.423  0.5272  1.6966 -0.1033
 3231TIP3    H233889   6.901   6.629   0.399 -1.4370 -1.0357  1.3848
 3232TIP3   OH233890   2.266   1.568   8.103  0.0514 -0.5301 -0.2320
 3232TIP3    H133891   2.193   1.629   8.114  0.4420 -0.0824 -0.0762
 3232TIP3    H233892   2.232   1.484   8.135 -0.6136 -0.4873 -0.8146
 3233TIP3   OH233893   5.816   2.020   9.699  0.3543  0.1409 -0.4547
 3233TIP3    H133894   5.761   2.092   9.668  1.8964  1.1578 -0.8767
 3233TIP3    H233895   5.803   1.951   9.633  1.9452  1.5128 -2.3265
 3234TIP3   OH233896   2.258   1.843   8.418 -0.2269 -0.0463 -0.5466
 3234TIP3    H133897   2.269   1.938   8.420 -0.1879 -0.0378 -1.1388
 3234TIP3    H233898   2.164   1.830   8.401 -0.4242 -0.1234  0.4866
 3235TIP3   OH233899   4.880   2.151   7.975 -0.1827  0.3126 -0.6485
 3235TIP3    H133900   4.868   2.075   8.031  0.9424  0.0174 -0.7910
 3235TIP3    H233901   4.941   2.122   7.907 -1.4714  0.6839 -2.0091
 3236TIP3   OH233902   2.907   2.756   9.742  0.2250 -0.1928  0.0276
 3236TIP3    H133903   2.943   2.706   9.815 -0.2872 -0.5446  0.0427
 3236TIP3    H233904   2.820   2.781   9.771 -0.1330 -0.6682 -0.6127
 3237TIP3   OH233905   6.807   4.183   0.529  0.4908  0.2510 -0.1670
 3237TIP3    H133906   6.762   4.250   0.478 -2.6724 -3.1685 -2.3795
 3237TIP3    H233907   6.855   4.132   0.464  0.0135 -1.5926  0.8478
 3238TIP3   OH233908   3.529   0.019   7.172 -0.4090 -0.0530 -0.6215
 3238TIP3    H133909   3.469  -0.039   7.125 -0.9624 -0.2580  0.3126
 3238TIP3    H233910   3.577  -0.039   7.231 -0.9247  0.4201  0.2805
 3239TIP3   OH233911   6.351   3.628   1.342 -0.2293  0.5407  0.5565
 3239TIP3    H133912   6.364   3.625   1.247  0.1953  2.5777  0.4938
 3239TIP3    H233913   6.439   3.617   1.378 -0.6238 -2.3667  0.8691
 3240TIP3   OH233914   1.373   4.469   2.507 -0.4980  0.1812  0.3537
 3240TIP3    H133915   1.397   4.462   2.415  0.5270 -0.1901  0.6345
 3240TIP3    H233916   1.448   4.432   2.554 -1.0391  0.2978  1.3322
 3241TIP3   OH233917   4.126   3.129   0.172  0.1133  0.2419  0.2505
 3241TIP3    H133918   4.166   3.076   0.241 -0.2198  0.0443  0.2923
 3241TIP3    H233919   4.034   3.138   0.198  0.1032  0.6039  0.1006
 3242TIP3   OH233920   0.903   2.729   8.060  0.3259  0.1988  0.2603
 3242TIP3    H133921   0.868   2.697   8.143  0.9735  1.7454  1.1685
 3242TIP3    H233922   0.927   2.650   8.011  0.7267 -0.7100  1.8845
 3243TIP3   OH233923   1.229   4.866   2.000 -0.7842  0.3040  0.2962
 3243TIP3    H133924   1.281   4.945   2.018  0.5354 -0.4512 -0.0585
 3243TIP3    H233925   1.181   4.851   2.081  1.1278 -0.1139  1.4259
 3244TIP3   OH233926   3.699   5.261   1.826 -0.4662 -0.0544 -0.1542
 3244TIP3    H133927   3.784   5.221   1.806 -0.6085  0.1966 -1.3146
 3244TIP3    H233928   3.714   5.310   1.907  0.2689 -0.6896  0.1086
 3245TIP3   OH233929   0.592   4.297   2.022  0.0550 -0.3132 -0.2392
 3245TIP3    H133930   0.598   4.342   2.106 -1.4066  1.7455 -1.1440
 3245TIP3    H233931   0.682   4.273   2.001  0.7656  1.2605  0.8237
 3246TIP3   OH233932   1.956   2.999   9.718 -0.3593  0.4804  0.0441
 3246TIP3    H133933   1.865   3.028   9.715 -0.3811  0.4299  0.2149
 3246TIP3    H233934   1.955   2.923   9.776  0.1033  1.6593  1.6628
 3247TIP3   OH233935   0.229   5.478   8.671  0.6814 -0.0346 -0.1333
 3247TIP3    H133936   0.310   5.511   8.631  0.8423  0.2684  0.4160
 3247TIP3    H233937   0.200   5.407   8.614  0.3567  1.0240 -1.3395
 3248TIP3   OH233938   2.434   0.773   9.485 -0.3961  0.1694 -0.1977
 3248TIP3    H133939   2.451   0.800   9.395 -1.1886  1.3452 -0.0125
 3248TIP3    H233940   2.484   0.834   9.539 -0.7353  0.1131  0.1855
 3249TIP3   OH233941   4.565   4.192   7.469 -0.3669  0.1321 -0.2178
 3249TIP3    H133942   4.526   4.267   7.423  0.6309  0.0156 -1.2824
 3249TIP3    H233943   4.639   4.229   7.517  0.5285 -0.2540 -1.2673
 3250TIP3   OH233944   4.852   3.892   0.565 -0.2465 -0.2006 -0.1727
 3250TIP3    H133945   4.942   3.858   0.563 -0.5637 -1.1070  0.3321
 3250TIP3    H233946   4.804   3.827   0.617 -0.7131  1.4534  1.5614
 3251TIP3   OH233947   6.578   1.140   1.106 -0.3627 -0.3258 -0.5069
 3251TIP3    H133948   6.651   1.078   1.107 -0.5448 -0.6253 -2.2438
 3251TIP3    H233949   6.503   1.087   1.080 -1.0708  0.1336  0.5282
 3252TIP3   OH233950   2.052   6.000   2.280 -0.1858  0.2513  0.6042
 3252TIP3    H133951   2.061   5.941   2.205 -0.4423  1.0220 -0.0505
 3252TIP3    H233952   1.980   5.963   2.331 -0.5401  0.1488  0.0472
 3253TIP3   OH233953   5.404   7.002   0.838 -0.3668  0.0773 -0.2774
 3253TIP3    H133954   5.309   7.015   0.847 -0.3989 -1.0769  1.5362
 3253TIP3    H233955   5.431   6.967   0.923  1.9439  1.7094 -0.2688
 3254TIP3   OH233956   3.801   4.553   6.949 -0.1668 -0.3904  0.9118
 3254TIP3    H133957   3.761   4.533   7.034 -0.7809 -0.7425  0.5396
 3254TIP3    H233958   3.869   4.617   6.970 -1.4944  0.9061  1.4335
 3255TIP3   OH233959   4.755   1.790   1.501  0.1740  0.4809 -0.3556
 3255TIP3    H133960   4.763   1.703   1.540 -0.0426 -0.6586 -2.7154
 3255TIP3    H233961   4.711   1.775   1.418 -2.0915  3.1819  0.2223
 3256TIP3   OH233962   5.101   1.798   7.400 -0.5990 -0.0762 -0.1128
 3256TIP3    H133963   5.161   1.849   7.346  2.5665 -3.5754 -0.2432
 3256TIP3    H233964   5.109   1.836   7.488  0.8789  0.3059 -0.3938
 3257TIP3   OH233965   5.848   5.972   8.245 -0.3467  0.6546 -1.0288
 3257TIP3    H133966   5.854   5.933   8.333  0.4897  0.3289 -1.2244
 3257TIP3    H233967   5.755   5.968   8.224 -0.4295 -0.1862 -0.5624
 3258TIP3   OH233968   5.197   2.214   0.772  0.1188 -0.1317  0.1618
 3258TIP3    H133969   5.171   2.268   0.697 -0.9138  0.6704  1.0455
 3258TIP3    H233970   5.194   2.275   0.846 -0.6204 -1.3117  1.1242
 3259TIP3   OH233971   1.877   7.450   7.298 -0.3958 -0.2733 -0.3826
 3259TIP3    H133972   1.928   7.471   7.220  0.3113 -0.1011  0.1249
 3259TIP3    H233973   1.899   7.358   7.316 -1.9576 -0.9061 -1.4321
 3260TIP3   OH233974   3.023   5.305   2.503 -0.2795 -0.4481  0.2613
 3260TIP3    H133975   2.955   5.252   2.543  0.5195 -2.0477 -0.4048
 3260TIP3    H233976   3.101   5.287   2.555  0.0735 -0.1960 -0.1702
 3261TIP3   OH233977   6.144   1.026   9.436  0.1030 -0.4189  0.0697
 3261TIP3    H133978   6.096   0.947   9.412 -0.5280  0.1999 -0.7668
 3261TIP3    H233979   6.081   1.097   9.426  0.6887  0.2142  0.7019
 3262TIP3   OH233980   4.835   7.441   0.824 -0.2224 -0.5631  0.6095
 3262TIP3    H133981   4.833   7.501   0.899  3.3622  0.7600 -0.1164
 3262TIP3    H233982   4.906   7.380   0.844 -0.4623 -1.3893 -0.8931
 3263TIP3   OH233983   5.607   7.226   2.049  0.1061 -0.2300  0.6834
 3263TIP3    H133984   5.523   7.183   2.037  0.1425 -0.1658  0.1630
 3263TIP3    H233985   5.586   7.320   2.051  0.1643 -0.2110  0.5010
 3264TIP3   OH233986   5.407   4.519   7.431 -0.1224 -0.1657  0.0759
 3264TIP3    H133987   5.501   4.529   7.421 -0.2172  1.1407  0.1796
 3264TIP3    H233988   5.370   4.601   7.395 -1.1695 -0.4345  0.4852
 3265TIP3   OH233989   6.363   5.395   0.808  0.6631 -0.0583 -0.4911
 3265TIP3    H133990   6.338   5.390   0.716 -0.0084 -0.7897 -0.2741
 3265TIP3    H233991   6.450   5.355   0.812  0.9826  0.5895 -0.9112
 3266TIP3   OH233992   1.455   1.550   8.811 -0.1581 -0.0682 -0.6946
 3266TIP3    H133993   1.485   1.498   8.885 -1.1513  0.2444 -0.0529
 3266TIP3    H233994   1.455   1.490   8.737  1.4842 -0.2206 -0.6141
 3267TIP3   OH233995   6.506   0.651   2.383 -0.3012  0.1424  0.5963
 3267TIP3    H133996   6.431   0.591   2.379 -0.6685  0.6447 -0.8679
 3267TIP3    H233997   6.466   0.738   2.384  0.2176  0.4661 -1.6107
 3268TIP3   OH233998   4.522   3.362   8.846  0.4823  0.3202 -0.0062
 3268TIP3    H133999   4.592   3.402   8.795 -0.2530 -0.7782 -2.0079
 3268TIP3    H234000   4.460   3.433   8.861  1.1660  0.8809  0.2148
 3269TIP3   OH234001   2.073   7.380   0.966 -0.9792 -0.1132 -0.2153
 3269TIP3    H134002   2.145   7.385   1.029 -1.2266  0.4907  0.0302
 3269TIP3    H234003   2.047   7.287   0.966 -0.8077 -0.1642  0.3824
 3270TIP3   OH234004   6.979   7.430   2.157 -0.5950  0.0300 -0.0383
 3270TIP3    H134005   7.072   7.409   2.153 -0.6120 -0.1838  0.5470
 3270TIP3    H234006   6.934   7.346   2.147 -0.8811  0.4795 -4.1451
 3271TIP3   OH234007   1.815   5.807   7.056 -0.2443  0.4811  0.1600
 3271TIP3    H134008   1.742   5.838   7.110 -0.9836  0.0029 -0.5341
 3271TIP3    H234009   1.838   5.722   7.094 -1.9909 -0.7242 -1.3457
 3272TIP3   OH234010   4.485   0.261   9.384 -0.0067 -0.5074  0.1270
 3272TIP3    H134011   4.488   0.311   9.302  1.7263  0.0522  0.5026
 3272TIP3    H234012   4.424   0.309   9.439  0.3520  0.2636 -0.1267
 3273TIP3   OH234013   5.162   5.290   8.948  0.0374 -0.2360  0.1986
 3273TIP3    H134014   5.212   5.273   9.028 -0.1833  0.2035  0.4394
 3273TIP3    H234015   5.129   5.204   8.921 -0.6453 -0.2800  1.0969
 3274TIP3   OH234016   3.393   7.364   2.298  0.4059  0.0858 -0.0031
 3274TIP3    H134017   3.431   7.446   2.330 -0.3768  0.6944 -0.5820
 3274TIP3    H234018   3.457   7.297   2.322  0.6142  0.7329  1.3273
 3275TIP3   OH234019   1.327   5.260   1.242 -0.1364  0.4236 -0.0013
 3275TIP3    H134020   1.252   5.319   1.236 -0.5212 -0.1999 -2.4085
 3275TIP3    H234021   1.390   5.295   1.179 -0.3104 -1.5950 -1.3629
 3276TIP3   OH234022   1.310   1.766   8.694  0.2809 -1.0209 -0.2770
 3276TIP3    H134023   1.270   1.741   8.610 -0.3346 -0.2712 -0.2157
 3276TIP3    H234024   1.403   1.746   8.683  0.2889 -0.4719 -1.3187
 3277TIP3   OH234025   6.238   1.318   8.566  0.1698  0.0077 -0.5260
 3277TIP3    H134026   6.234   1.225   8.587 -1.9041 -0.0079 -0.7697
 3277TIP3    H234027   6.262   1.360   8.648  0.7285 -0.6972 -0.3149
 3278TIP3   OH234028   2.621   3.768   1.699  0.2665  0.3154  0.1287
 3278TIP3    H134029   2.569   3.845   1.675  0.8757  0.2708 -1.4334
 3278TIP3    H234030   2.573   3.694   1.661  1.1901  0.2222 -0.8876
 3279TIP3   OH234031   3.653   4.226   8.625 -0.1847  0.4459 -0.1830
 3279TIP3    H134032   3.662   4.321   8.616  1.7484  0.5870  2.0847
 3279TIP3    H234033   3.615   4.214   8.713  1.1210 -0.8586  0.2429
 3280TIP3   OH234034   4.315   1.553   9.918  0.2353 -1.3774 -0.7644
 3280TIP3    H134035   4.393   1.552   9.863  0.6713 -0.2718 -0.2096
 3280TIP3    H234036   4.302   1.462   9.944 -0.2459 -2.0020 -3.0036
 3281TIP3   OH234037   1.469   0.941   2.554 -0.8187 -0.0865 -0.0432
 3281TIP3    H134038   1.397   0.934   2.617 -1.8393  0.4254 -1.1132
 3281TIP3    H234039   1.466   0.860   2.504 -0.9058  0.0866 -0.3271
 3282TIP3   OH234040   3.488   4.908   8.534 -0.5379  0.0427 -0.1106
 3282TIP3    H134041   3.429   4.940   8.602 -0.6865 -0.6404  0.0885
 3282TIP3    H234042   3.430   4.870   8.468 -0.3242 -0.6077  0.0746
 3283TIP3   OH234043   7.024   5.426   1.134 -0.0848  0.3159  0.6958
 3283TIP3    H134044   7.103   5.451   1.182 -0.7934  0.1383  2.0176
 3283TIP3    H234045   7.027   5.477   1.054  1.6343 -0.0801  0.4637
 3284TIP3   OH234046   2.728   0.639   1.142 -0.0627 -0.6604 -0.3759
 3284TIP3    H134047   2.642   0.658   1.106  0.7498 -0.6671 -2.4077
 3284TIP3    H234048   2.764   0.725   1.167 -1.2083 -0.7715  1.9944
 3285TIP3   OH234049   7.416   0.981   0.078  0.1328 -0.2852 -0.0508
 3285TIP3    H134050   7.322   0.995   0.068 -0.1624 -1.3574  0.9411
 3285TIP3    H234051   7.428   0.968   0.172  1.4360  0.8545 -0.0319
 3286TIP3   OH234052   3.993   4.999   9.095  0.5552 -0.4500  0.2990
 3286TIP3    H134053   3.984   4.927   9.033 -0.7084  0.0933 -0.1819
 3286TIP3    H234054   3.973   4.961   9.180  3.2140 -1.4242  0.5742
 3287TIP3   OH234055   5.671   1.654   0.164 -0.6325 -0.0182 -0.1687
 3287TIP3    H134056   5.625   1.608   0.234  0.4653  0.3530  0.8208
 3287TIP3    H234057   5.677   1.745   0.194 -1.3092  0.4530 -1.3529
 3288TIP3   OH234058   6.719   3.209   9.031  0.1933 -0.0655  0.1170
 3288TIP3    H134059   6.787   3.172   8.975 -0.4891 -3.0240  1.0526
 3288TIP3    H234060   6.651   3.239   8.970  0.4980 -1.0066 -0.7041
 3289TIP3   OH234061   1.976   2.199   8.367  0.2167  0.4815 -0.2375
 3289TIP3    H134062   1.936   2.121   8.405 -0.7307  1.1729  0.2169
 3289TIP3    H234063   1.906   2.264   8.364  1.1777  1.5804  0.1392
 3290TIP3   OH234064   1.189   1.225   8.861  0.8675 -0.0396  0.2247
 3290TIP3    H134065   1.211   1.318   8.856  1.1727 -0.1311 -0.2429
 3290TIP3    H234066   1.247   1.190   8.929  2.4741 -0.3461 -1.2414
 3291TIP3   OH234067   2.435   1.505   0.688  0.4030 -0.6139  0.1626
 3291TIP3    H134068   2.523   1.531   0.716  0.4438 -0.2783 -0.2659
 3291TIP3    H234069   2.449   1.449   0.612  0.2188  0.0703 -0.3819
 3292TIP3   OH234070   0.665   2.197   2.268 -0.0804 -0.1119 -0.5975
 3292TIP3    H134071   0.743   2.146   2.245 -0.3194 -0.4205 -0.7145
 3292TIP3    H234072   0.662   2.194   2.364  0.8012  1.0107 -0.5074
 3293TIP3   OH234073   2.165   3.891   0.602 -0.0479 -0.3285 -0.1180
 3293TIP3    H134074   2.178   3.924   0.692 -2.8527  0.5610  0.0750
 3293TIP3    H234075   2.163   3.970   0.548 -0.1007 -0.7297 -0.7105
 3294TIP3   OH234076   5.571   4.324   0.687 -0.4153 -0.1953  0.7299
 3294TIP3    H134077   5.612   4.282   0.611 -0.2871 -1.1319  1.3031
 3294TIP3    H234078   5.612   4.411   0.690  0.8976 -0.7823  0.7554
 3295TIP3   OH234079   0.867   0.342   1.607 -0.1632 -0.3209  0.1426
 3295TIP3    H134080   0.866   0.420   1.552 -0.2283 -1.0167 -0.8756
 3295TIP3    H234081   0.906   0.274   1.552 -1.0672 -1.2694  0.6273
 3296TIP3   OH234082   1.879   5.995   2.992  0.6424 -0.2183 -0.3535
 3296TIP3    H134083   1.924   5.952   3.064  0.0661 -1.4141 -0.6875
 3296TIP3    H234084   1.938   6.066   2.966  1.6943 -0.8999  0.1039
 3297TIP3   OH234085   2.978   5.271   9.402  0.0975 -0.1230 -0.3249
 3297TIP3    H134086   3.019   5.184   9.399  2.0046  0.6848  0.5735
 3297TIP3    H234087   3.046   5.330   9.371 -0.9162  1.1496 -0.2018
 3298TIP3   OH234088   3.196   0.942   9.425 -0.2703 -0.1765  0.8273
 3298TIP3    H134089   3.232   0.854   9.436  2.0167  0.6258  0.3492
 3298TIP3    H234090   3.251   0.998   9.480 -1.3466  1.0304  0.7266
 3299TIP3   OH234091   0.471   5.580   7.616  0.6842  0.7619 -0.1936
 3299TIP3    H134092   0.443   5.603   7.528  0.7932 -0.9056 -0.6900
 3299TIP3    H234093   0.529   5.505   7.605  0.3397  0.2183  1.3296
 3300TIP3   OH234094   3.427   6.056   2.389  0.5341 -0.5612  0.6922
 3300TIP3    H134095   3.469   6.116   2.451  1.0982  2.8443 -2.6453
 3300TIP3    H234096   3.351   6.105   2.356 -0.5740 -2.8022 -0.3459
 3301TIP3   OH234097   2.917   0.470   9.617 -0.1358 -0.8576 -0.4699
 3301TIP3    H134098   2.828   0.441   9.636  0.6619 -3.6359 -0.5454
 3301TIP3    H234099   2.960   0.393   9.581  2.4906  0.2222  0.1392
 3302TIP3   OH234100   6.214   1.541   9.810 -0.6738  0.7730  0.0466
 3302TIP3    H134101   6.125   1.505   9.817 -0.0548 -1.2579 -1.4094
 3302TIP3    H234102   6.250   1.498   9.733  2.1754  0.1614  1.6024
 3303TIP3   OH234103   2.134   0.561   7.652 -0.0699 -0.5398  0.5061
 3303TIP3    H134104   2.113   0.537   7.742 -1.1565 -0.3727  0.3046
 3303TIP3    H234105   2.081   0.639   7.635 -1.0923 -1.4822 -0.7872
 3304TIP3   OH234106   1.851   0.755   0.265 -0.3069  0.1685  0.0600
 3304TIP3    H134107   1.824   0.703   0.341 -0.9162 -0.1673 -0.3742
 3304TIP3    H234108   1.856   0.692   0.194  1.2940  0.2924  0.0341
 3305TIP3   OH234109   2.826   2.362   0.160 -0.3023  0.0430 -0.0460
 3305TIP3    H134110   2.786   2.285   0.201 -1.3111 -0.3474 -1.6420
 3305TIP3    H234111   2.897   2.386   0.218 -0.5314 -1.5608  0.9685
 3306TIP3   OH234112   4.630   5.030   9.065 -0.0654 -0.8265 -0.1260
 3306TIP3    H134113   4.556   4.972   9.045 -0.8018  0.2622 -0.6742
 3306TIP3    H234114   4.695   5.010   8.997 -0.8529 -0.1043 -1.1149
 3307TIP3   OH234115   7.635   3.775   0.064 -0.0878  0.8889 -0.5351
 3307TIP3    H134116   7.701   3.809   0.003  0.5156 -0.3188 -0.5936
 3307TIP3    H234117   7.553   3.780   0.015  0.2958  0.4976 -1.2274
 3308TIP3   OH234118   4.394   0.266   0.965  0.5664  0.1703 -0.2134
 3308TIP3    H134119   4.453   0.312   1.024  1.0178  0.9283 -1.2456
 3308TIP3    H234120   4.442   0.258   0.883  0.1479 -1.3377 -0.3451
 3309TIP3   OH234121   3.452   1.786   0.506 -0.1821 -0.4585  0.0680
 3309TIP3    H134122   3.382   1.751   0.562 -0.4553  0.1268  0.1050
 3309TIP3    H234123   3.428   1.759   0.418 -0.1442 -0.7577  0.1496
 3310TIP3   OH234124   5.666   2.702   0.070 -0.4451  0.3301 -0.3774
 3310TIP3    H134125   5.618   2.784   0.058  1.1446  0.9991 -3.0111
 3310TIP3    H234126   5.615   2.653   0.135 -4.1357  1.3521 -2.2616
 3311TIP3   OH234127   4.779   0.416   9.368 -0.0336 -0.3630 -0.7391
 3311TIP3    H134128   4.720   0.440   9.439  1.9938 -1.3061  1.3847
 3311TIP3    H234129   4.721   0.393   9.295 -2.2000  0.4612  0.6401
 3312TIP3   OH234130   0.623   5.022   8.612 -0.3283 -0.4156  0.0353
 3312TIP3    H134131   0.621   4.934   8.648  0.5585 -0.3670  0.2356
 3312TIP3    H234132   0.603   5.079   8.686 -0.3357 -0.4184  0.0357
 3313TIP3   OH234133   3.250   1.061   7.572 -0.2402 -0.2453 -0.3285
 3313TIP3    H134134   3.196   1.022   7.503  1.0382 -0.8516 -1.0168
 3313TIP3    H234135   3.340   1.053   7.540  0.6476 -2.5510  2.3262
 3314TIP3   OH234136   1.686   4.605   0.667 -0.2159 -0.1344  0.2642
 3314TIP3    H134137   1.763   4.594   0.724  0.3723 -1.1014 -0.6866
 3314TIP3    H234138   1.649   4.517   0.659 -0.3487  0.0056 -0.7556
 3315TIP3   OH234139   5.426   3.152   0.633  0.0146  0.3012 -0.0390
 3315TIP3    H134140   5.465   3.183   0.551 -0.8160  2.4788  0.3246
 3315TIP3    H234141   5.337   3.126   0.609 -0.0321  0.3746  0.0502
 3316TIP3   OH234142   5.362   0.037   0.171 -0.2565 -0.1775  0.5012
 3316TIP3    H134143   5.331   0.125   0.188 -1.2808 -0.1466 -1.2941
 3316TIP3    H234144   5.285  -0.019   0.180  0.7083 -1.2504  3.4897
 3317TIP3   OH234145   3.046   5.165   8.090  0.1510  0.2963 -0.5673
 3317TIP3    H134146   2.997   5.222   8.150 -0.2125  1.3219 -1.7848
 3317TIP3    H234147   2.980   5.136   8.027  1.0902  1.7154 -2.2491
 3318TIP3   OH234148   5.765   2.476   1.495  0.0630 -0.7331  0.2314
 3318TIP3    H134149   5.766   2.491   1.400  1.3343 -1.8209  0.0422
 3318TIP3    H234150   5.675   2.452   1.514 -0.1568 -0.7573 -0.7611
 3319TIP3   OH234151   3.480   2.576   8.087 -0.0198 -0.1972  0.4851
 3319TIP3    H134152   3.546   2.641   8.112 -1.0875  1.1545 -0.0430
 3319TIP3    H234153   3.407   2.593   8.146 -0.2516 -1.0739  0.4639
 3320TIP3   OH234154   4.217   7.118   8.378 -0.1923  0.0226 -0.2864
 3320TIP3    H134155   4.124   7.095   8.369 -0.1347 -1.4524  2.0027
 3320TIP3    H234156   4.262   7.033   8.379  0.8095  0.5136  1.6489
 3321TIP3   OH234157   0.345   6.304   1.991 -0.3137 -0.2209  0.4315
 3321TIP3    H134158   0.370   6.397   1.990 -0.0358 -0.1252  3.8815
 3321TIP3    H234159   0.250   6.305   1.995 -0.3939 -0.1942 -0.8905
 3322TIP3   OH234160   0.419   1.021   1.817 -0.2886 -0.1512 -0.2684
 3322TIP3    H134161   0.333   0.991   1.847 -1.1002  1.1679 -1.1220
 3322TIP3    H234162   0.422   1.113   1.842 -0.9483  1.0106 -3.8145
 3323TIP3   OH234163   4.445   5.881   0.520 -0.5503 -0.6346 -0.0335
 3323TIP3    H134164   4.364   5.850   0.479 -0.4845  0.4330 -1.0266
 3323TIP3    H234165   4.506   5.808   0.509 -0.7627 -0.6619 -1.1936
 3324TIP3   OH234166   0.781   7.158   2.718 -0.0421  0.3251 -0.2143
 3324TIP3    H134167   0.742   7.086   2.668  1.1816 -0.3075 -0.2888
 3324TIP3    H234168   0.855   7.186   2.665  1.5051 -0.5941  1.3757
 3325TIP3   OH234169   6.452   2.115   2.261 -0.4846  0.4625  0.1962
 3325TIP3    H134170   6.540   2.116   2.299 -0.8214  0.9988  1.0147
 3325TIP3    H234171   6.466   2.106   2.167  0.3809 -1.2931  0.4544
 3326TIP3   OH234172   5.744   0.923   8.501  0.7690  0.4303  0.1435
 3326TIP3    H134173   5.780   1.010   8.517  2.3945 -0.1036 -0.4487
 3326TIP3    H234174   5.699   0.900   8.583 -0.9505  2.3715 -0.1777
 3327TIP3   OH234175   4.577   0.840   0.379 -0.4453 -0.3343 -0.2389
 3327TIP3    H134176   4.621   0.864   0.297 -1.8115  1.2566 -0.5545
 3327TIP3    H234177   4.640   0.863   0.447 -0.0211  0.1202 -0.7729
 3328TIP3   OH234178   4.905   7.283   8.449  0.4389 -0.3808  0.5014
 3328TIP3    H134179   4.943   7.285   8.537 -0.5018  1.8814  0.9240
 3328TIP3    H234180   4.894   7.375   8.426  2.3519 -0.8283 -2.7890
 3329TIP3   OH234181   4.056   5.072   7.285  0.8034  0.1709  0.1681
 3329TIP3    H134182   4.100   5.095   7.203 -0.4932 -0.0649 -0.6224
 3329TIP3    H234183   4.107   4.999   7.320  2.0017  0.9756  0.1384
 3330TIP3   OH234184   3.096   6.728   1.300  0.1964  0.3294 -0.4616
 3330TIP3    H134185   3.087   6.634   1.287  0.1354  0.3843 -0.8297
 3330TIP3    H234186   3.039   6.767   1.234  0.2343  0.6252 -0.3211
 3331TIP3   OH234187   2.938   0.979   1.527  0.0511 -0.9567  0.0102
 3331TIP3    H134188   2.869   1.007   1.467  0.8455  0.5712 -0.2493
 3331TIP3    H234189   2.945   1.051   1.590  1.9510 -0.6579 -0.4793
 3332TIP3   OH234190   5.539   2.255   0.116  0.1489 -0.6215  0.1813
 3332TIP3    H134191   5.561   2.326   0.057  2.9213 -0.5386  1.1528
 3332TIP3    H234192   5.560   2.289   0.203 -1.0468 -1.7303  0.9478
 3333TIP3   OH234193   3.863   5.600   0.012 -0.2748  0.2756  0.4803
 3333TIP3    H134194   3.873   5.680   0.063 -0.1911 -0.2362  1.3009
 3333TIP3    H234195   3.846   5.532   0.078  1.4094 -0.6913 -0.0340
 3334TIP3   OH234196   2.017   4.285   2.431  0.1460 -0.2425  0.5014
 3334TIP3    H134197   2.056   4.210   2.476 -0.6020 -1.0168 -0.1109
 3334TIP3    H234198   1.971   4.247   2.356  1.7008  1.0437 -1.1886
 3335TIP3   OH234199   2.865   2.860   1.316 -0.0043  0.0776  0.0768
 3335TIP3    H134200   2.934   2.906   1.270  1.1573 -1.7593 -0.1146
 3335TIP3    H234201   2.784   2.888   1.273  0.7298  1.2799 -0.5428
 3336TIP3   OH234202   6.072   1.802   1.378 -0.4341 -0.4338 -0.4973
 3336TIP3    H134203   6.113   1.716   1.387 -1.5061 -0.7758  2.0661
 3336TIP3    H234204   5.978   1.783   1.368 -0.5645  0.4352 -1.0383
 3337TIP3   OH234205   5.112   3.801   0.637 -0.3141  0.2096  0.0988
 3337TIP3    H134206   5.122   3.706   0.627 -1.1524  0.0232  0.8523
 3337TIP3    H234207   5.176   3.824   0.705 -0.5383  0.0682  0.3644
 3338TIP3   OH234208   3.373   5.474   0.734 -0.2356  0.8801 -0.0722
 3338TIP3    H134209   3.468   5.462   0.724 -0.0013  0.6604  1.9169
 3338TIP3    H234210   3.339   5.470   0.645  1.7593  2.2789 -0.9868
 3339TIP3   OH234211   3.954   6.848   1.121 -0.0517  0.8649  0.1687
 3339TIP3    H134212   3.958   6.793   1.042  0.6414  2.2739 -0.8330
 3339TIP3    H234213   4.044   6.876   1.135 -0.1791  0.6650  1.4621
 3340TIP3   OH234214   4.787   1.774   9.013 -0.4034  0.6029 -0.3395
 3340TIP3    H134215   4.850   1.712   9.050 -0.8784 -0.3829 -1.1188
 3340TIP3    H234216   4.841   1.838   8.967  0.0609 -0.0786 -0.7722
 3341TIP3   OH234217   2.516   3.637   9.307 -0.1243 -0.0402  0.7068
 3341TIP3    H134218   2.467   3.619   9.387  1.4807 -1.2830  1.4909
 3341TIP3    H234219   2.490   3.568   9.246  0.1716 -0.3261  0.9012
 3342TIP3   OH234220   6.873   1.988   0.612  0.1529  0.2836 -0.3199
 3342TIP3    H134221   6.853   1.948   0.527  0.9609 -0.0976 -0.3384
 3342TIP3    H234222   6.960   2.026   0.600 -0.3242  1.5134 -0.1044
 3343TIP3   OH234223   1.967   0.987   1.547 -0.0586 -0.4636 -0.0583
 3343TIP3    H134224   1.946   1.076   1.520  3.5903  0.9438  1.0339
 3343TIP3    H234225   1.893   0.960   1.601 -0.3568  2.8584  1.4314
 3344TIP3   OH234226   1.741   3.220   9.427 -0.1383 -0.2142 -0.4019
 3344TIP3    H134227   1.814   3.158   9.433 -0.8195 -1.0096 -0.2156
 3344TIP3    H234228   1.673   3.173   9.381 -0.2667  0.8053 -1.2937
 3345TIP3   OH234229   3.303   7.223   1.122 -0.1763 -0.5717 -0.2005
 3345TIP3    H134230   3.357   7.174   1.184 -0.6344 -1.3091 -0.3720
 3345TIP3    H234231   3.214   7.191   1.136 -0.2438 -1.0193 -1.4768
 3346TIP3   OH234232   3.671   5.341   2.727  0.1487  0.3245 -0.7925
 3346TIP3    H134233   3.604   5.395   2.684 -1.6026  0.8788  2.3056
 3346TIP3    H234234   3.628   5.256   2.740  2.0322 -1.1980 -3.4130
 3347TIP3   OH234235   4.403   5.567   1.502 -0.2252  1.0154 -0.0428
 3347TIP3    H134236   4.363   5.647   1.536  0.9221  1.1344  1.0768
 3347TIP3    H234237   4.473   5.598   1.444 -1.2288  0.8001 -1.4430
 3348TIP3   OH234238   3.022   4.750   7.873 -0.4976  0.7925  0.0542
 3348TIP3    H134239   3.099   4.806   7.863  1.3679 -1.4282  1.1604
 3348TIP3    H234240   2.985   4.775   7.958  1.4464 -0.8039  1.4618
 3349TIP3   OH234241   7.154   1.719   1.223 -0.0100  0.0142  0.3271
 3349TIP3    H134242   7.133   1.641   1.274  0.1517 -0.8033 -0.8185
 3349TIP3    H234243   7.170   1.787   1.288 -0.2512 -0.8796  1.3431
 3350TIP3   OH234244   3.668   2.016   9.186  0.2689  0.4205 -0.1461
 3350TIP3    H134245   3.722   1.967   9.124  0.2537 -0.3886  0.4622
 3350TIP3    H234246   3.716   2.009   9.269  0.8358  2.3618 -0.2574
 3351TIP3   OH234247   4.764   2.749   0.079  0.3929  0.5064 -0.0296
 3351TIP3    H134248   4.774   2.822   0.018  1.3707  0.3518 -0.0674
 3351TIP3    H234249   4.806   2.675   0.036  2.2295  0.6924  1.3192
 3352TIP3   OH234250   7.483   5.579   9.396  0.0342 -0.2272 -0.5038
 3352TIP3    H134251   7.415   5.542   9.453 -0.5836 -0.7639 -1.5575
 3352TIP3    H234252   7.539   5.629   9.456 -2.3767  1.9245  0.1731
 3353TIP3   OH234253   7.356   0.757   9.834 -0.5562  0.0082  0.2371
 3353TIP3    H134254   7.326   0.670   9.861  1.5097  0.4701  5.1036
 3353TIP3    H234255   7.297   0.817   9.879 -0.8526  1.1668 -1.6170
 3354TIP3   OH234256   3.386   5.311   1.823  0.3730 -0.3620  0.1831
 3354TIP3    H134257   3.354   5.336   1.910 -1.1544 -1.0760 -0.1473
 3354TIP3    H234258   3.478   5.287   1.837  0.3721  0.2896  1.4422
 3355TIP3   OH234259   3.936   2.034   8.923  0.1065 -0.4770  0.1094
 3355TIP3    H134260   3.860   2.069   8.877  0.2988  0.6124  0.6009
 3355TIP3    H234261   3.999   2.016   8.853  0.1580  0.5573 -0.1340
 3356TIP3   OH234262   5.244   5.034   7.211  0.0284  0.3679 -0.2301
 3356TIP3    H134263   5.309   5.099   7.239 -0.7638  0.1666  2.3247
 3356TIP3    H234264   5.165   5.085   7.193 -0.3211  0.2503  0.8765
 3357TIP3   OH234265   7.609   6.672   8.800  0.2998 -0.5917  0.1169
 3357TIP3    H134266   7.523   6.644   8.832 -0.4025  2.9966  1.9038
 3357TIP3    H234267   7.665   6.671   8.878  1.7884 -2.2121 -0.8945
 3358TIP3   OH234268   0.011   6.765   8.266  0.5351 -0.7971 -0.3371
 3358TIP3    H134269   0.017   6.768   8.170 -0.8770 -3.0024 -0.5513
 3358TIP3    H234270  -0.048   6.837   8.288 -1.9165 -2.3214 -1.5034
 3359TIP3   OH234271   2.741   4.015   8.763  0.4000 -0.4671  0.0521
 3359TIP3    H134272   2.823   4.017   8.713 -0.1405  0.0592 -0.8177
 3359TIP3    H234273   2.767   3.981   8.849  1.9363  1.7478  0.5364
 3360TIP3   OH234274   7.447   2.501   8.287 -0.4711  0.2683 -0.0431
 3360TIP3    H134275   7.394   2.531   8.214 -2.1241 -0.3717  0.8459
 3360TIP3    H234276   7.391   2.438   8.333  0.9017 -0.0984  1.1919
 3361TIP3   OH234277   4.326   0.440   8.853  0.2228 -0.3413  0.4665
 3361TIP3    H134278   4.282   0.387   8.920 -0.2777 -0.4729  0.0447
 3361TIP3    H234279   4.267   0.436   8.778 -1.5497  3.5691  1.4436
 3362TIP3   OH234280   6.268   0.264   9.784 -0.6535 -0.1854  0.1315
 3362TIP3    H134281   6.261   0.186   9.729  0.6414 -0.4050  0.2307
 3362TIP3    H234282   6.354   0.301   9.762 -1.2847  1.2849  0.0008
 3363TIP3   OH234283   4.409   6.691   0.810  0.8129  0.3847  0.1014
 3363TIP3    H134284   4.400   6.783   0.835 -1.3578  0.4284 -0.6634
 3363TIP3    H234285   4.387   6.643   0.889 -1.2104  0.5596 -0.2895
 3364TIP3   OH234286   7.448   0.146   0.265 -0.2687 -0.4717  0.4328
 3364TIP3    H134287   7.532   0.169   0.304 -1.0984 -1.0785  2.6890
 3364TIP3    H234288   7.452   0.051   0.252 -0.6175 -0.5082  0.5832
 3365TIP3   OH234289   3.909   1.213   0.504  0.5072  0.4278 -0.5517
 3365TIP3    H134290   3.861   1.131   0.494  1.4620 -0.0522 -1.3844
 3365TIP3    H234291   3.841   1.281   0.503 -0.1724 -0.2350 -1.5706
 3366TIP3   OH234292   6.466   1.930   1.381 -0.3883 -0.1480  0.3140
 3366TIP3    H134293   6.559   1.951   1.392 -0.1578 -0.5368 -0.7553
 3366TIP3    H234294   6.462   1.885   1.297 -1.5568 -0.1079  0.3370
 3367TIP3   OH234295   5.009   7.210   0.041  0.5426  0.0688  0.9153
 3367TIP3    H134296   4.939   7.275   0.050 -2.8647 -2.5810 -2.9090
 3367TIP3    H234297   4.981   7.137   0.096 -1.1601 -1.8733 -2.2503
 3368TIP3   OH234298   7.490   6.850   9.255 -0.6602  0.0364 -0.1819
 3368TIP3    H134299   7.430   6.776   9.265 -1.7752  0.9079 -0.3498
 3368TIP3    H234300   7.512   6.876   9.344 -0.7293 -0.1242 -0.1176
 3369TIP3   OH234301   1.291   5.977   7.488  0.3982 -0.5926  0.5236
 3369TIP3    H134302   1.241   5.942   7.562  0.6755 -3.7227 -0.6241
 3369TIP3    H234303   1.373   6.006   7.527 -0.9152  1.5740  1.9380
 3370TIP3   OH234304   5.315   5.210   1.194  0.0349 -0.1770 -0.2850
 3370TIP3    H134305   5.239   5.162   1.164 -0.1880  0.0391 -0.0715
 3370TIP3    H234306   5.373   5.214   1.117 -0.2580 -0.1642 -0.5076
 3371TIP3   OH234307   2.393   6.897   7.868 -0.6399  0.1860 -0.4421
 3371TIP3    H134308   2.357   6.854   7.791 -1.7220  1.5612 -0.7521
 3371TIP3    H234309   2.367   6.989   7.858 -0.3798  0.4807  1.3131
 3372TIP3   OH234310   5.094   1.443   8.598  0.3819 -0.0517 -0.0433
 3372TIP3    H134311   5.164   1.378   8.599 -1.3194 -2.0309  1.9189
 3372TIP3    H234312   5.021   1.399   8.554 -0.7497  0.5512  1.1449
 3373TIP3   OH234313   2.926   3.779   7.857 -0.1666 -0.2722 -0.2741
 3373TIP3    H134314   2.832   3.777   7.876 -0.1650  0.2028 -0.1977
 3373TIP3    H234315   2.952   3.687   7.853 -0.3791 -0.4081  1.0028
 3374TIP3   OH234316   5.154   3.847   1.481 -0.0498  0.0686  0.0986
 3374TIP3    H134317   5.066   3.813   1.502 -0.1267 -0.2942 -0.7555
 3374TIP3    H234318   5.185   3.884   1.563 -0.9120 -0.0087  0.4770
 3375TIP3   OH234319   0.364   6.588   0.170  0.7203 -0.0071 -0.4278
 3375TIP3    H134320   0.425   6.593   0.244 -1.3924  1.7425  1.3447
 3375TIP3    H234321   0.391   6.661   0.113 -0.5378  1.8164  1.1571
 3376TIP3   OH234322   4.687   5.351   1.864  0.3193 -0.0736  0.3351
 3376TIP3    H134323   4.775   5.352   1.902  0.2491 -0.5799  0.5223
 3376TIP3    H234324   4.695   5.292   1.789  0.2318  0.1841  0.1244
 3377TIP3   OH234325   0.903   0.649   2.901  0.3144 -0.2880  0.1053
 3377TIP3    H134326   0.916   0.563   2.861 -0.5012 -0.1844 -0.4095
 3377TIP3    H234327   0.932   0.711   2.834  1.0834 -0.1507  0.5477
 3378TIP3   OH234328   1.864   4.562   8.990 -0.3285  0.4847 -0.7406
 3378TIP3    H134329   1.864   4.484   9.046 -0.1205  0.7754 -0.3240
 3378TIP3    H234330   1.788   4.551   8.934 -1.7215  1.1181  0.9391
 3379TIP3   OH234331   5.327   7.641   9.557  0.4183 -0.5399 -0.5342
 3379TIP3    H134332   5.417   7.635   9.526  0.5930  2.0067 -0.7432
 3379TIP3    H234333   5.314   7.734   9.576 -2.2008 -0.7987 -0.6106
 3380TIP3   OH234334   7.191   4.422   9.586  0.1055 -0.4386 -0.2354
 3380TIP3    H134335   7.285   4.414   9.575  0.3886  2.6655 -1.0861
 3380TIP3    H234336   7.156   4.413   9.498 -0.0813  0.8586 -0.3213
 3381TIP3   OH234337   1.290   3.588   7.614  0.6149  0.2784 -0.3167
 3381TIP3    H134338   1.358   3.642   7.655 -0.2420 -0.8767  2.9095
 3381TIP3    H234339   1.210   3.641   7.620  0.2773 -0.3049  0.5349
 3382TIP3   OH234340   0.344   1.948   1.145  0.5767 -0.1486 -0.0106
 3382TIP3    H134341   0.405   1.895   1.195  0.5914 -0.1959 -0.0785
 3382TIP3    H234342   0.257   1.921   1.175  0.5878 -0.1234  0.0435
 3383TIP3   OH234343   2.419   3.128   1.603 -0.4199  0.2752  0.7307
 3383TIP3    H134344   2.362   3.052   1.617  0.5398 -0.1656  2.5710
 3383TIP3    H234345   2.394   3.190   1.672  0.4149  0.6312  0.7276
 3384TIP3   OH234346   7.374   3.531   0.087 -0.1949 -0.9620  0.1056
 3384TIP3    H134347   7.350   3.612   0.042 -1.8581 -2.1773 -1.3614
 3384TIP3    H234348   7.431   3.559   0.159 -2.2606  1.7217  0.8646
 3385TIP3   OH234349   2.490   4.491   7.986  0.4036  0.2356  0.1974
 3385TIP3    H134350   2.449   4.493   8.072  0.5766  2.6089  0.2821
 3385TIP3    H234351   2.558   4.559   7.989 -0.5323  1.4354 -2.2146
 3386TIP3   OH234352   6.105   5.148   9.865  0.4967 -0.4881 -0.1178
 3386TIP3    H134353   6.060   5.220   9.820  1.4279 -0.0750 -0.4095
 3386TIP3    H234354   6.189   5.184   9.891  1.2442 -1.6421 -0.8279
 3387TIP3   OH234355   5.952   5.109   8.279  0.0989  0.3428  0.4171
 3387TIP3    H134356   5.964   5.016   8.258 -1.9462 -0.6702  3.1123
 3387TIP3    H234357   5.861   5.116   8.307  0.3578  3.0641  0.8971
 3388TIP3   OH234358   1.869   4.532   1.377  0.3935 -0.4880  0.0524
 3388TIP3    H134359   1.786   4.487   1.361 -0.8992  2.1167 -1.0932
 3388TIP3    H234360   1.935   4.463   1.369 -1.4187 -2.1596 -1.8324
 3389TIP3   OH234361   2.301   6.897   3.076 -0.4370 -0.0890 -0.2999
 3389TIP3    H134362   2.240   6.941   3.016 -0.0967 -1.2493 -1.5524
 3389TIP3    H234363   2.248   6.832   3.121 -0.4949  0.1431 -0.0296
 3390TIP3   OH234364   7.499   5.303   9.394 -0.0466  0.2671 -0.4509
 3390TIP3    H134365   7.451   5.360   9.333 -0.9886  1.1661  1.0632
 3390TIP3    H234366   7.490   5.215   9.356 -0.9547  0.7430 -1.3916
 3391TIP3   OH234367   2.018   5.331   2.228  0.7086 -0.4482 -0.1471
 3391TIP3    H134368   1.982   5.315   2.141 -0.5685  0.2824  0.2300
 3391TIP3    H234369   2.109   5.357   2.211  0.0590  1.2017 -1.3960
 3392TIP3   OH234370   6.697   7.507   9.828 -0.0646 -0.1264 -0.6151
 3392TIP3    H134371   6.647   7.438   9.784 -1.4155 -0.7312  1.6522
 3392TIP3    H234372   6.630   7.565   9.863  1.0211  1.5103 -1.1583
 3393TIP3   OH234373   7.438   5.296   7.401 -0.0103 -0.3672 -0.1591
 3393TIP3    H134374   7.498   5.370   7.390  0.9521 -0.7506  1.9292
 3393TIP3    H234375   7.389   5.292   7.319  2.7038  0.0786 -1.9266
 3394TIP3   OH234376   7.196   5.047   9.306 -0.6762  0.1973 -0.1779
 3394TIP3    H134377   7.184   5.026   9.399 -1.6661 -1.0710 -0.5595
 3394TIP3    H234378   7.149   4.978   9.260  1.3178 -0.2734 -1.6686
 3395TIP3   OH234379   6.019   6.125   8.114 -0.2521  0.3956 -0.3361
 3395TIP3    H134380   5.992   6.089   8.029 -0.7520 -0.3490  0.1265
 3395TIP3    H234381   6.002   6.054   8.176  2.6963 -0.1282  0.0182
 3396TIP3   OH234382   6.675   1.635   1.523  0.4086  0.4748  0.3542
 3396TIP3    H134383   6.655   1.576   1.596  0.1288  0.4770  0.2788
 3396TIP3    H234384   6.590   1.666   1.493  0.3948 -0.8294 -1.0695
 3397TIP3   OH234385   2.923   0.401   8.236  0.2062  0.1475 -0.1189
 3397TIP3    H134386   2.878   0.380   8.318 -1.0238  0.0371 -0.7954
 3397TIP3    H234387   2.914   0.322   8.182  2.0857 -0.2402  0.0665
 3398TIP3   OH234388   2.407   4.258   8.379 -0.1672  0.2163  0.2733
 3398TIP3    H134389   2.497   4.228   8.367 -0.4524 -0.7932  0.5413
 3398TIP3    H234390   2.361   4.183   8.417 -1.0119  0.8769  0.6098
 3399TIP3   OH234391   6.831   1.841   1.525 -0.5703 -0.0450  0.1238
 3399TIP3    H134392   6.799   1.878   1.608 -1.5445  0.2344 -0.3610
 3399TIP3    H234393   6.775   1.765   1.510  0.7156 -1.1207  0.5600
 3400TIP3   OH234394   2.785   1.837   7.777 -0.1730 -0.0880  0.3676
 3400TIP3    H134395   2.720   1.767   7.782 -0.6828  0.3849  0.4746
 3400TIP3    H234396   2.735   1.916   7.796  0.5305  0.2283  0.8963
 3401TIP3   OH234397   1.727   6.060   2.653  0.1504  0.0237  0.0342
 3401TIP3    H134398   1.653   6.110   2.619 -0.3054 -1.2735 -0.9711
 3401TIP3    H234399   1.693   5.971   2.663  1.0735 -0.2146  1.2992
 3402TIP3   OH234400   2.246   0.939   2.357 -0.1434 -0.8661  0.1813
 3402TIP3    H134401   2.239   0.846   2.335 -1.5443 -0.2816 -2.2571
 3402TIP3    H234402   2.325   0.969   2.312 -0.9631 -0.4640 -1.0855
 3403TIP3   OH234403   6.355   7.046   7.857 -0.3224  0.4643  0.0553
 3403TIP3    H134404   6.405   7.101   7.797 -2.0792  1.6571 -0.3526
 3403TIP3    H234405   6.324   6.973   7.803 -1.1563  1.0740 -0.3111
 3404TIP3   OH234406   4.542   6.782   8.143 -0.3001  0.0555  0.4921
 3404TIP3    H134407   4.534   6.760   8.236  0.3772  0.5437  0.6716
 3404TIP3    H234408   4.562   6.876   8.143  1.7076 -0.3315 -0.0653
 3405TIP3   OH234409   5.611   1.850   1.076  0.5134  0.3555 -0.0079
 3405TIP3    H134410   5.634   1.895   0.994  0.1135  3.1260  1.2739
 3405TIP3    H234411   5.516   1.855   1.080  0.3729 -1.4917 -0.2244
 3406TIP3   OH234412   7.032   4.908   8.370  0.3244 -0.1418  0.1140
 3406TIP3    H134413   7.071   4.919   8.283 -1.3172 -0.4549 -0.7061
 3406TIP3    H234414   6.938   4.919   8.355 -0.1403 -1.7492  1.5716
 3407TIP3   OH234415   5.009   3.249   9.759  0.5864 -0.4938  0.7167
 3407TIP3    H134416   4.980   3.216   9.674  1.6704 -0.0433  0.1420
 3407TIP3    H234417   4.990   3.343   9.755  2.4208 -0.1085  0.1520
 3408TIP3   OH234418   3.567   1.860   7.145 -0.0734  0.7344  0.4699
 3408TIP3    H134419   3.625   1.891   7.213 -0.0730  0.9900  0.3541
 3408TIP3    H234420   3.536   1.940   7.101  1.1837  0.5209 -0.8713
 3409TIP3   OH234421   0.772   3.133   2.499 -0.3360  0.6247  0.4106
 3409TIP3    H134422   0.826   3.206   2.469 -0.5811  1.1809  1.2967
 3409TIP3    H234423   0.795   3.122   2.591 -0.5608 -0.1904  0.3772
 3410TIP3   OH234424   3.890   6.568   0.479  0.1142  0.1404  0.3572
 3410TIP3    H134425   3.893   6.598   0.388 -0.5350 -0.6789  0.0627
 3410TIP3    H234426   3.941   6.634   0.527 -2.0712  2.3325 -0.1066
 3411TIP3   OH234427   1.945   5.863   7.955  0.1894  0.0938  0.0631
 3411TIP3    H134428   1.864   5.857   7.904 -0.7559 -0.8603  1.5908
 3411TIP3    H234429   2.001   5.796   7.916  0.4368  1.0261 -1.2641
 3412TIP3   OH234430   4.483   6.840   0.552  0.1700 -0.4089 -0.2646
 3412TIP3    H134431   4.483   6.815   0.644 -1.5374 -1.8172 -0.5836
 3412TIP3    H234432   4.437   6.925   0.550 -2.1746 -1.5795 -0.0084
 3413TIP3   OH234433   1.781   5.812   1.482 -0.1419 -0.0445  0.0612
 3413TIP3    H134434   1.711   5.747   1.474 -0.2294 -0.1493  1.3828
 3413TIP3    H234435   1.841   5.793   1.410  0.1800 -2.0327  0.7970
 3414TIP3   OH234436   3.060   4.986   6.737 -0.3018  0.3162  0.8970
 3414TIP3    H134437   2.989   5.044   6.708 -1.4621 -0.2383  2.4812
 3414TIP3    H234438   3.099   5.031   6.812  1.1040  0.6459 -0.0057
 3415TIP3   OH234439   0.917   4.249   7.502  0.7682 -0.4428 -0.2496
 3415TIP3    H134440   0.946   4.244   7.593  1.4693 -0.9503 -0.4963
 3415TIP3    H234441   0.854   4.177   7.494  2.1679 -1.6629 -0.6750
 3416TIP3   OH234442   1.663   7.059   6.945  0.6645 -0.3569  0.2642
 3416TIP3    H134443   1.620   7.143   6.958 -0.5972 -1.0609  0.9105
 3416TIP3    H234444   1.648   7.038   6.853 -1.6211 -1.1748  0.7382
 3417TIP3   OH234445   2.472   3.827   0.945  0.6983  0.1722 -0.2186
 3417TIP3    H134446   2.473   3.749   1.001  1.0301 -0.7543 -1.4702
 3417TIP3    H234447   2.440   3.796   0.861  0.3146  1.5138 -0.5908
 3418TIP3   OH234448   6.618   4.365   1.288 -0.2912  0.0862  0.7623
 3418TIP3    H134449   6.634   4.282   1.331 -0.0454  0.1067  0.7106
 3418TIP3    H234450   6.602   4.343   1.196  0.3667  0.1452  0.6279
 3419TIP3   OH234451   1.603   6.967   8.535  0.5862 -0.1249 -0.6991
 3419TIP3    H134452   1.645   7.000   8.457 -0.9657  1.2700 -0.9969
 3419TIP3    H234453   1.599   7.042   8.594 -0.5787 -0.4738 -0.3123
 3420TIP3   OH234454   7.096   7.328   8.333 -0.0032 -0.3071  0.2135
 3420TIP3    H134455   7.047   7.391   8.280 -1.1441 -0.8547  0.6035
 3420TIP3    H234456   7.173   7.378   8.363 -0.3301  0.5746 -0.3676
 3421TIP3   OH234457   0.703   3.707   0.036  0.2887  0.8706 -0.0800
 3421TIP3    H134458   0.617   3.689  -0.004  0.1741  1.5122 -0.1274
 3421TIP3    H234459   0.761   3.642  -0.003 -0.6110 -1.0381  1.5747
 3422TIP3   OH234460   3.417   5.766   9.442  0.0622  0.1149  0.1970
 3422TIP3    H134461   3.411   5.740   9.534  0.2093  1.8418  0.7296
 3422TIP3    H234462   3.344   5.827   9.430 -0.4790 -0.7505 -1.0796
 3423TIP3   OH234463   0.703   5.448   1.737  0.3056  0.0300  0.2061
 3423TIP3    H134464   0.768   5.398   1.787  0.1856  0.1826  0.5215
 3423TIP3    H234465   0.755   5.499   1.674  0.5143  0.3431  0.6258
 3424TIP3   OH234466   1.749   0.144   0.289 -0.0805  0.6362  0.0294
 3424TIP3    H134467   1.771   0.173   0.378 -0.6918  0.1042  0.3619
 3424TIP3    H234468   1.823   0.088   0.264 -1.1039 -1.4019  1.2635
 3425TIP3   OH234469   3.602   3.199   0.877 -0.0758  0.1923 -0.3566
 3425TIP3    H134470   3.573   3.108   0.864  1.7234 -0.3236 -1.0681
 3425TIP3    H234471   3.531   3.239   0.927 -0.6549 -1.7587  0.5070
 3426TIP3   OH234472   1.318   1.719   7.310 -0.1812 -0.5841  0.2866
 3426TIP3    H134473   1.369   1.796   7.288  0.6390 -1.4055 -0.7846
 3426TIP3    H234474   1.313   1.669   7.229  0.2546 -2.1884  1.2023
 3427TIP3   OH234475   3.132   5.209   1.056 -0.0402  0.2178  0.0977
 3427TIP3    H134476   3.210   5.260   1.078 -0.5558  0.8121  0.5725
 3427TIP3    H234477   3.137   5.132   1.113  0.5896 -0.1453 -0.4215
 3428TIP3   OH234478   4.259   2.840   0.079 -0.0063 -0.1243 -0.2374
 3428TIP3    H134479   4.248   2.880   0.166  0.7228 -0.1334 -0.1359
 3428TIP3    H234480   4.276   2.748   0.097  2.7560  0.3064 -0.2192
 3429TIP3   OH234481   0.504   2.168   8.797  0.1809  0.3298 -0.8656
 3429TIP3    H134482   0.558   2.140   8.723 -1.5068  0.1027 -2.0573
 3429TIP3    H234483   0.567   2.208   8.858  1.7336 -0.2592 -2.0054
 3430TIP3   OH234484   0.245   3.710   1.381 -0.7067  0.0685  0.3797
 3430TIP3    H134485   0.252   3.621   1.417 -0.3111 -0.6345 -1.3374
 3430TIP3    H234486   0.152   3.732   1.390 -1.7609 -2.2605 -2.8777
 3431TIP3   OH234487   5.169   3.028   9.147  0.0142  0.0100  0.0494
 3431TIP3    H134488   5.245   2.974   9.126 -0.2597 -0.4428  0.2163
 3431TIP3    H234489   5.163   3.089   9.073  0.2317 -0.2854 -0.2168
 3432TIP3   OH234490   7.191   0.519   9.936  0.1956 -0.3110  0.5558
 3432TIP3    H134491   7.104   0.503   9.899 -0.2233  1.1811  0.8345
 3432TIP3    H234492   7.247   0.454   9.894 -0.6483  0.0171 -1.1841
 3433TIP3   OH234493   1.077   5.936   1.672 -0.0153  0.4677  0.0742
 3433TIP3    H134494   1.048   5.944   1.763  0.2605  0.1341  0.1924
 3433TIP3    H234495   1.003   5.968   1.620 -0.9387 -1.1539  0.3397
 3434TIP3   OH234496   6.255   2.709   8.912 -0.0886 -0.0102  0.2126
 3434TIP3    H134497   6.206   2.629   8.931 -1.3255  0.8232  0.6457
 3434TIP3    H234498   6.232   2.730   8.821  0.6877 -0.4443 -0.0920
 3435TIP3   OH234499   2.418   3.511   2.528  0.3207  0.2695 -0.4839
 3435TIP3    H134500   2.475   3.568   2.580 -0.6148 -0.8229  1.8751
 3435TIP3    H234501   2.336   3.507   2.578 -0.1494 -1.9813 -1.3189
 3436TIP3   OH234502   0.561   3.042   1.087 -1.1477 -0.0422 -0.6299
 3436TIP3    H134503   0.516   2.980   1.145  0.6721 -1.0577 -0.2277
 3436TIP3    H234504   0.583   2.989   1.009  0.7859 -0.0668 -0.1119
 3437TIP3   OH234505   1.123   4.858   1.477  0.2632  0.2890  0.4296
 3437TIP3    H134506   1.050   4.804   1.508  0.2622 -0.7880 -1.3322
 3437TIP3    H234507   1.188   4.851   1.547 -1.1463  0.9852  1.8730
 3438TIP3   OH234508   4.475   0.764   0.049 -0.2407  0.4419 -0.5949
 3438TIP3    H134509   4.528   0.688   0.026 -1.3402 -0.6948  0.4812
 3438TIP3    H234510   4.538   0.829   0.078  0.6272 -0.6316  0.0040
 3439TIP3   OH234511   4.300   6.667   1.878  0.0768 -0.2436 -0.9784
 3439TIP3    H134512   4.360   6.598   1.908 -0.1432 -0.4950 -1.1160
 3439TIP3    H234513   4.213   6.634   1.898 -0.1802 -1.1564 -3.3325
 3440TIP3   OH234514   0.863   3.750   9.147 -0.1702 -0.4283 -0.4991
 3440TIP3    H134515   0.874   3.833   9.194 -1.8884  0.0399 -0.8650
 3440TIP3    H234516   0.943   3.740   9.095 -0.2690  1.3830 -1.0340
 3441TIP3   OH234517   5.772   1.442   0.797  0.8639 -0.3433 -0.9362
 3441TIP3    H134518   5.751   1.534   0.786  0.6073 -0.3950 -0.8864
 3441TIP3    H234519   5.725   1.398   0.726  0.3181 -0.5246 -0.4721
 3442TIP3   OH234520   5.505   3.041   1.703  0.0555  0.2691 -0.2055
 3442TIP3    H134521   5.576   3.039   1.638 -1.1731  2.2482 -1.6787
 3442TIP3    H234522   5.538   3.098   1.773  0.7731 -0.6549  0.2430
 3443TIP3   OH234523   0.870   5.029   8.939  0.3311  0.0018  0.3734
 3443TIP3    H134524   0.806   5.096   8.962 -0.0774 -0.3381  0.2368
 3443TIP3    H234525   0.849   5.005   8.849  0.2963 -0.5040  0.5117
 3444TIP3   OH234526   3.310   4.681   9.974  0.0986  0.0914 -0.1798
 3444TIP3    H134527   3.331   4.621   9.902  2.0099 -0.7740  1.0052
 3444TIP3    H234528   3.215   4.680   9.980  0.0497 -3.0639 -0.0520
 3445TIP3   OH234529   3.046   1.549   9.336  0.1782  0.0961  0.2134
 3445TIP3    H134530   3.036   1.486   9.265 -0.8437  0.0166  0.4191
 3445TIP3    H234531   3.042   1.634   9.293 -1.5694  0.0758  0.2773
 3446TIP3   OH234532   0.918   6.024   9.191  0.0750  0.2228 -0.2934
 3446TIP3    H134533   0.967   5.967   9.132 -0.7181 -0.2248 -0.5414
 3446TIP3    H234534   0.966   6.107   9.190  1.1303 -0.3707 -0.0785
 3447TIP3   OH234535   4.145   2.461   7.867  0.1770  0.1420  0.1584
 3447TIP3    H134536   4.050   2.451   7.863  0.3274 -1.4770 -0.3128
 3447TIP3    H234537   4.160   2.556   7.870 -1.4738  0.4019  1.5467
 3448TIP3   OH234538   6.332   2.966   1.933 -0.7665 -0.5277  0.3765
 3448TIP3    H134539   6.328   2.985   1.839  0.4763 -1.6772  0.0587
 3448TIP3    H234540   6.298   2.876   1.940 -0.1491 -0.7229  0.9267
 3449TIP3   OH234541   1.386   5.026   8.689 -0.1270  0.1420  0.6443
 3449TIP3    H134542   1.318   5.011   8.755 -2.3114 -0.3658 -1.5481
 3449TIP3    H234543   1.368   5.113   8.655  0.9913  0.4176  0.7310
 3450TIP3   OH234544   1.691   3.491   7.814  0.1484  0.0039 -0.3136
 3450TIP3    H134545   1.623   3.437   7.774  0.3199 -0.0338 -0.5618
 3450TIP3    H234546   1.721   3.548   7.743  1.9055 -1.4755 -0.8473
 3451TIP3   OH234547   1.405   4.631   1.012  0.0157  0.5716  0.6215
 3451TIP3    H134548   1.488   4.674   0.994 -0.2305  0.5281 -0.6833
 3451TIP3    H234549   1.349   4.655   0.939 -0.0486 -2.1644 -0.3300
 3452TIP3   OH234550   4.331   4.678   0.078  0.0951 -0.8795 -0.1994
 3452TIP3    H134551   4.312   4.768   0.054  1.7296 -0.1944  0.9012
 3452TIP3    H234552   4.332   4.677   0.174 -3.8658 -3.0145  0.0549
 3453TIP3   OH234553   2.415   0.914   9.232  0.1750 -0.0362  0.1662
 3453TIP3    H134554   2.480   0.958   9.177  1.3221 -0.4021  1.2048
 3453TIP3    H234555   2.407   0.826   9.194 -0.6029  0.3707 -0.6622
 3454TIP3   OH234556   2.202   1.907   0.356 -0.1600  0.1155 -0.2161
 3454TIP3    H134557   2.295   1.911   0.379 -0.3291 -1.0835  0.7876
 3454TIP3    H234558   2.178   1.815   0.368 -1.2752  0.2413 -1.3244
 3455TIP3   OH234559   0.894   4.464   8.627  0.3170  0.0850 -0.1438
 3455TIP3    H134560   0.911   4.527   8.556 -0.5860 -0.4545 -0.8613
 3455TIP3    H234561   0.815   4.495   8.669 -0.0460 -0.4686 -0.4008
 3456TIP3   OH234562   6.813   2.343   0.605  0.1142 -0.2311  0.4209
 3456TIP3    H134563   6.897   2.317   0.568 -0.4148  0.9327 -1.7853
 3456TIP3    H234564   6.826   2.433   0.633 -0.8001  0.5880 -1.5815
 3457TIP3   OH234565   4.252   0.603   7.989 -0.2959 -0.4712 -0.1108
 3457TIP3    H134566   4.319   0.555   8.038  0.9138  0.9794 -0.2835
 3457TIP3    H234567   4.197   0.534   7.951  1.0306 -1.7104  0.1141
 3458TIP3   OH234568   3.866   5.845   7.850  0.2118 -0.0554 -0.4600
 3458TIP3    H134569   3.904   5.802   7.927 -0.5159  0.3305  0.1296
 3458TIP3    H234570   3.776   5.864   7.876  0.3335  1.2432 -0.9414
 3459TIP3   OH234571   7.656   3.354   9.862  0.1506 -0.2644 -0.8716
 3459TIP3    H134572   7.693   3.442   9.875  0.5933 -0.6076  0.3037
 3459TIP3    H234573   7.635   3.351   9.769  0.9264  0.7834 -1.1067
 3460TIP3   OH234574   5.425   3.502   8.308 -0.4572  0.1057 -0.0675
 3460TIP3    H134575   5.382   3.489   8.223 -1.4777  1.9375  0.1229
 3460TIP3    H234576   5.519   3.500   8.288 -0.6816  0.2420 -1.1897
 3461TIP3   OH234577   1.588   6.143   7.387 -0.1966 -0.1555 -0.2457
 3461TIP3    H134578   1.598   6.119   7.479 -1.1301 -0.8018 -0.3017
 3461TIP3    H234579   1.539   6.225   7.389  0.8520  0.4841 -0.1375
 3462TIP3   OH234580   1.336   3.908   0.802  0.0200 -0.0833 -0.0123
 3462TIP3    H134581   1.364   3.964   0.875  1.3669 -2.0744  1.1156
 3462TIP3    H234582   1.250   3.875   0.829 -0.4961  0.9157 -0.3953
 3463TIP3   OH234583   2.791   6.366   8.836 -0.2942  0.0328 -0.0665
 3463TIP3    H134584   2.866   6.411   8.874  0.4301 -0.2766 -1.0742
 3463TIP3    H234585   2.822   6.277   8.821 -1.5110 -0.6665  1.3271
 3464TIP3   OH234586   1.588   7.072   0.575 -0.6590  0.2976 -0.5451
 3464TIP3    H134587   1.504   7.026   0.566  0.2591 -1.7679  0.8053
 3464TIP3    H234588   1.627   7.067   0.487 -0.7525 -1.2502 -0.5354
 3465TIP3   OH234589   6.468   7.606   9.999  0.2308 -0.1131  0.5242
 3465TIP3    H134590   6.378   7.581   9.975 -0.3010  1.1144  1.1117
 3465TIP3    H234591   6.502   7.531  10.046 -0.0036 -1.1267 -0.8622
 3466TIP3   OH234592   1.416   5.221   1.551  0.0236  0.2403  0.2785
 3466TIP3    H134593   1.450   5.280   1.483 -0.0100 -1.2024 -1.0429
 3466TIP3    H234594   1.321   5.233   1.548  0.0227  0.1887  0.0713
 3467TIP3   OH234595   0.812   2.168   8.499 -0.0733  0.0505  0.1118
 3467TIP3    H134596   0.885   2.119   8.460  1.8880  1.1257  2.1676
 3467TIP3    H234597   0.846   2.257   8.508 -1.3640  0.4151  1.7945
 3468TIP3   OH234598   0.344   5.555   2.429  0.6037  0.6164  1.3535
 3468TIP3    H134599   0.314   5.472   2.392  1.8068  0.3447  0.9383
 3468TIP3    H234600   0.343   5.540   2.523  0.7093  0.1602  1.2883
 3469TIP3   OH234601   4.190   5.982   8.449  0.4148 -0.4369 -0.4919
 3469TIP3    H134602   4.239   6.001   8.529 -0.2910  0.6300 -0.2911
 3469TIP3    H234603   4.255   5.988   8.379  0.7793 -0.0885 -0.1274
 3470TIP3   OH234604   4.208   3.071   1.764 -0.2411 -0.2193  0.0132
 3470TIP3    H134605   4.225   3.152   1.812 -1.1515 -0.3112  0.5145
 3470TIP3    H234606   4.165   3.014   1.828 -0.7691 -0.6271 -0.6909
 3471TIP3   OH234607   5.004   4.460   1.776 -0.0995  0.2771 -0.4875
 3471TIP3    H134608   4.918   4.453   1.817 -0.2023  0.5756 -0.6438
 3471TIP3    H234609   5.028   4.370   1.753  0.1244  0.0566  0.5543
 3472TIP3   OH234610   0.903   7.026   2.380 -0.3117 -0.2544  0.3177
 3472TIP3    H134611   0.863   6.939   2.371 -0.4781 -0.0902 -0.7464
 3472TIP3    H234612   0.996   7.010   2.368 -0.0513 -0.5758  2.3631
 3473TIP3   OH234613   3.940   5.872   9.492 -0.1400  0.3992 -0.3183
 3473TIP3    H134614   3.860   5.827   9.465 -0.0869  1.0409 -1.6508
 3473TIP3    H234615   3.958   5.840   9.580  0.0913 -2.4618 -1.2978
 3474TIP3   OH234616   3.824   1.589   8.866  1.0266  0.0022  0.1216
 3474TIP3    H134617   3.763   1.595   8.792  0.8751 -3.1212 -0.1742
 3474TIP3    H234618   3.883   1.663   8.855  1.6080 -0.7994 -3.7795
 3475TIP3   OH234619   6.183   1.902   9.267  0.0305 -0.3418 -0.1384
 3475TIP3    H134620   6.227   1.911   9.352  1.5698 -2.3848 -0.6665
 3475TIP3    H234621   6.119   1.832   9.280 -0.0923 -0.3033 -0.5174
 3476TIP3   OH234622   3.934   4.172   7.784 -0.5227  0.2765 -0.0731
 3476TIP3    H134623   3.857   4.228   7.794 -0.7197 -0.0185  0.1018
 3476TIP3    H234624   3.899   4.091   7.747 -0.5708 -0.4876  1.5728
 3477TIP3   OH234625   4.149   3.240   9.899  0.7926 -0.3169  0.0110
 3477TIP3    H134626   4.128   3.324   9.939  0.8529 -0.1575 -0.2892
 3477TIP3    H234627   4.192   3.263   9.816 -0.2453 -0.6280 -0.6400
 3478TIP3   OH234628   1.424   4.970   1.428 -0.0796 -0.1580 -0.0887
 3478TIP3    H134629   1.439   5.054   1.473 -1.1900  1.1974 -2.0876
 3478TIP3    H234630   1.367   4.921   1.486  0.7250  0.3812  1.2036
 3479TIP3   OH234631   1.809   4.621   8.115 -0.4362  0.2626 -0.3194
 3479TIP3    H134632   1.854   4.705   8.119  2.9291 -1.4234  1.6358
 3479TIP3    H234633   1.872   4.562   8.074 -2.3816 -1.5543 -0.8879
 3480TIP3   OH234634   3.925   4.025   8.171  0.4413  0.2844 -0.2714
 3480TIP3    H134635   3.958   4.079   8.243 -0.1181  3.3609 -2.1405
 3480TIP3    H234636   3.832   4.015   8.188  0.8553 -2.1475  1.1804
 3481TIP3   OH234637   0.144   4.350   2.076 -0.1845 -0.1420  0.1473
 3481TIP3    H134638   0.156   4.333   1.983  0.9166 -1.5886  0.5256
 3481TIP3    H234639   0.103   4.270   2.110 -3.2883  1.4123  0.4550
 3482TIP3   OH234640   6.405   6.960   9.773  0.1058  0.1943  0.2258
 3482TIP3    H134641   6.344   6.924   9.838  1.5661  0.2610  1.6804
 3482TIP3    H234642   6.488   6.968   9.819  0.7665  1.9329 -1.1492
 3483TIP3   OH234643   6.017   3.995   1.837  0.2371 -0.6016  0.0879
 3483TIP3    H134644   5.928   3.980   1.871  0.3267 -1.2092  0.0649
 3483TIP3    H234645   6.073   3.942   1.895  0.4921 -0.8820 -0.4111
 3484TIP3   OH234646   2.828   6.880   0.299 -0.2794 -0.0452  0.5709
 3484TIP3    H134647   2.736   6.871   0.327 -0.5834  0.9537 -0.0600
 3484TIP3    H234648   2.823   6.899   0.205  0.5166  0.9644  0.7087
 3485TIP3   OH234649   2.603   0.184   9.830 -0.3119  0.1411  0.2995
 3485TIP3    H134650   2.623   0.186   9.924 -2.5275  2.1649  0.8238
 3485TIP3    H234651   2.655   0.255   9.793 -0.4892  0.2348  0.2324
 3486TIP3   OH234652   3.600   5.935   8.978  0.4135  0.3254 -0.2015
 3486TIP3    H134653   3.570   5.846   8.959  0.8377  0.2739 -0.6234
 3486TIP3    H234654   3.691   5.924   9.005  0.4285  0.6205 -0.1303
 3487TIP3   OH234655   3.828   1.086   9.102 -1.0388  0.5352  0.4884
 3487TIP3    H134656   3.858   1.168   9.140  0.1926  0.4362 -0.2273
 3487TIP3    H234657   3.879   1.019   9.146 -1.1136  0.2598  0.1633
 3488TIP3   OH234658   7.553   5.788   0.187  0.0816 -0.2197  0.0797
 3488TIP3    H134659   7.492   5.858   0.211  2.5509  1.4791  1.8716
 3488TIP3    H234660   7.499   5.725   0.138 -2.1650  3.1554 -2.2202
 3489TIP3   OH234661   2.816   4.260   8.215  0.2415 -0.0507  0.1912
 3489TIP3    H134662   2.778   4.183   8.258 -0.4946  1.2565  1.9946
 3489TIP3    H234663   2.881   4.292   8.278  1.3508  0.1888 -1.0359
 3490TIP3   OH234664   1.896   3.114   6.998 -0.2695  0.5897 -0.2049
 3490TIP3    H134665   1.979   3.150   7.028 -0.8991  1.5697  0.4082
 3490TIP3    H234666   1.872   3.167   6.923  0.5755 -0.9299 -1.6280
 3491TIP3   OH234667   6.991   0.836   1.524 -0.3689  0.1503  0.2928
 3491TIP3    H134668   6.984   0.799   1.611  1.3684  0.9998  0.8264
 3491TIP3    H234669   6.992   0.761   1.465  1.5277 -0.6151  1.2352
 3492TIP3   OH234670   3.320   1.907   9.789 -0.5053  0.3269 -0.2219
 3492TIP3    H134671   3.365   1.865   9.716 -1.6176 -0.4256 -0.5081
 3492TIP3    H234672   3.382   1.973   9.821  0.2146  0.3017 -1.4879
 3493TIP3   OH234673   7.414   0.308   8.257  0.4291  0.4076 -0.1188
 3493TIP3    H134674   7.487   0.324   8.198 -0.5694 -0.9502 -1.8280
 3493TIP3    H234675   7.432   0.223   8.296  1.0717  1.2842  1.6090
 3494TIP3   OH234676   2.540   3.399   0.248  0.1592 -0.1639  0.2435
 3494TIP3    H134677   2.463   3.412   0.304  2.0824  2.0672  2.6601
 3494TIP3    H234678   2.563   3.307   0.259 -0.9665 -0.3586  1.1237
 3495TIP3   OH234679   1.665   3.567   7.527 -0.3428  0.1399  0.1475
 3495TIP3    H134680   1.723   3.512   7.474 -0.6672  0.4201 -0.5125
 3495TIP3    H234681   1.580   3.562   7.483 -0.5313  0.6557  0.4386
 3496TIP3   OH234682   5.156   2.841   0.819 -0.0394 -0.1693 -0.4010
 3496TIP3    H134683   5.112   2.795   0.747  1.3133 -1.1265 -0.6447
 3496TIP3    H234684   5.242   2.864   0.784  2.0321 -3.5509  1.7829
 3497TIP3   OH234685   0.199   4.100   9.362 -0.3771  0.1009 -0.1184
 3497TIP3    H134686   0.268   4.065   9.306 -1.4005 -0.7685 -0.8915
 3497TIP3    H234687   0.196   4.193   9.341  0.5815  0.1595 -0.0364
 3498TIP3   OH234688   1.304   0.757   7.880  0.2218  0.4522 -0.8862
 3498TIP3    H134689   1.339   0.672   7.908  1.5986  1.1214 -0.4479
 3498TIP3    H234690   1.320   0.759   7.786  0.5331  0.3653 -0.8382
 3499TIP3   OH234691   3.871   7.314   0.968 -0.3548 -0.1930 -0.4669
 3499TIP3    H134692   3.819   7.233   0.970 -0.9133  0.1700  0.0023
 3499TIP3    H234693   3.825   7.371   0.906 -0.0506 -0.1754 -0.6763
 3500TIP3   OH234694   6.795   6.698   9.216 -0.2415  0.2542 -0.2578
 3500TIP3    H134695   6.754   6.637   9.155  1.3194 -0.0532 -1.0462
 3500TIP3    H234696   6.772   6.785   9.183 -0.4345  0.0915 -0.5502
 3501TIP3   OH234697   6.157   6.502   7.875  0.8240  0.2479 -0.2395
 3501TIP3    H134698   6.194   6.414   7.863  0.4884 -0.5411  3.3218
 3501TIP3    H234699   6.063   6.488   7.879  0.7537  0.7774  0.1035
 3502TIP3   OH234700   4.805   5.014   1.999 -0.0154 -0.4554  0.1060
 3502TIP3    H134701   4.743   4.995   1.929  0.6669  1.2566 -1.0340
 3502TIP3    H234702   4.825   4.929   2.038  0.0728 -1.5527 -2.1947
 3503TIP3   OH234703   3.768   2.832   7.572  0.0818 -0.2086 -0.6774
 3503TIP3    H134704   3.760   2.915   7.525 -1.7260  0.9371  1.4852
 3503TIP3    H234705   3.685   2.787   7.554 -0.8232  0.4279  1.5685
 3504TIP3   OH234706   6.866   0.203   0.561 -0.3648  0.3266 -0.3760
 3504TIP3    H134707   6.909   0.140   0.619  0.8435  2.2047  0.8783
 3504TIP3    H234708   6.938   0.241   0.510 -1.0259  0.9061 -0.8962
 3505TIP3   OH234709   3.341   2.663   1.507  0.3060 -0.1223 -0.1646
 3505TIP3    H134710   3.372   2.754   1.511 -0.1744  0.1022 -1.1737
 3505TIP3    H234711   3.250   2.668   1.534  0.1112 -0.2098 -0.7937
 3506TIP3   OH234712   4.553   7.560   9.355  0.5495 -0.5591  0.1234
 3506TIP3    H134713   4.614   7.610   9.301  0.1955  1.8000  1.7391
 3506TIP3    H234714   4.471   7.562   9.306 -0.0623  2.4716  1.0447
 3507TIP3   OH234715   7.530   3.045   9.392  0.3642 -0.7546 -0.1154
 3507TIP3    H134716   7.613   3.087   9.416 -1.6345  3.5943 -0.0812
 3507TIP3    H234717   7.507   2.993   9.469  2.1354 -0.5665  0.5958
 3508TIP3   OH234718   7.317   6.968   1.029  0.5632  0.2979 -0.0776
 3508TIP3    H134719   7.408   6.944   1.046  0.1569 -0.7282  0.7791
 3508TIP3    H234720   7.309   7.057   1.063  1.8938  1.4792 -2.5536
 3509TIP3   OH234721   5.577   1.002   2.594 -0.1153 -0.7837 -0.3369
 3509TIP3    H134722   5.671   0.984   2.599 -0.2140 -1.1169  0.6291
 3509TIP3    H234723   5.570   1.097   2.592  0.1928 -0.6161  2.3967
 3510TIP3   OH234724   4.977   3.395   0.656 -0.0359 -0.4558 -0.3257
 3510TIP3    H134725   4.997   3.485   0.682 -0.3282 -0.2226 -0.8907
 3510TIP3    H234726   5.042   3.342   0.702 -0.5685 -0.0673  0.9165
 3511TIP3   OH234727   4.324   3.880   2.250  0.5046 -0.0573 -0.4227
 3511TIP3    H134728   4.308   3.857   2.341 -2.2303  0.3965 -0.6785
 3511TIP3    H234729   4.356   3.800   2.210  1.9704 -0.1976  0.9549
 3512TIP3   OH234730   2.716   3.517   2.573 -0.1403 -0.3825  0.0660
 3512TIP3    H134731   2.671   3.532   2.657 -0.3240 -0.9139  0.0686
 3512TIP3    H234732   2.749   3.603   2.548  0.4395 -0.3187  0.9895
 3513TIP3   OH234733   5.369   3.407   1.776  0.2383 -0.4903 -0.3454
 3513TIP3    H134734   5.343   3.324   1.817 -0.6932  0.6012  1.3976
 3513TIP3    H234735   5.337   3.400   1.686  0.3285 -2.0796 -0.2780
 3514TIP3   OH234736   5.641   0.492   0.380  0.5762  0.3571 -0.3337
 3514TIP3    H134737   5.584   0.456   0.448  0.9527  2.4647  1.1904
 3514TIP3    H234738   5.677   0.415   0.335 -2.1522 -1.0439 -0.2905
 3515TIP3   OH234739   0.700   4.147   1.741 -0.1009  0.4486  0.1758
 3515TIP3    H134740   0.733   4.221   1.690 -0.9808  1.7383  1.3878
 3515TIP3    H234741   0.772   4.124   1.800  0.4118 -0.1106 -0.6630
 3516TIP3   OH234742   0.475   6.044   1.013 -0.1271  0.3172  0.2877
 3516TIP3    H134743   0.518   5.966   1.048  1.6645  1.2786  0.3601
 3516TIP3    H234744   0.391   6.012   0.979  1.9827 -2.3899 -3.0168
 3517TIP3   OH234745   5.375   3.022   0.169  0.0440 -0.2348  0.1270
 3517TIP3    H134746   5.466   3.051   0.168 -0.0442  0.0264 -1.0358
 3517TIP3    H234747   5.331   3.081   0.231  0.5330  0.0162  0.2355
 3518TIP3   OH234748   3.369   2.613   0.058 -0.5683  0.4132  0.0759
 3518TIP3    H134749   3.349   2.696   0.015  0.2750  0.4964 -0.1688
 3518TIP3    H234750   3.421   2.637   0.134 -0.4273  0.1144  0.0758
 3519TIP3   OH234751   0.350   6.346   7.540  0.2671  0.2184 -0.0319
 3519TIP3    H134752   0.382   6.433   7.566 -1.1205  1.2660 -1.6096
 3519TIP3    H234753   0.382   6.335   7.451  1.7447 -1.6188  0.6810
 3520TIP3   OH234754   2.687   1.325   1.850  0.3083  0.3277 -0.2546
 3520TIP3    H134755   2.742   1.327   1.772  0.6745  2.1745  0.0124
 3520TIP3    H234756   2.730   1.384   1.911 -0.6967 -0.0533  0.8559
 3521TIP3   OH234757   5.542   7.409   9.176  0.7661  0.3067 -0.1825
 3521TIP3    H134758   5.605   7.445   9.114 -0.9684  0.2689 -2.0964
 3521TIP3    H234759   5.539   7.472   9.248  1.3338  1.4478 -1.1278
 3522TIP3   OH234760   0.906   1.277   8.790  0.2363 -0.1898  0.1498
 3522TIP3    H134761   0.998   1.282   8.765  0.7287  0.3576  1.9268
 3522TIP3    H234762   0.894   1.188   8.822  0.3192 -0.0637  0.5326
 3523TIP3   OH234763   0.402   0.362   2.077  0.0161  0.1841 -0.1289
 3523TIP3    H134764   0.432   0.291   2.133 -2.4726 -0.8776 -0.0570
 3523TIP3    H234765   0.307   0.361   2.083 -0.1681  2.9075 -0.9232
 3524TIP3   OH234766   7.268   2.652   2.535  0.2443 -0.7824 -0.1753
 3524TIP3    H134767   7.357   2.689   2.536 -0.0535 -0.0393 -0.6867
 3524TIP3    H234768   7.210   2.728   2.533 -0.3854 -1.2656 -1.9535
 3525TIP3   OH234769   7.529   2.360   0.869 -0.3197 -0.3621  0.4457
 3525TIP3    H134770   7.566   2.388   0.785 -1.5635  3.8757  1.0766
 3525TIP3    H234771   7.494   2.272   0.851  1.2993 -0.5230 -2.8104
 3526TIP3   OH234772   0.145   0.078   1.556 -0.0201 -0.8517  0.2639
 3526TIP3    H134773   0.239   0.085   1.545 -0.3949  1.1567 -3.0338
 3526TIP3    H234774   0.121   0.150   1.614  0.2655  0.6083 -1.3417
 3527TIP3   OH234775   0.574   7.407   0.396 -0.3571 -0.6205 -0.5505
 3527TIP3    H134776   0.591   7.489   0.442 -1.6915 -1.2929  1.2827
 3527TIP3    H234777   0.631   7.343   0.439 -0.6069 -0.9991 -0.7741
 3528TIP3   OH234778   6.957   3.909   9.835 -0.1808 -0.5858 -0.1129
 3528TIP3    H134779   6.878   3.959   9.810  0.1392 -0.3378 -0.6635
 3528TIP3    H234780   6.994   3.881   9.751  2.1082  2.0855 -0.1225
 3529TIP3   OH234781   2.352   3.657   2.280 -0.2848 -0.3181 -0.2560
 3529TIP3    H134782   2.266   3.669   2.322 -0.1317  0.0383 -0.0447
 3529TIP3    H234783   2.378   3.569   2.304 -1.7767 -1.4689 -2.4583
 3530TIP3   OH234784   2.193   5.301   0.445  0.3855  0.6985 -0.4424
 3530TIP3    H134785   2.135   5.317   0.370 -0.1957 -0.0690 -0.1697
 3530TIP3    H234786   2.189   5.382   0.496 -0.5114  0.6322 -0.3902
 3531TIP3   OH234787   2.614   6.129   6.923 -0.2819  0.0461 -0.0778
 3531TIP3    H134788   2.602   6.132   7.018  0.8577 -1.9561  0.1952
 3531TIP3    H234789   2.553   6.061   6.894 -1.2717  1.2641 -0.9433
 3532TIP3   OH234790   3.057   4.667   0.795 -0.1649  0.5614 -0.0735
 3532TIP3    H134791   2.980   4.623   0.760 -0.6864  0.4393  1.1574
 3532TIP3    H234792   3.024   4.749   0.830  0.0631  0.0581  1.3863
 3533TIP3   OH234793   1.281   5.221   9.183  0.3234 -0.2244 -0.0105
 3533TIP3    H134794   1.376   5.207   9.188  0.4711  1.0102  2.5260
 3533TIP3    H234795   1.245   5.148   9.234  0.0770  0.3382  0.6347
 3534TIP3   OH234796   0.178   5.635   9.062  0.6010  0.5131  0.2787
 3534TIP3    H134797   0.097   5.619   9.110  0.2152 -1.6437 -0.9456
 3534TIP3    H234798   0.150   5.647   8.971  1.5913  0.4939 -0.0449
 3535TIP3   OH234799   3.917   5.741   2.623  0.0886  0.6449  0.6167
 3535TIP3    H134800   3.920   5.756   2.717 -0.0681 -0.8297  0.8833
 3535TIP3    H234801   3.997   5.781   2.590  0.8764 -0.0639  1.5956
 3536TIP3   OH234802   6.773   7.283   0.285  0.5239  0.4477 -0.3566
 3536TIP3    H134803   6.726   7.366   0.288 -1.8114 -0.8186  1.2242
 3536TIP3    H234804   6.800   7.266   0.375  0.9557 -0.5282 -0.6446
 3537TIP3   OH234805   5.087   2.516   8.063  0.1170 -0.1182 -0.1057
 3537TIP3    H134806   5.099   2.609   8.043 -0.1087 -0.0072  0.2586
 3537TIP3    H234807   5.003   2.512   8.110  0.8032 -0.3074  1.1566
 3538TIP3   OH234808   2.836   6.136   9.682 -0.1738 -0.2345 -0.0698
 3538TIP3    H134809   2.908   6.199   9.678 -0.2833 -0.1841 -2.2996
 3538TIP3    H234810   2.851   6.077   9.609 -0.5651 -2.3275  1.4305
 3539TIP3   OH234811   1.333   5.835   7.953  0.6351  0.0992  0.1734
 3539TIP3    H134812   1.389   5.905   7.986  0.3900  1.3904 -1.9242
 3539TIP3    H234813   1.261   5.829   8.016  1.7001  0.3278  1.4362
 3540TIP3   OH234814   5.723   1.485   8.695  0.2855  0.2559  0.1713
 3540TIP3    H134815   5.809   1.447   8.710  1.2504  2.3507  0.2996
 3540TIP3    H234816   5.734   1.541   8.618 -0.6830  1.3120  0.7611
 3541TIP3   OH234817   2.138   6.490   0.303  0.3202 -0.1566  0.7556
 3541TIP3    H134818   2.131   6.423   0.235  1.0136 -0.5936  1.1022
 3541TIP3    H234819   2.230   6.488   0.329 -0.0072 -0.2839  1.9917
 3542TIP3   OH234820   3.123   1.321   1.366  0.1240 -0.6895 -0.0982
 3542TIP3    H134821   3.030   1.308   1.347 -0.6326  0.9958  1.9511
 3542TIP3    H234822   3.165   1.328   1.281 -1.8226 -0.4212 -1.0921
 3543TIP3   OH234823   3.895   1.483   0.169  0.6410 -0.0981 -0.2061
 3543TIP3    H134824   3.864   1.399   0.202  0.8971 -0.2330 -0.3043
 3543TIP3    H234825   3.950   1.461   0.094 -0.2011  0.2224 -0.9339
 3544TIP3   OH234826   0.586   1.882   7.720  0.4999 -0.0034 -0.1558
 3544TIP3    H134827   0.602   1.816   7.652  1.0241  0.7215 -0.7510
 3544TIP3    H234828   0.566   1.962   7.671  0.1288  0.3496  0.5592
 3545TIP3   OH234829   3.196   1.706   1.265 -0.0093 -0.5517 -0.3044
 3545TIP3    H134830   3.186   1.698   1.170 -0.5821  1.3384 -0.4284
 3545TIP3    H234831   3.132   1.644   1.301  0.7739 -1.8821 -1.1081
 3546TIP3   OH234832   0.535   4.101   2.316  0.1454 -0.5716 -0.0249
 3546TIP3    H134833   0.514   4.177   2.262  1.8588 -0.2390 -0.2717
 3546TIP3    H234834   0.631   4.100   2.322  0.2322 -3.0345 -0.5013
 3547TIP3   OH234835   6.733   3.154   0.343  0.1579  0.2096 -0.1227
 3547TIP3    H134836   6.740   3.099   0.421 -1.3352  1.6110  1.0715
 3547TIP3    H234837   6.792   3.113   0.279  0.1131 -1.9683  1.1404
 3548TIP3   OH234838   7.034   2.229   9.344 -0.0283  0.4916 -0.0145
 3548TIP3    H134839   7.101   2.225   9.276 -0.2592  1.5824 -0.3306
 3548TIP3    H234840   7.080   2.261   9.422 -0.3359  2.1484 -0.4806
 3549TIP3   OH234841   4.812   3.476   7.885  0.1476 -0.5010 -0.6960
 3549TIP3    H134842   4.784   3.386   7.867  1.2109 -0.8622 -0.5901
 3549TIP3    H234843   4.731   3.521   7.910 -0.8384 -0.8024 -3.0853
 3550TIP3   OH234844   5.075   3.383   7.580 -0.5650 -0.0899 -0.1619
 3550TIP3    H134845   5.091   3.359   7.671  0.2205  1.0271  0.0199
 3550TIP3    H234846   4.985   3.415   7.579 -0.4524  0.2472  0.3026
 3551TIP3   OH234847   5.026   0.493   2.332 -0.3112 -0.0164 -0.1661
 3551TIP3    H134848   5.099   0.496   2.394 -0.9167  1.7009  0.5480
 3551TIP3    H234849   4.951   0.465   2.385 -0.5827  0.2383 -0.4135
 3552TIP3   OH234850   2.471   7.230   9.858  0.1859 -0.0944 -0.6003
 3552TIP3    H134851   2.515   7.145   9.867  0.9029  0.1282 -1.7582
 3552TIP3    H234852   2.477   7.269   9.945 -0.3411 -1.3004  0.0096
 3553TIP3   OH234853   7.345   1.341   8.966  0.0611  0.2089  0.2859
 3553TIP3    H134854   7.386   1.276   9.022  1.2999 -1.8961 -2.8015
 3553TIP3    H234855   7.273   1.295   8.923  0.1737  1.2026 -1.0559
 3554TIP3   OH234856   7.100   2.342   0.499 -0.0660  0.2939 -0.0601
 3554TIP3    H134857   7.117   2.416   0.440  1.3317  1.0702  1.2436
 3554TIP3    H234858   7.181   2.332   0.549 -0.2896 -2.0256 -0.0690
 3555TIP3   OH234859   2.658   4.469   8.344  0.1486 -0.1434 -0.1043
 3555TIP3    H134860   2.581   4.494   8.295 -0.8550 -0.8389  1.0519
 3555TIP3    H234861   2.692   4.391   8.298 -0.4389 -0.4448 -0.0312
 3556TIP3   OH234862   1.312   0.796   0.374 -0.3103 -0.4555  0.8275
 3556TIP3    H134863   1.256   0.840   0.309  0.5072  2.2760  1.8315
 3556TIP3    H234864   1.323   0.861   0.444  2.4238 -1.6474  1.6269
 3557TIP3   OH234865   1.439   6.650   8.290 -0.3304  0.2511  0.4702
 3557TIP3    H134866   1.347   6.652   8.318  0.2975 -0.4358  2.7874
 3557TIP3    H234867   1.489   6.643   8.371  1.7896  0.2889 -0.7521
 3558TIP3   OH234868   4.097   0.443   7.830 -0.4062  0.0038  0.0026
 3558TIP3    H134869   4.025   0.496   7.797  0.5209  0.8101 -0.7943
 3558TIP3    H234870   4.125   0.390   7.756  0.1225  0.0558  0.1527
 3559TIP3   OH234871   2.319   6.109   0.648  0.3817 -0.1383 -0.0322
 3559TIP3    H134872   2.309   6.170   0.721 -0.5556 -0.8419  0.4605
 3559TIP3    H234873   2.403   6.130   0.609 -0.3555  2.1438 -0.5210
 3560TIP3   OH234874   0.963   5.106   7.544  0.3902 -0.4092  0.0799
 3560TIP3    H134875   1.041   5.093   7.491  0.0078  0.8002 -0.8374
 3560TIP3    H234876   0.995   5.115   7.634  1.3170  0.2645 -0.3124
 3561TIP3   OH234877   3.141   4.323   1.375 -0.0863  0.0928  0.1428
 3561TIP3    H134878   3.185   4.246   1.412 -1.8412 -1.2142 -0.3835
 3561TIP3    H234879   3.076   4.347   1.441 -0.5758  0.1728 -0.3708
 3562TIP3   OH234880   6.504   6.384   8.078 -0.3637 -0.2787  0.3242
 3562TIP3    H134881   6.484   6.433   7.999 -0.1927  2.0783  1.6516
 3562TIP3    H234882   6.548   6.305   8.047 -2.9675 -0.9367 -2.0604
 3563TIP3   OH234883   1.003   3.176   2.272  0.2029 -0.4338  0.0584
 3563TIP3    H134884   0.965   3.249   2.319  0.9440  0.0690 -0.1113
 3563TIP3    H234885   1.003   3.203   2.180 -0.2771 -0.9842 -0.1118
 3564TIP3   OH234886   4.744   6.650   9.405  0.1147 -0.4629 -0.5593
 3564TIP3    H134887   4.828   6.615   9.377  0.8151  0.6560  0.0639
 3564TIP3    H234888   4.728   6.725   9.347 -0.4388 -0.6496 -0.6554
 3565TIP3   OH234889   2.395   2.419   9.726  0.5874  0.1529 -0.1705
 3565TIP3    H134890   2.361   2.502   9.691 -0.0294 -0.3181 -0.7077
 3565TIP3    H234891   2.430   2.373   9.650  2.3915  0.5827  0.3573
 3566TIP3   OH234892   1.951   3.367   8.523 -0.0440  0.6040 -0.3627
 3566TIP3    H134893   1.915   3.410   8.601  1.6588  1.7450 -0.1533
 3566TIP3    H234894   2.043   3.394   8.521  0.1388 -0.0073 -2.3566
 3567TIP3   OH234895   2.670   6.983   8.672  0.4093 -0.4639 -0.2786
 3567TIP3    H134896   2.721   6.917   8.625 -1.0158  0.2028 -2.9685
 3567TIP3    H234897   2.732   7.055   8.688  0.6431 -0.0507 -2.6510
 3568TIP3   OH234898   2.239   1.824   7.683 -0.3264 -0.2453 -0.5301
 3568TIP3    H134899   2.160   1.879   7.685 -1.1479 -1.4025  0.1152
 3568TIP3    H234900   2.217   1.755   7.620  0.0546 -0.7518 -0.1067
 3569TIP3   OH234901   0.998   7.626   8.031  0.6731 -0.0582  0.2162
 3569TIP3    H134902   0.956   7.547   8.066 -0.7781  1.5694  2.3553
 3569TIP3    H234903   0.979   7.623   7.937 -2.2351 -0.6319  0.7308
 3570TIP3   OH234904   5.105   0.392   1.690  0.3489 -0.2530  0.1646
 3570TIP3    H134905   5.113   0.481   1.726  0.8732 -0.4421  0.5224
 3570TIP3    H234906   5.051   0.403   1.612  0.1748  0.3404  0.3612
 3571TIP3   OH234907   3.180   5.920   1.775  0.1000 -0.0056 -0.1853
 3571TIP3    H134908   3.221   5.988   1.722 -0.1822  1.0409  0.8841
 3571TIP3    H234909   3.249   5.856   1.790  0.4320  0.1428 -1.0295
 3572TIP3   OH234910   6.070   4.269   7.544  0.4115 -0.1965 -0.2472
 3572TIP3    H134911   6.125   4.286   7.467  0.8318  0.2841  0.1497
 3572TIP3    H234912   6.074   4.350   7.595 -0.1849 -0.3728  0.0835
 3573TIP3   OH234913   2.703   0.286   2.200 -0.0224 -0.3773  0.0659
 3573TIP3    H134914   2.613   0.281   2.235  0.0274  1.3585  0.5417
 3573TIP3    H234915   2.754   0.320   2.273  0.8655 -0.4907 -0.4960
 3574TIP3   OH234916   5.888   6.974   0.549  0.2610 -0.2208  0.1184
 3574TIP3    H134917   5.970   6.981   0.597 -0.4315 -0.5610  1.3953
 3574TIP3    H234918   5.836   7.049   0.578 -0.9605 -1.5465  1.5421
 3575TIP3   OH234919   5.331   2.906   8.350 -0.1346 -0.1373 -0.2886
 3575TIP3    H134920   5.259   2.959   8.382  0.0403  1.6130 -2.5211
 3575TIP3    H234921   5.410   2.955   8.373  0.1126 -0.1397 -1.0801
 3576TIP3   OH234922   0.796   6.765   0.892  0.0266 -0.2213 -0.6169
 3576TIP3    H134923   0.733   6.760   0.820  1.0019 -0.5774 -1.4612
 3576TIP3    H234924   0.834   6.853   0.885  0.0825 -0.2337 -0.4896
 3577TIP3   OH234925   2.942   0.257   7.342 -0.0632 -0.2456  0.0482
 3577TIP3    H134926   2.925   0.170   7.306  1.3097  0.2514 -1.9497
 3577TIP3    H234927   3.030   0.251   7.380 -0.1606  0.1438  0.3479
 3578TIP3   OH234928   5.676   6.249   8.202  0.3817 -0.5848  0.3030
 3578TIP3    H134929   5.719   6.331   8.175 -2.1144  1.1311  1.1310
 3578TIP3    H234930   5.681   6.193   8.124  2.8628 -0.0360 -0.0322
 3579TIP3   OH234931   4.964   0.753   8.898  0.3699 -0.0978  0.2952
 3579TIP3    H134932   5.001   0.674   8.937  0.6949  1.4660  3.5260
 3579TIP3    H234933   4.884   0.770   8.949  0.2828  1.6070 -0.3333
 3580TIP3   OH234934   7.157   5.579   9.914 -0.1536 -0.3226  0.2661
 3580TIP3    H134935   7.087   5.543   9.967 -0.9423 -1.8920 -1.7416
 3580TIP3    H234936   7.113   5.627   9.844  0.7350 -1.3709 -1.0596
 3581TIP3   OH234937   1.087   4.795   7.564  0.2858  0.4210  0.4138
 3581TIP3    H134938   1.075   4.729   7.633  1.1046  1.7978  1.9387
 3581TIP3    H234939   1.130   4.747   7.493 -0.8662 -1.1152  0.7013
 3582TIP3   OH234940   5.841   5.054   7.510  0.1556  0.1080  0.4240
 3582TIP3    H134941   5.905   5.091   7.449 -0.2597  0.0762 -0.0331
 3582TIP3    H234942   5.788   5.129   7.536  1.2565  0.4105  1.9097
 3583TIP3   OH234943   1.173   7.368   7.723 -0.0079  0.5089  0.0218
 3583TIP3    H134944   1.097   7.426   7.720 -0.0289  0.4704 -0.2016
 3583TIP3    H234945   1.154   7.307   7.795  0.4674  1.3949  0.9239
 3584TIP3   OH234946   5.032   4.762   0.249  0.2255 -0.2378  0.3016
 3584TIP3    H134947   5.010   4.670   0.261  2.9616 -1.0001  0.2206
 3584TIP3    H234948   5.068   4.767   0.161  0.5804  0.8041  0.4857
 3585TIP3   OH234949   3.014   6.141   8.117 -0.3097  0.1852  0.1739
 3585TIP3    H134950   2.958   6.107   8.046 -0.4753 -0.4106  0.5862
 3585TIP3    H234951   2.954   6.189   8.173 -0.6556 -1.4265  1.2522
 3586TIP3   OH234952   2.715   3.045   6.512 -0.3324 -0.5910  0.0850
 3586TIP3    H134953   2.634   3.012   6.551 -1.4035 -0.3803 -1.8389
 3586TIP3    H234954   2.712   3.139   6.528  0.9414 -0.8449  2.3765
 3587TIP3   OH234955   2.111   5.376   7.344  0.0484 -0.1728 -0.4463
 3587TIP3    H134956   2.178   5.309   7.344  0.6572  0.4136  0.3883
 3587TIP3    H234957   2.152   5.452   7.387 -1.9705 -0.6654  2.7107
 3588TIP3   OH234958   6.139   3.632   8.051  0.0124 -0.5062  0.4011
 3588TIP3    H134959   6.208   3.606   8.111 -0.1687  0.6692  1.1530
 3588TIP3    H234960   6.121   3.554   7.999 -0.2639 -1.7584  2.3017
 3589TIP3   OH234961   4.511   6.836   1.321 -0.0897 -0.1412  0.1739
 3589TIP3    H134962   4.508   6.764   1.385  0.7362 -0.7355 -0.4291
 3589TIP3    H234963   4.487   6.914   1.371  0.7745 -0.5546  1.2765
 3590TIP3   OH234964   4.650   2.369   7.592  0.0148  0.0434 -0.0324
 3590TIP3    H134965   4.566   2.376   7.638  0.1751 -0.7042  0.4014
 3590TIP3    H234966   4.663   2.275   7.580  0.3147  0.2012 -1.0021
 3591TIP3   OH234967   5.112   7.500   9.711 -0.4717 -0.0818  0.3723
 3591TIP3    H134968   5.027   7.502   9.667  0.5525  1.7662 -1.6447
 3591TIP3    H234969   5.175   7.525   9.644  1.6533 -0.9183  1.9501
 3592TIP3   OH234970   2.324   7.307   9.224 -0.0584  0.3011 -0.2595
 3592TIP3    H134971   2.316   7.349   9.309 -0.2755 -0.4407  0.0898
 3592TIP3    H234972   2.401   7.252   9.231 -0.7894 -0.7240 -0.1226
 3593TIP3   OH234973   7.334   7.443   7.635  0.6710 -0.2980 -0.1631
 3593TIP3    H134974   7.310   7.352   7.617  1.8028 -0.8107  0.7902
 3593TIP3    H234975   7.250   7.489   7.640  0.0452 -1.4152 -0.0072
 3594TIP3   OH234976   3.124   0.367   1.904 -0.3522 -0.1156  0.4707
 3594TIP3    H134977   3.120   0.318   1.821  1.0517  1.1654 -0.4021
 3594TIP3    H234978   3.141   0.457   1.877  0.9467  0.1904  2.1726
 3595TIP3   OH234979   2.908   2.767   6.788  0.1797  0.0037 -0.0087
 3595TIP3    H134980   2.931   2.816   6.709 -0.8442  0.8225  0.1720
 3595TIP3    H234981   2.979   2.787   6.850  2.7611 -3.2086 -1.6575
 3596TIP3   OH234982   5.261   3.159   1.762  0.0569  0.4477 -0.4300
 3596TIP3    H134983   5.346   3.121   1.739 -0.2926 -0.2478 -0.6051
 3596TIP3    H234984   5.205   3.141   1.687 -0.3861  0.4464 -0.1068
 3597TIP3   OH234985   0.016   4.560   9.195  0.1533 -0.2488 -0.2649
 3597TIP3    H134986  -0.061   4.616   9.188  1.0479  0.8334 -1.9440
 3597TIP3    H234987   0.084   4.618   9.231 -0.0424 -1.4873  2.3443
 3598TIP3   OH234988   7.291   4.332   7.739  0.3902  0.0493 -0.4605
 3598TIP3    H134989   7.304   4.379   7.657 -1.9287  2.9390  0.6962
 3598TIP3    H234990   7.209   4.285   7.727  0.5357 -0.3056 -0.0953
 3599TIP3   OH234991   3.668   5.438   9.103 -0.0178  0.3002  0.6321
 3599TIP3    H134992   3.589   5.484   9.130 -0.7430 -0.0922 -0.7104
 3599TIP3    H234993   3.679   5.369   9.168 -0.8463  0.3018  0.7912
 3600TIP3   OH234994   2.932   7.584   9.133  0.3244  0.1904 -0.0406
 3600TIP3    H134995   2.921   7.655   9.069  0.7684 -1.3233 -1.8921
 3600TIP3    H234996   3.018   7.547   9.112 -0.7329 -2.1542 -0.4646
 3601TIP3   OH234997   3.246   1.902   0.040 -0.2416 -0.1740 -0.5159
 3601TIP3    H134998   3.257   1.997   0.050 -0.0695 -0.1415 -0.9923
 3601TIP3    H234999   3.263   1.885  -0.053 -1.6840 -0.4719 -0.7538
 3602TIP3   OH235000   5.023   6.641   0.034 -0.1767 -0.0245  0.3546
 3602TIP3    H135001   5.015   6.732   0.060 -1.5217 -0.2984  1.0483
 3602TIP3    H235002   4.933   6.614   0.014  0.3214 -0.9282 -0.8065
 3603TIP3   OH235003   2.636   4.975   1.935 -0.6417 -1.1428  0.3644
 3603TIP3    H135004   2.617   4.932   1.851 -2.0489 -0.0685  0.0910
 3603TIP3    H235005   2.562   5.034   1.948  0.4334 -0.0103  1.5240
 3604TIP3   OH235006   1.949   1.865   7.389  0.2129 -0.3460 -0.0163
 3604TIP3    H135007   2.041   1.888   7.390  0.4739 -1.2429 -1.3944
 3604TIP3    H235008   1.933   1.829   7.302 -1.1729 -1.2574  0.5619
 3605TIP3   OH235009   5.436   0.736   9.689  0.3215 -0.6783  0.3632
 3605TIP3    H135010   5.408   0.739   9.781 -0.4676  1.0124  0.1120
 3605TIP3    H235011   5.490   0.658   9.682 -0.3120 -1.3005  2.0720
 3606TIP3   OH235012   1.118   2.622   7.117  0.4200 -0.1419  0.1564
 3606TIP3    H135013   1.074   2.576   7.188 -1.4289  1.0799 -0.1374
 3606TIP3    H235014   1.049   2.673   7.075  2.0395  1.4756 -0.6601
 3607TIP3   OH235015   4.895   5.066   0.500 -0.1897 -0.0232  0.5949
 3607TIP3    H135016   4.953   5.096   0.430  0.5700  0.7901  1.5649
 3607TIP3    H235017   4.890   4.971   0.487  0.3433  0.0512 -0.2453
 3608TIP3   OH235018   7.333   3.240   8.795  0.9832 -0.0102  0.1400
 3608TIP3    H135019   7.294   3.323   8.822  0.6082 -0.0074 -0.3999
 3608TIP3    H235020   7.419   3.264   8.760  1.2454  0.0460  0.8086
 3609TIP3   OH235021   4.790   6.396   7.081 -0.1494 -0.4930  0.0778
 3609TIP3    H135022   4.815   6.455   7.153  0.4357 -1.4131  0.6509
 3609TIP3    H235023   4.847   6.320   7.092  0.6999 -0.2249 -1.9874
 3610TIP3   OH235024   4.497   7.093   9.365  0.0875  0.2767 -0.0819
 3610TIP3    H135025   4.442   7.115   9.290  2.9139  1.1795 -2.0353
 3610TIP3    H235026   4.535   7.008   9.343 -0.7892 -0.5671  1.4626
 3611TIP3   OH235027   7.625   7.190   1.951 -0.1015  0.2132  0.6294
 3611TIP3    H135028   7.539   7.172   1.990 -0.2538  0.3492  0.3567
 3611TIP3    H235029   7.685   7.130   1.996 -0.4052 -0.1483  0.5513
 3612TIP3   OH235030   3.314   5.440   2.113 -0.4916 -0.2655 -0.6170
 3612TIP3    H135031   3.343   5.529   2.091  1.2317 -0.7080 -0.3356
 3612TIP3    H235032   3.370   5.414   2.186 -0.3739 -1.8899 -1.2383
 3613TIP3   OH235033   2.683   0.692   1.992  0.0148 -0.1443  0.7918
 3613TIP3    H135034   2.694   0.787   1.987 -2.0965  0.2907  2.5334
 3613TIP3    H235035   2.735   0.658   1.920  0.7595  2.3305  0.0425
 3614TIP3   OH235036   6.722   2.134   9.685  0.0488 -0.3940  0.0436
 3614TIP3    H135037   6.671   2.054   9.693  0.2835 -0.5195  0.3092
 3614TIP3    H235038   6.676   2.186   9.619 -0.4361 -0.4905  0.3003
 3615TIP3   OH235039   2.447   2.736   1.776 -0.4380  0.6188 -0.0142
 3615TIP3    H135040   2.399   2.805   1.822 -0.9448  1.3530 -1.5748
 3615TIP3    H235041   2.536   2.769   1.769 -0.5089  0.7875 -0.1226
 3616TIP3   OH235042   1.686   4.635   1.796 -0.1515 -0.1924 -0.3308
 3616TIP3    H135043   1.711   4.713   1.747  0.1692  1.2530  1.9676
 3616TIP3    H235044   1.591   4.642   1.805 -0.1010  0.0584  0.0387
 3617TIP3   OH235045   1.408   6.789   0.107  0.4505 -0.2299 -0.1203
 3617TIP3    H135046   1.495   6.827   0.095  0.0210  0.5121 -1.0032
 3617TIP3    H235047   1.407   6.711   0.051  0.5605 -0.2755 -0.0588
 3618TIP3   OH235048   0.122   4.016   2.696 -0.1203 -0.6476 -0.6214
 3618TIP3    H135049   0.201   4.022   2.642  0.7561 -3.8642  0.1034
 3618TIP3    H235050   0.142   4.067   2.774  1.2189 -1.3092 -0.5118
 3619TIP3   OH235051   1.298   2.324   1.728 -0.0185 -0.2682  0.3353
 3619TIP3    H135052   1.307   2.258   1.660 -0.0947 -0.3196  0.3755
 3619TIP3    H235053   1.388   2.345   1.753  0.0294  0.1303 -0.1463
 3620TIP3   OH235054   4.394   2.933   0.633 -0.1702 -0.2760 -0.5561
 3620TIP3    H135055   4.481   2.963   0.656 -0.7068  0.8135  0.1160
 3620TIP3    H235056   4.393   2.840   0.658  0.9753 -0.4641 -1.1494
 3621TIP3   OH235057   5.777   2.144   9.417 -0.2041  0.3237 -0.2165
 3621TIP3    H135058   5.714   2.201   9.460 -0.0359  1.1605 -1.0538
 3621TIP3    H235059   5.731   2.061   9.407  0.0269 -0.2172  2.3151
 3622TIP3   OH235060   1.411   4.089   9.785 -0.1473 -0.7266  0.5563
 3622TIP3    H135061   1.437   4.130   9.868 -1.0002  0.8494  0.0968
 3622TIP3    H235062   1.323   4.123   9.769  0.0312 -0.9686 -1.0264
 3623TIP3   OH235063   5.291   2.422   1.683  0.4723  0.1740 -0.3861
 3623TIP3    H135064   5.217   2.480   1.670 -0.3317 -0.8464 -0.4744
 3623TIP3    H235065   5.301   2.416   1.778 -0.8657 -1.2483 -0.2898
 3624TIP3   OH235066   7.486   5.546   1.648  0.7486 -0.0227 -0.0340
 3624TIP3    H135067   7.462   5.492   1.573  1.8754  0.4434 -0.7505
 3624TIP3    H235068   7.418   5.528   1.713  1.0457 -2.2038 -0.2765
 3625TIP3   OH235069   0.195   5.766   8.595 -0.4159 -0.3359 -0.5738
 3625TIP3    H135070   0.286   5.797   8.592 -0.7151  0.7381  0.6291
 3625TIP3    H235071   0.191   5.697   8.528  1.0280  0.2523 -1.3083
 3626TIP3   OH235072   5.834   4.291   8.508 -0.1607  0.0505  0.0698
 3626TIP3    H135073   5.831   4.232   8.432  0.5689  1.8563 -1.4241
 3626TIP3    H235074   5.744   4.322   8.518  0.0972  1.3423 -1.3569
 3627TIP3   OH235075   4.755   2.326   8.887 -0.2341 -0.2367 -0.1751
 3627TIP3    H135076   4.794   2.388   8.825 -1.1412 -0.0895 -0.6147
 3627TIP3    H235077   4.713   2.382   8.953 -2.0054 -0.3132 -1.1612
 3628TIP3   OH235078   3.014   6.118   9.024  0.1595 -0.3160 -0.1168
 3628TIP3    H135079   3.068   6.193   9.000  0.6585 -1.1754 -1.8431
 3628TIP3    H235080   2.960   6.101   8.946 -1.5604 -0.3968  1.0385
 3629TIP3   OH235081   1.921   6.228   6.638 -0.1231  0.3860 -0.6796
 3629TIP3    H135082   1.940   6.204   6.547 -1.1570  0.1144 -0.8316
 3629TIP3    H235083   1.869   6.308   6.631 -0.0438  0.4709 -0.3170
 3630TIP3   OH235084   4.684   5.413   0.801 -0.4530 -0.9336 -0.5084
 3630TIP3    H135085   4.693   5.361   0.721  0.3290 -2.7274  0.6838
 3630TIP3    H235086   4.770   5.452   0.814  0.1681 -2.5453  0.6381
 3631TIP3   OH235087   5.368   3.105   0.925  0.1990 -0.1321  0.3356
 3631TIP3    H135088   5.423   3.092   0.848 -0.4579  0.8496 -0.3122
 3631TIP3    H235089   5.423   3.075   0.998  0.2311 -2.6989 -0.6115
 3632TIP3   OH235090   0.300   7.537   1.232 -0.0028  0.2184 -0.2350
 3632TIP3    H135091   0.292   7.555   1.326  0.9132  0.4848 -0.2018
 3632TIP3    H235092   0.386   7.496   1.222 -0.2709 -0.2030 -0.9040
 3633TIP3   OH235093   5.918   0.214   2.029 -0.0710 -0.2291 -0.1800
 3633TIP3    H135094   5.964   0.136   1.996  0.5314  0.2185 -0.4211
 3633TIP3    H235095   5.836   0.215   1.980  1.1259  0.8372 -2.3134
 3634TIP3   OH235096   4.763   5.418   0.505  0.0249  0.1304 -0.1357
 3634TIP3    H135097   4.699   5.417   0.434  0.8328 -0.4404 -0.8790
 3634TIP3    H235098   4.769   5.326   0.533  0.4848  0.1774 -0.0605
 3635TIP3   OH235099   7.311   3.628   2.386 -0.6860  0.0781 -0.4210
 3635TIP3    H135100   7.240   3.567   2.403  0.1508 -1.0038 -0.7286
 3635TIP3    H235101   7.391   3.578   2.403  0.0135  1.1965 -0.3080
 3636TIP3   OH235102   0.706   0.822   1.078  0.2840 -0.6498 -0.2512
 3636TIP3    H135103   0.714   0.802   1.171  0.1528  1.0669  0.1772
 3636TIP3    H235104   0.620   0.863   1.070  1.5843  2.2904 -0.4496
 3637TIP3   OH235105   0.699   4.513   7.640  0.5318 -0.0902  0.3984
 3637TIP3    H135106   0.637   4.447   7.609  0.0937 -1.2164  3.3707
 3637TIP3    H235107   0.709   4.495   7.734  1.5529  3.1666  1.0397
 3638TIP3   OH235108   3.661   0.461   8.849  0.6997  0.1196 -1.0032
 3638TIP3    H135109   3.691   0.552   8.853 -2.4702  1.2814  0.8559
 3638TIP3    H235110   3.575   0.467   8.807 -0.3494 -1.7099  0.7031
 3639TIP3   OH235111   3.071   2.113   9.091 -0.4803 -0.0898 -0.5761
 3639TIP3    H135112   3.107   2.074   9.011  2.4459 -1.6628  1.3564
 3639TIP3    H235113   3.063   2.040   9.152 -0.9346  1.3522  1.1598
 3640TIP3   OH235114   1.235   4.097   2.317  0.3571  0.2503  0.2955
 3640TIP3    H135115   1.217   4.160   2.387 -1.3758  1.1587 -0.8798
 3640TIP3    H235116   1.296   4.143   2.259  0.1028  0.3343  0.0967
 3641TIP3   OH235117   3.673   7.347   2.374  0.0922  0.5423  0.3163
 3641TIP3    H135118   3.736   7.279   2.352  0.5377  0.9827  0.2074
 3641TIP3    H235119   3.647   7.328   2.464  2.8173  2.1747  1.5627
 3642TIP3   OH235120   6.289   5.923   9.189  0.1271  0.1554 -0.5851
 3642TIP3    H135121   6.236   6.001   9.170  0.3207  0.0247 -1.6955
 3642TIP3    H235122   6.225   5.856   9.214  0.0143  0.8796  1.2231
 3643TIP3   OH235123   0.884   3.391   2.375  0.5617 -0.3770 -0.6834
 3643TIP3    H135124   0.820   3.408   2.306 -0.7670 -0.0284  0.5674
 3643TIP3    H235125   0.939   3.469   2.377  0.9507 -0.6136 -1.6722
 3644TIP3   OH235126   5.917   1.721   9.024  0.1879  0.6458 -0.2655
 3644TIP3    H135127   5.937   1.739   8.932 -1.0119 -1.8167 -1.0883
 3644TIP3    H235128   5.824   1.740   9.032 -0.7142 -2.8395 -0.7229
 3645TIP3   OH235129   3.889   7.150   8.069  0.3564  0.6784  0.1704
 3645TIP3    H135130   3.920   7.240   8.077  1.3580  0.5901 -1.9266
 3645TIP3    H235131   3.960   7.105   8.023 -0.9405 -0.6993 -0.5700
 3646TIP3   OH235132   0.692   5.107   0.676  0.5179  0.3880  0.3017
 3646TIP3    H135133   0.712   5.033   0.734  0.2569  1.3818  1.7132
 3646TIP3    H235134   0.773   5.158   0.676  0.6171  0.2348 -0.4801
 3647TIP3   OH235135   3.920   0.362   1.116 -0.2423  0.6604  0.1540
 3647TIP3    H135136   4.011   0.390   1.120 -0.0447 -0.0729  1.2278
 3647TIP3    H235137   3.885   0.405   1.038  0.7431  1.7546  0.2888
 3648TIP3   OH235138   2.867   5.490   2.369  0.9030 -0.1722  0.1846
 3648TIP3    H135139   2.816   5.446   2.301  1.0917  1.5426 -1.1189
 3648TIP3    H235140   2.923   5.421   2.405 -1.1668 -1.7435  0.5801
 3649TIP3   OH235141   1.587   0.363   3.361 -0.1136  0.6850  0.2532
 3649TIP3    H135142   1.675   0.340   3.388  0.7788  2.4309 -0.9682
 3649TIP3    H235143   1.583   0.458   3.368 -2.2521  0.6054  1.1937
 3650TIP3   OH235144   4.249   3.820   1.662  0.0676  0.3820 -0.1417
 3650TIP3    H135145   4.237   3.769   1.742  0.0454 -2.4569 -1.8137
 3650TIP3    H235146   4.334   3.791   1.628  0.0854  1.5403 -1.1465
 3651TIP3   OH235147   6.437   1.809   1.153  0.2968  0.2425  0.7094
 3651TIP3    H135148   6.410   1.723   1.119  1.2848 -0.3543  1.3885
 3651TIP3    H235149   6.505   1.839   1.092  0.6327  0.0996  1.0118
 3652TIP3   OH235150   1.813   5.995   0.452  0.8931  0.0138  0.7923
 3652TIP3    H135151   1.736   6.041   0.485  0.7356  1.0930 -0.9320
 3652TIP3    H235152   1.881   6.013   0.516 -0.0810 -0.3639  1.9760
 3653TIP3   OH235153   0.277   3.147   0.920 -0.2023 -0.1296 -0.2589
 3653TIP3    H135154   0.340   3.121   0.854 -1.1898  0.1686 -1.3660
 3653TIP3    H235155   0.299   3.238   0.940 -1.0485  0.4234 -1.6431
 3654TIP3   OH235156   0.032   1.533   2.386  0.3132 -0.1177  0.1417
 3654TIP3    H135157  -0.051   1.486   2.379  0.1484 -0.0851  1.5885
 3654TIP3    H235158   0.014   1.619   2.348  0.1567 -0.6520 -1.0279
 3655TIP3   OH235159   4.660   4.626   8.002 -0.0078 -0.0337 -0.4121
 3655TIP3    H135160   4.598   4.567   8.045  2.0603 -0.4002  2.3317
 3655TIP3    H235161   4.651   4.708   8.049  0.5815  0.3551 -0.9608
 3656TIP3   OH235162   1.629   1.364   0.712 -0.6625  0.0303  0.1800
 3656TIP3    H135163   1.575   1.442   0.700  0.1986  0.8679  1.5232
 3656TIP3    H235164   1.585   1.315   0.781 -0.0571  0.4254  0.8638
 3657TIP3   OH235165   5.774   5.427   9.138 -0.3135 -0.0798 -0.5238
 3657TIP3    H135166   5.680   5.441   9.146  0.0394  1.8900  1.2087
 3657TIP3    H235167   5.802   5.405   9.227  0.9247 -0.3161 -0.9487
 3658TIP3   OH235168   2.485   1.160   1.771  0.3444  0.2727  0.5204
 3658TIP3    H135169   2.406   1.199   1.810  0.6363  0.1934  1.1961
 3658TIP3    H235170   2.554   1.225   1.786  0.5427  0.0775  0.4594
 3659TIP3   OH235171   1.216   7.212   0.097 -0.6719 -0.1393 -0.3280
 3659TIP3    H135172   1.173   7.139   0.053 -1.8086  1.0267 -1.2023
 3659TIP3    H235173   1.309   7.187   0.098 -1.0233 -1.5685 -0.6200
 3660TIP3   OH235174   3.508   7.085   2.337 -0.9042 -0.3447  0.2805
 3660TIP3    H135175   3.596   7.050   2.348 -0.1838  1.3662  0.3252
 3660TIP3    H235176   3.482   7.114   2.425  0.2692  2.9961 -0.3218
 3661TIP3   OH235177   3.568   6.108   7.817 -0.2218 -0.0015  0.3670
 3661TIP3    H135178   3.586   6.022   7.854  1.0516  0.4853  0.9428
 3661TIP3    H235179   3.549   6.163   7.893 -0.0573  0.4485  0.0881
 3662TIP3   OH235180   6.784   2.460   0.125  0.5819  0.4410  1.1091
 3662TIP3    H135181   6.790   2.376   0.170  0.2213  0.3651  1.0114
 3662TIP3    H235182   6.731   2.443   0.048  2.3157  0.2536 -0.1077
 3663TIP3   OH235183   5.708   3.575   9.765 -0.5584 -0.7850 -0.0522
 3663TIP3    H135184   5.667   3.658   9.788 -0.1724 -0.4584 -0.5492
 3663TIP3    H235185   5.767   3.595   9.693 -1.6093 -1.7606 -1.2573
 3664TIP3   OH235186   3.731   7.476   0.758 -0.4736 -0.0304 -0.0643
 3664TIP3    H135187   3.814   7.438   0.729 -0.1456 -0.4344  1.3168
 3664TIP3    H235188   3.749   7.570   0.764 -0.3155 -0.0365 -0.3792
 3665TIP3   OH235189   2.263   3.784   0.101  0.0694 -0.1112 -0.8268
 3665TIP3    H135190   2.182   3.830   0.082  0.9017  1.0959 -1.6263
 3665TIP3    H235191   2.262   3.770   0.196 -0.2140  1.5777 -0.5524
 3666TIP3   OH235192   5.153   4.981   0.034 -0.2470  0.4386  0.0599
 3666TIP3    H135193   5.197   4.975  -0.051  1.2516  2.5730  0.5789
 3666TIP3    H235194   5.186   4.907   0.084 -0.0555 -0.0338 -0.7494
 3667TIP3   OH235195   2.679   5.260   0.068  0.5721 -0.0640 -0.3358
 3667TIP3    H135196   2.717   5.190   0.121 -0.8619 -0.7113 -0.1009
 3667TIP3    H235197   2.735   5.336   0.085  1.6257 -0.9097  0.1107
 3668TIP3   OH235198   3.374   6.792   9.544 -0.3698  0.3123 -0.4122
 3668TIP3    H135199   3.384   6.760   9.633  0.4899  0.4065 -0.4710
 3668TIP3    H235200   3.382   6.715   9.488 -0.8719  0.2585 -0.4150
 3669TIP3   OH235201   3.784   4.812   6.794  0.5894 -0.5072  0.2378
 3669TIP3    H135202   3.876   4.795   6.775  0.7423  0.8808 -0.4125
 3669TIP3    H235203   3.774   4.789   6.886  1.9543  0.6912  0.7254
 3670TIP3   OH235204   6.990   0.455   2.341  0.7714  0.2359 -0.4361
 3670TIP3    H135205   6.955   0.372   2.373  1.4694 -0.1319 -0.6001
 3670TIP3    H235206   6.913   0.509   2.324  0.2366 -0.8019 -1.4805
 3671TIP3   OH235207   4.924   4.042   9.743  0.5017  0.2141  0.0995
 3671TIP3    H135208   4.844   4.033   9.796  1.2943 -3.0252  0.9401
 3671TIP3    H235209   4.991   4.071   9.806  0.3241  1.6880 -0.3477
 3672TIP3   OH235210   4.627   4.927   1.767  0.0274  0.5272 -0.6172
 3672TIP3    H135211   4.555   4.950   1.708  0.8232  1.3296 -1.3061
 3672TIP3    H235212   4.646   4.835   1.747 -0.7495  0.3346 -0.4870
 3673TIP3   OH235213   2.177   0.884   9.378  0.1387 -0.9225  0.8500
 3673TIP3    H135214   2.253   0.907   9.325 -0.6052 -2.2048 -0.8634
 3673TIP3    H235215   2.206   0.896   9.468  1.0973  2.5347  0.2472
 3674TIP3   OH235216   5.965   6.334   9.867  0.6163  0.1428  0.4187
 3674TIP3    H135217   5.910   6.298   9.936  0.0423  0.9032  0.3687
 3674TIP3    H235218   6.006   6.257   9.826 -0.6652 -0.4654  0.2310
 3675TIP3   OH235219   4.578   3.772   0.168  0.2511  0.1961 -0.0238
 3675TIP3    H135220   4.499   3.759   0.220  1.2521 -1.1312  1.2574
 3675TIP3    H235221   4.630   3.835   0.219  1.2303 -1.0930  0.6205
 3676TIP3   OH235222   7.646   5.026   7.646 -0.1935 -0.2958  0.1507
 3676TIP3    H135223   7.569   5.068   7.683  0.4138  0.8114  0.1983
 3676TIP3    H235224   7.612   4.973   7.574 -0.8334  1.5895 -0.9978
 3677TIP3   OH235225   0.613   5.935   1.970  0.4020 -0.0321  0.0623
 3677TIP3    H135226   0.673   6.007   1.951  0.3176  0.3474  1.1970
 3677TIP3    H235227   0.552   5.971   2.035 -0.0456 -0.9269  0.1490
 3678TIP3   OH235228   3.087   7.546   8.293  0.7226 -0.1768  0.2818
 3678TIP3    H135229   3.152   7.595   8.342  0.4379 -0.5543  1.0658
 3678TIP3    H235230   3.003   7.572   8.331  0.3988  0.3825 -0.7838
 3679TIP3   OH235231   5.881   4.526   7.669  0.1405 -0.6050 -0.0860
 3679TIP3    H135232   5.975   4.506   7.663  0.1134 -1.1318  0.9806
 3679TIP3    H235233   5.877   4.608   7.719 -0.0337 -1.9426  2.2311
 3680TIP3   OH235234   3.488   1.514   7.187 -0.0856 -0.1001  0.1803
 3680TIP3    H135235   3.460   1.585   7.244 -0.0894  0.4975 -0.5469
 3680TIP3    H235236   3.567   1.547   7.144  1.3257 -1.4478  1.6035
 3681TIP3   OH235237   2.204   1.209   2.417  0.2353  0.5995 -0.6650
 3681TIP3    H135238   2.239   1.183   2.502 -0.2861 -0.5063 -0.7605
 3681TIP3    H235239   2.192   1.126   2.370  0.7723  1.2058 -1.9262
 3682TIP3   OH235240   3.572   1.157   8.935  0.0391 -0.1154  0.9225
 3682TIP3    H135241   3.646   1.110   8.973 -0.1760  0.4786  2.1171
 3682TIP3    H235242   3.560   1.233   8.992 -0.4438  0.6986 -0.2065
 3683TIP3   OH235243   3.363   1.150   0.770 -0.9973 -0.0518  0.0843
 3683TIP3    H135244   3.418   1.164   0.847 -1.7913 -0.9841  0.8453
 3683TIP3    H235245   3.423   1.155   0.696  0.3396 -2.1164  0.9373
 3684TIP3   OH235246   5.278   6.629   0.888  0.0856  0.3704  0.1433
 3684TIP3    H135247   5.261   6.671   0.803  0.3758  0.9200  0.3528
 3684TIP3    H235248   5.196   6.636   0.936  0.0630  0.4814  0.0873
 3685TIP3   OH235249   5.489   4.271   9.580 -0.5222  0.2482  0.6276
 3685TIP3    H135250   5.436   4.243   9.505 -1.8904  0.1971  1.5715
 3685TIP3    H235251   5.498   4.365   9.568 -3.3349  0.7954  1.8783
 3686TIP3   OH235252   2.746   7.430   1.452  0.4210 -0.7225  0.3182
 3686TIP3    H135253   2.749   7.454   1.545  0.6780 -1.0191  0.3899
 3686TIP3    H235254   2.682   7.491   1.414  0.1914 -0.7015  0.7194
 3687TIP3   OH235255   2.727   1.678   2.639 -0.2574 -0.2253 -0.2849
 3687TIP3    H135256   2.723   1.774   2.634  0.2679 -0.0767  1.4038
 3687TIP3    H235257   2.679   1.657   2.719 -0.1842 -1.3608 -0.5312
 3688TIP3   OH235258   1.903   3.737   6.695 -0.2708  0.5734  0.5592
 3688TIP3    H135259   1.913   3.679   6.619 -1.1442 -0.1964  1.0121
 3688TIP3    H235260   1.856   3.813   6.661 -0.8194  0.1512  0.3554
 3689TIP3   OH235261   3.117   5.507   7.909 -0.0838 -0.1358  0.1000
 3689TIP3    H135262   3.037   5.474   7.950  0.4236  1.1411  2.3201
 3689TIP3    H235263   3.188   5.462   7.956  0.5197 -0.3242 -0.9730
 3690TIP3   OH235264   3.975   2.000   1.188  0.1476  0.2143 -0.7391
 3690TIP3    H135265   3.911   2.029   1.124 -0.4542  0.8245  0.1180
 3690TIP3    H235266   4.060   2.023   1.149 -0.2584  2.4764 -0.4498
 3691TIP3   OH235267   3.057   4.340   1.099 -0.3094  0.4336  0.1936
 3691TIP3    H135268   3.004   4.420   1.101 -1.5288 -0.3505  0.5235
 3691TIP3    H235269   3.104   4.340   1.182 -0.2924  0.8112  0.1852
 3692TIP3   OH235270   2.445   5.066   7.154  0.5667  0.3872 -0.6082
 3692TIP3    H135271   2.351   5.082   7.141  0.6311  2.6432  1.0895
 3692TIP3    H235272   2.487   5.114   7.082  0.4702 -1.5803 -2.0694
 3693TIP3   OH235273   1.176   0.390   9.708  0.0033 -0.0137  0.4907
 3693TIP3    H135274   1.190   0.436   9.791 -0.9765  2.1493 -0.4378
 3693TIP3    H235275   1.257   0.342   9.693  0.6057  0.3812  2.1772
 3694TIP3   OH235276   2.428   0.397   7.118  0.4947  0.3991 -0.1400
 3694TIP3    H135277   2.460   0.472   7.069  0.8073  0.6371  0.4147
 3694TIP3    H235278   2.461   0.321   7.070 -0.4016  0.5973 -1.0853
 3695TIP3   OH235279   0.746   5.085   1.649  0.4094  0.2685  0.1543
 3695TIP3    H135280   0.678   5.020   1.667 -0.5756  0.4904 -2.3153
 3695TIP3    H235281   0.822   5.056   1.699 -1.0951 -0.7102  1.9977
 3696TIP3   OH235282   2.713   6.022   9.916  0.2425 -0.3751 -0.2165
 3696TIP3    H135283   2.768   6.038   9.839 -0.1853  3.1316  0.0338
 3696TIP3    H235284   2.641   6.085   9.908 -0.5250 -0.7838  2.3755
 3697TIP3   OH235285   2.191   0.043   8.181 -0.3228  0.3780 -0.3907
 3697TIP3    H135286   2.211  -0.011   8.258  0.9544  0.0571 -0.9087
 3697TIP3    H235287   2.272   0.091   8.164  0.3735 -1.4955 -3.0521
 3698TIP3   OH235288   2.180   3.924   9.750 -0.0426  0.1045 -0.0745
 3698TIP3    H135289   2.250   3.898   9.809 -1.3974 -0.2960  1.4215
 3698TIP3    H235290   2.176   3.854   9.685 -0.5765 -1.0739  1.1986
 3699TIP3   OH235291   2.069   0.337   0.802  0.1047  0.2069  0.2591
 3699TIP3    H135292   2.076   0.365   0.894  0.3594  0.1907  0.2465
 3699TIP3    H235293   2.005   0.396   0.763 -0.9506 -0.5732  0.7557
 3700TIP3   OH235294   0.716   6.902   9.886 -0.0031 -0.4989  0.1368
 3700TIP3    H135295   0.790   6.925   9.829 -0.5683 -0.1236 -0.4535
 3700TIP3    H235296   0.752   6.836   9.945  1.5161  1.3770  1.4655
 3701TIP3   OH235297   2.672   0.477   9.430  0.4730 -0.5742 -0.2874
 3701TIP3    H135298   2.739   0.521   9.377  1.2188  1.0230  1.8401
 3701TIP3    H235299   2.614   0.548   9.459 -0.5991 -1.5645  0.0698
 3702TIP3   OH235300   7.385   3.696   8.065  0.5668  0.1673  0.0407
 3702TIP3    H135301   7.415   3.638   7.995  0.5006  1.2963 -0.9562
 3702TIP3    H235302   7.456   3.760   8.075  1.2647 -0.8535  2.0934
 3703TIP3   OH235303   3.709   5.338   9.348 -0.0264 -0.1323  0.2465
 3703TIP3    H135304   3.776   5.302   9.406  1.1343  0.7459 -0.5183
 3703TIP3    H235305   3.646   5.379   9.407  0.4361 -0.4169  0.9492
 3704TIP3   OH235306   7.156   5.192   1.860  0.9304  0.1972 -0.3139
 3704TIP3    H135307   7.074   5.143   1.870  0.9339  0.1341 -0.5978
 3704TIP3    H235308   7.217   5.148   1.919  1.1081 -0.5324 -1.0285
 3705TIP3   OH235309   2.249   6.182   9.893 -0.0523 -0.1280 -0.2391
 3705TIP3    H135310   2.343   6.193   9.883  0.2056 -0.5681  1.3465
 3705TIP3    H235311   2.218   6.152   9.808  1.5144 -1.6469 -0.3261
 3706TIP3   OH235312   5.942   5.713   1.098  0.0451 -0.3530  0.0052
 3706TIP3    H135313   5.948   5.808   1.101 -2.3956 -0.1071 -0.6623
 3706TIP3    H235314   5.969   5.684   1.186  1.2554  0.8811  0.0679
 3707TIP3   OH235315   0.964   2.327   2.291 -0.0102 -0.0496  0.3988
 3707TIP3    H135316   0.900   2.399   2.291 -1.5069 -1.2794  2.0830
 3707TIP3    H235317   0.991   2.319   2.200  1.3755  3.5732  0.3528
 3708TIP3   OH235318   2.939   4.185   6.808 -0.4419  0.0312 -0.4982
 3708TIP3    H135319   2.848   4.180   6.837  0.2703  0.2501  1.9181
 3708TIP3    H235320   2.972   4.095   6.815 -0.9162 -0.4553 -3.2134
 3709TIP3   OH235321   3.325   7.269   2.795 -0.4940  0.0650  0.3522
 3709TIP3    H135322   3.305   7.275   2.888 -0.5505  1.7033  0.2601
 3709TIP3    H235323   3.239   7.273   2.752 -0.3278  3.8491  0.0927
 3710TIP3   OH235324   2.724   6.724   9.781 -0.4092 -0.7128 -0.0443
 3710TIP3    H135325   2.696   6.781   9.710 -2.0773  0.9864  1.8389
 3710TIP3    H235326   2.779   6.780   9.836  1.0998 -2.0747 -0.1081
 3711TIP3   OH235327   2.201   1.682   0.130 -0.0318  0.5363 -0.2150
 3711TIP3    H135328   2.173   1.769   0.103  1.4820  0.8709 -0.8211
 3711TIP3    H235329   2.286   1.669   0.086  0.7213 -0.4363  1.4265
 3712TIP3   OH235330   7.440   1.584   1.204 -0.3314  0.1999  0.3116
 3712TIP3    H135331   7.412   1.495   1.182 -0.5513  0.2058  0.5657
 3712TIP3    H235332   7.514   1.601   1.146 -1.8372  0.7948 -1.5312
 3713TIP3   OH235333   6.832   5.902   2.216  0.6569  0.2966 -0.4251
 3713TIP3    H135334   6.910   5.857   2.183  0.9146 -0.8904  1.6455
 3713TIP3    H235335   6.759   5.865   2.166  1.3250  1.0544 -2.0246
 3714TIP3   OH235336   7.460   3.080   8.443  0.6154 -0.2395 -0.1841
 3714TIP3    H135337   7.497   3.151   8.496 -0.2085 -0.3453  0.5640
 3714TIP3    H235338   7.435   3.014   8.508 -2.9925  0.7592 -0.3618
 3715TIP3   OH235339   4.791   1.725   9.347  0.3494 -0.1763  0.4795
 3715TIP3    H135340   4.823   1.676   9.271 -0.6836 -2.1085  1.2195
 3715TIP3    H235341   4.852   1.798   9.356  1.7813 -1.1443 -0.8777
 3716TIP3   OH235342   0.929   3.193   8.768 -0.0087 -0.1289  0.0468
 3716TIP3    H135343   0.945   3.287   8.768 -0.5986  0.0159 -1.7586
 3716TIP3    H235344   1.008   3.154   8.806 -0.1433  1.1190  1.6816
 3717TIP3   OH235345   7.434   4.928   1.078  0.6745 -0.5101  0.3605
 3717TIP3    H135346   7.386   4.957   1.001  0.7269 -2.5500 -0.5061
 3717TIP3    H235347   7.367   4.910   1.143  0.4658 -0.6987  0.0954
 3718TIP3   OH235348   6.474   1.213   0.039 -0.2703 -0.2797  0.4424
 3718TIP3    H135349   6.413   1.146   0.007 -0.0538  0.0850 -0.7542
 3718TIP3    H235350   6.436   1.296   0.011  1.2632 -0.0821 -1.2492
 3719TIP3   OH235351   3.889   3.751   9.485 -0.1104  0.2669  0.2945
 3719TIP3    H135352   3.969   3.793   9.455 -1.1305  2.5559  0.5794
 3719TIP3    H235353   3.839   3.734   9.406 -0.5500  1.4776  0.2992
 3720TIP3   OH235354   4.194   1.109   8.479  0.1666 -0.1481 -0.5810
 3720TIP3    H135355   4.242   1.118   8.562 -1.0141  1.7855 -0.0526
 3720TIP3    H235356   4.117   1.057   8.502 -2.6000  4.0839  0.7835
 3721TIP3   OH235357   0.194   1.898   0.760 -1.0373  0.0361  0.0545
 3721TIP3    H135358   0.247   1.877   0.837 -1.4894  1.5597  0.8154
 3721TIP3    H235359   0.168   1.812   0.726  2.3795 -0.8190 -0.7407
 3722TIP3   OH235360   5.387   5.904   8.718 -0.0235  0.3233 -1.1216
 3722TIP3    H135361   5.442   5.982   8.713  1.0200 -0.4136 -1.5559
 3722TIP3    H235362   5.333   5.907   8.639  0.4800  0.2772 -1.4717
 3723TIP3   OH235363   5.840   3.215   9.670 -0.6593 -0.1372  0.5888
 3723TIP3    H135364   5.804   3.289   9.621  0.9836  0.4180  0.1600
 3723TIP3    H235365   5.904   3.254   9.730  0.9570 -1.2628 -0.3229
 3724TIP3   OH235366   2.780   4.346   9.354 -0.1471  0.5154  0.1034
 3724TIP3    H135367   2.703   4.290   9.364 -0.4194  0.3241 -2.4600
 3724TIP3    H235368   2.750   4.433   9.377 -1.0796  0.3959 -0.6101
 3725TIP3   OH235369   2.078   4.732   1.684  0.2631  0.2292 -0.6557
 3725TIP3    H135370   2.062   4.639   1.699 -4.8371  1.1662  2.5161
 3725TIP3    H235371   2.067   4.772   1.770 -0.0765  3.9388 -2.2314
 3726TIP3   OH235372   5.693   5.014   8.138  0.5922  0.6475 -0.9482
 3726TIP3    H135373   5.753   4.940   8.149  0.1392  0.2470 -1.1344
 3726TIP3    H235374   5.707   5.043   8.048 -0.2667 -0.1483 -1.3568
 3727TIP3   OH235375   3.011   0.270   2.397  0.0882  0.2894  0.1905
 3727TIP3    H135376   3.063   0.316   2.463 -0.0049  0.3268  0.2389
 3727TIP3    H235377   2.932   0.324   2.388 -0.7428 -0.6797  1.3793
 3728TIP3   OH235378   0.300   1.976   8.545  0.3334  0.2196  0.8060
 3728TIP3    H135379   0.326   1.944   8.631  0.8029 -1.8916 -0.0349
 3728TIP3    H235380   0.363   2.045   8.524  0.0526  0.9379  2.2229
 3729TIP3   OH235381   1.539   5.340   0.565 -0.3048 -0.1370 -0.7385
 3729TIP3    H135382   1.607   5.340   0.632 -1.9328  1.3554  1.0619
 3729TIP3    H235383   1.574   5.393   0.494  1.1215 -0.9957 -0.7089
 3730TIP3   OH235384   1.154   7.499   1.827  0.7830  0.5768  0.1161
 3730TIP3    H135385   1.088   7.430   1.837 -0.1134  1.4562  0.4850
 3730TIP3    H235386   1.214   7.466   1.760  1.6408 -1.5094  1.7552
 3731TIP3   OH235387   4.604   4.917   0.280  0.6193  0.4021  0.6593
 3731TIP3    H135388   4.639   4.989   0.228  1.0929  0.1885  0.6822
 3731TIP3    H235389   4.548   4.868   0.219  1.1925  0.1360  0.3381
 3732TIP3   OH235390   5.321   5.088   0.608  0.0413  0.1084  0.0315
 3732TIP3    H135391   5.279   5.066   0.525  2.1260  2.4500 -1.7881
 3732TIP3    H235392   5.414   5.100   0.586  0.1434  4.4258  1.8313
 3733TIP3   OH235393   3.686   7.477   1.198 -0.1884 -0.9103  0.1509
 3733TIP3    H135394   3.749   7.411   1.225  0.3662  0.1085  1.4433
 3733TIP3    H235395   3.601   7.444   1.229  0.2413 -0.4824  1.8840
 3734TIP3   OH235396   2.929   0.191   8.758 -0.5602 -0.3065  0.5594
 3734TIP3    H135397   2.972   0.106   8.769  0.2304  0.0996  0.6089
 3734TIP3    H235398   2.844   0.169   8.719 -0.4104 -1.1264  0.6668
 3735TIP3   OH235399   3.991   2.712   9.918  0.3956  0.2486  0.0299
 3735TIP3    H135400   3.969   2.787   9.973  0.7551  0.0022  0.5155
 3735TIP3    H235401   4.030   2.751   9.840 -0.5731  0.6254 -0.2910
 3736TIP3   OH235402   1.671   2.388   9.072  0.2210 -0.1541  0.6003
 3736TIP3    H135403   1.596   2.333   9.093 -0.6362  0.2946 -1.1380
 3736TIP3    H235404   1.738   2.326   9.041 -0.2737 -0.3691 -0.0733
 3737TIP3   OH235405   2.761   4.195   0.133  0.5409  0.4926 -0.4704
 3737TIP3    H135406   2.778   4.102   0.145  1.6534  0.5896 -1.1179
 3737TIP3    H235407   2.666   4.203   0.135  0.4723 -0.4648  0.8674
 3738TIP3   OH235408   1.373   5.834   7.080 -0.2329  0.4909 -0.3845
 3738TIP3    H135409   1.358   5.739   7.084 -0.0885  0.4976  0.4019
 3738TIP3    H235410   1.439   5.851   7.147 -0.8415  1.2622  0.0330
 3739TIP3   OH235411   0.087   6.110   8.789  0.7471 -0.2898  0.3011
 3739TIP3    H135412   0.099   6.025   8.747 -0.5413  0.4773 -1.7688
 3739TIP3    H235413   0.171   6.153   8.781  2.3707 -2.3012  3.9447
 3740TIP3   OH235414   5.019   7.243   8.731 -0.0318  0.3711  0.4648
 3740TIP3    H135415   5.020   7.202   8.817 -0.1334  1.6124  1.0867
 3740TIP3    H235416   5.111   7.258   8.710  0.0549 -0.9202 -0.1555
 3741TIP3   OH235417   3.516   2.708   7.513  0.4876 -0.0292 -0.8326
 3741TIP3    H135418   3.494   2.615   7.513  0.6096 -0.0691 -1.7125
 3741TIP3    H235419   3.444   2.749   7.465 -0.3139  0.5366  0.7725
 3742TIP3   OH235420   1.739   4.425   9.766  0.0711 -0.2237 -0.3307
 3742TIP3    H135421   1.696   4.353   9.721  1.3455 -0.7350 -0.7866
 3742TIP3    H235422   1.685   4.441   9.844 -0.2133 -1.6899 -0.2050
 3743TIP3   OH235423   2.564   6.930   0.076  0.0905 -0.0302 -0.1393
 3743TIP3    H135424   2.532   6.846   0.045 -0.7429  0.0369  0.4897
 3743TIP3    H235425   2.487   6.972   0.115  0.5319  0.9493 -0.2880
 3744TIP3   OH235426   6.563   7.202   1.440 -0.0119  0.1099 -0.1152
 3744TIP3    H135427   6.513   7.129   1.477  0.0276  0.5318  0.7941
 3744TIP3    H235428   6.651   7.192   1.477  0.1505  0.2887 -0.4458
 3745TIP3   OH235429   5.783   2.055   2.114  0.6822 -0.6450  0.4860
 3745TIP3    H135430   5.749   2.136   2.151  2.4474  0.7342 -0.7424
 3745TIP3    H235431   5.840   2.083   2.042 -0.0759 -3.0538 -1.2019
 3746TIP3   OH235432   5.024   2.743   0.595  0.3382  0.3234 -0.1727
 3746TIP3    H135433   5.063   2.715   0.512  0.9577  0.4833  0.0623
 3746TIP3    H235434   4.940   2.783   0.570  1.5299  2.5057 -0.9871
 3747TIP3   OH235435   2.406   6.334   6.846  0.3385 -0.1315  0.0872
 3747TIP3    H135436   2.324   6.290   6.870 -0.8366 -0.2773 -3.6333
 3747TIP3    H235437   2.452   6.271   6.790  2.7501  0.2385  1.4809
 3748TIP3   OH235438   1.098   3.361   2.067  0.1577 -0.1132 -0.0156
 3748TIP3    H135439   1.165   3.367   1.998 -0.2935 -1.4315 -0.6026
 3748TIP3    H235440   1.021   3.327   2.022 -0.7433  0.8226  0.7835
 3749TIP3   OH235441   0.138   2.432   0.072 -0.1549  0.1289  0.4885
 3749TIP3    H135442   0.137   2.354   0.016  0.6556 -1.0921  2.0997
 3749TIP3    H235443   0.219   2.477   0.049  0.6350 -0.8512  1.2764
 3750TIP3   OH235444   0.056   2.216   9.049 -0.1011  0.1304 -0.1096
 3750TIP3    H135445   0.117   2.183   9.115  2.1911  0.7183 -1.7737
 3750TIP3    H235446   0.043   2.143   8.989 -1.3682 -0.0981  0.4207
 3751TIP3   OH235447   3.290   2.020   9.259 -0.3875  0.6437  0.1156
 3751TIP3    H135448   3.305   2.106   9.220  0.2524  0.3815 -0.2359
 3751TIP3    H235449   3.285   2.036   9.353  2.0506  0.7940  0.2838
 3752TIP3   OH235450   0.376   3.201   1.897  0.3606  0.4225  0.0984
 3752TIP3    H135451   0.312   3.267   1.921 -0.6134  0.0342 -1.3561
 3752TIP3    H235452   0.459   3.235   1.930 -0.5626  0.8975  2.0856
 3753TIP3   OH235453   0.676   6.740   1.566 -0.8841  0.3399  0.2025
 3753TIP3    H135454   0.593   6.706   1.598 -1.1621  0.8374  0.0138
 3753TIP3    H235455   0.702   6.805   1.632  0.2659 -1.0884  1.2326
 3754TIP3   OH235456   1.525   6.444   9.390  0.2289  0.5763 -0.8289
 3754TIP3    H135457   1.538   6.523   9.441  2.4880  0.3595 -0.9826
 3754TIP3    H235458   1.498   6.475   9.303 -0.7297  1.0547 -0.3773
 3755TIP3   OH235459   6.968   0.499   1.394  0.2181 -0.8468  0.1282
 3755TIP3    H135460   6.897   0.486   1.331 -0.7282  2.0430  0.4902
 3755TIP3    H235461   7.035   0.545   1.345  0.4440 -0.6111  0.6606
 3756TIP3   OH235462   4.057   6.555   8.055 -0.4119 -0.0238  0.2943
 3756TIP3    H135463   3.966   6.531   8.039 -0.8124  1.4083  0.3232
 3756TIP3    H235464   4.082   6.607   7.978 -0.3970  1.6433  1.3812
 3757TIP3   OH235465   4.784   1.273   8.051  0.5879  0.5082 -0.3341
 3757TIP3    H135466   4.734   1.273   7.969 -0.9501  0.2208  0.5716
 3757TIP3    H235467   4.776   1.184   8.084  2.1716  0.3071 -0.4093
 3758TIP3   OH235468   0.024   6.733   0.051 -0.5597 -0.5396 -0.4834
 3758TIP3    H135469   0.094   6.687   0.005 -0.4777  0.0866 -1.0064
 3758TIP3    H235470   0.069   6.785   0.117 -0.5184 -0.0649 -0.8815
 3759TIP3   OH235471   3.029   5.729   2.333 -0.1947 -0.1829  0.1942
 3759TIP3    H135472   3.087   5.731   2.257 -0.4633 -1.2214 -0.0494
 3759TIP3    H235473   2.988   5.643   2.329 -0.1077 -0.3072  1.5942
 3760TIP3   OH235474   5.681   4.276   9.890 -0.3929 -0.2064 -0.4689
 3760TIP3    H135475   5.720   4.200   9.845  0.7094  0.4410 -0.6461
 3760TIP3    H235476   5.610   4.239   9.942 -1.0959 -1.1090 -1.9982
 3761TIP3   OH235477   2.932   4.849   1.316 -0.7856 -0.1186  0.4112
 3761TIP3    H135478   2.892   4.775   1.360  1.5313 -1.7507 -0.0294
 3761TIP3    H235479   2.860   4.911   1.302 -2.2967 -1.0717  3.1777
 3762TIP3   OH235480   0.117   0.618   2.086 -0.3425  0.0321  0.2311
 3762TIP3    H135481   0.206   0.638   2.058  0.2321 -1.1661  1.1052
 3762TIP3    H235482   0.103   0.528   2.058 -0.9903 -0.0450  0.7770
 3763TIP3   OH235483   4.168   1.167   8.224 -0.7108  0.0692  0.1567
 3763TIP3    H135484   4.147   1.259   8.210  0.9159  0.5850  0.9260
 3763TIP3    H235485   4.188   1.161   8.318  1.8235 -0.4630 -0.3452
 3764TIP3   OH235486   3.875   5.032   2.737  0.2717 -0.5849  0.4067
 3764TIP3    H135487   3.793   4.984   2.736 -2.0294  3.0135  0.1752
 3764TIP3    H235488   3.891   5.054   2.645  0.4917  0.3136  0.6577
 3765TIP3   OH235489   3.885   2.374   8.910 -0.3654  0.3555 -0.3444
 3765TIP3    H135490   3.827   2.312   8.865 -1.2574  1.1823 -0.3687
 3765TIP3    H235491   3.854   2.372   9.001 -0.5401  0.9182 -0.3893
 3766TIP3   OH235492   4.161   7.174   0.764  0.2112  0.9279 -0.4016
 3766TIP3    H135493   4.132   7.230   0.835  1.2652 -0.1811  0.9695
 3766TIP3    H235494   4.252   7.201   0.747  0.5348  0.0590 -0.1261
 3767TIP3   OH235495   5.242   0.618   7.829  0.3962 -0.0346 -0.3734
 3767TIP3    H135496   5.334   0.624   7.855  0.5926  1.5807 -1.3633
 3767TIP3    H235497   5.203   0.701   7.854 -0.9431 -0.8692  0.4614
 3768TIP3   OH235498   6.011   6.081   9.693 -0.2599 -0.8471 -0.7926
 3768TIP3    H135499   6.016   6.053   9.602 -2.2334 -0.8788 -0.9203
 3768TIP3    H235500   5.920   6.069   9.718 -0.8986  3.4753 -0.2572
 3769TIP3   OH235501   6.407   0.724   1.491  0.8999 -0.2829  0.2005
 3769TIP3    H135502   6.337   0.744   1.430  1.4919  0.7739 -0.1592
 3769TIP3    H235503   6.390   0.634   1.519 -1.0241  0.1995  0.7219
 3770TIP3   OH235504   7.176   4.088   7.925 -0.2645  0.3193 -0.3900
 3770TIP3    H135505   7.190   4.151   7.995 -1.0327 -0.6024  0.6192
 3770TIP3    H235506   7.265   4.061   7.899  0.0475  1.3417 -0.4259
 3771TIP3   OH235507   4.894   0.655   7.499 -0.1672 -0.6500 -0.0765
 3771TIP3    H135508   4.985   0.683   7.499 -0.3993  0.1463  0.1380
 3771TIP3    H235509   4.852   0.710   7.566 -0.7903 -1.0320 -0.1446
 3772TIP3   OH235510   3.405   0.298   7.291 -0.4294  0.9944 -0.2987
 3772TIP3    H135511   3.444   0.220   7.253  0.8889  1.7295 -0.5119
 3772TIP3    H235512   3.333   0.265   7.345  0.5508 -0.4246  0.1998
 3773TIP3   OH235513   4.627   2.038   9.402 -0.5935  0.3396 -0.6289
 3773TIP3    H135514   4.570   1.963   9.387 -0.3862 -0.8707  3.3590
 3773TIP3    H235515   4.579   2.093   9.463  0.7708  1.5280 -0.5783
 3774TIP3   OH235516   2.391   0.034   1.487  0.6206 -0.4540  0.1505
 3774TIP3    H135517   2.460   0.100   1.489  0.8215 -0.6802  1.3405
 3774TIP3    H235518   2.322   0.073   1.434  2.1816 -0.7644 -2.2589
 3775TIP3   OH235519   7.130   0.661   1.241 -0.5814  0.7236 -0.3984
 3775TIP3    H135520   7.225   0.663   1.234 -0.4599  1.8668  1.1924
 3775TIP3    H235521   7.099   0.718   1.170 -0.0487  1.1244 -0.3100
 3776TIP3   OH235522   0.872   7.284   1.123  0.4208  0.1636 -0.2409
 3776TIP3    H135523   0.829   7.204   1.153  2.0574 -0.0189  1.8220
 3776TIP3    H235524   0.873   7.342   1.199  1.3472  1.2337 -1.0216
 3777TIP3   OH235525   5.640   1.087   7.479  0.0681 -0.0339 -0.5054
 3777TIP3    H135526   5.557   1.042   7.458 -0.4859  0.0810  1.2932
 3777TIP3    H235527   5.706   1.019   7.472 -0.4854 -0.6591  0.1203
 3778TIP3   OH235528   0.142   4.210   2.471  0.4566 -0.2105  0.1376
 3778TIP3    H135529   0.089   4.138   2.504 -1.4075  0.5411 -1.0627
 3778TIP3    H235530   0.194   4.238   2.546 -1.3877 -0.5271  1.5980
 3779TIP3   OH235531   1.179   4.011   1.971  0.2250 -0.7197 -0.1614
 3779TIP3    H135532   1.264   3.969   1.988  0.4349 -0.6567 -1.0342
 3779TIP3    H235533   1.150   3.975   1.888 -0.1352  0.0182 -0.3624
 3780TIP3   OH235534   4.538   3.516   9.140 -0.0516 -0.1446 -0.0038
 3780TIP3    H135535   4.610   3.506   9.078 -0.4125 -1.1724 -0.2721
 3780TIP3    H235536   4.558   3.598   9.186  0.7107  0.1466 -0.8188
 3781TIP3   OH235537   2.902   2.811   2.715  0.2524  0.7072 -0.0455
 3781TIP3    H135538   2.971   2.798   2.650  0.4688 -0.3896  0.3697
 3781TIP3    H235539   2.947   2.848   2.791  0.4241 -0.0792  0.2528
 3782TIP3   OH235540   2.072   7.638   0.690  0.1489  0.1842  0.4311
 3782TIP3    H135541   2.103   7.667   0.776  1.1102  0.5139 -0.0032
 3782TIP3    H235542   2.152   7.629   0.638 -0.4854  1.2669 -0.8081
 3783TIP3   OH235543   3.396   1.935   1.114  0.1258  0.1447  0.2094
 3783TIP3    H135544   3.464   1.882   1.075 -1.2342 -1.7392  0.2715
 3783TIP3    H235545   3.394   1.909   1.206 -0.0728  0.8450  0.4128
 3784TIP3   OH235546   0.517   0.533   7.251  0.1254  0.0226 -0.2310
 3784TIP3    H135547   0.506   0.439   7.260  0.0480 -0.0252 -0.8267
 3784TIP3    H235548   0.468   0.570   7.325  0.5980 -0.4180  0.3127
 3785TIP3   OH235549   2.740   2.121   0.316 -0.0852 -0.4731 -0.0785
 3785TIP3    H135550   2.659   2.172   0.320 -0.2922 -0.8782  2.0279
 3785TIP3    H235551   2.716   2.041   0.269 -1.5088 -1.5070  2.2436
 3786TIP3   OH235552   3.592   0.311   1.980  0.8657  0.3073 -0.0882
 3786TIP3    H135553   3.524   0.354   1.929  0.8489  0.4563  0.0574
 3786TIP3    H235554   3.586   0.219   1.956  0.9905  0.4045 -0.5040
 3787TIP3   OH235555   5.520   5.430   9.347 -0.2601 -0.2872  0.1573
 3787TIP3    H135556   5.538   5.517   9.310  2.1708 -0.7650  0.0783
 3787TIP3    H235557   5.432   5.408   9.315 -1.2559  2.3893  0.7449
 3788TIP3   OH235558   4.097   1.235   1.769 -0.5626 -0.0717  0.0249
 3788TIP3    H135559   4.013   1.192   1.785 -0.5892  0.0866  0.3154
 3788TIP3    H235560   4.094   1.314   1.823  0.3478 -0.7641  1.1375
 3789TIP3   OH235561   3.564   6.440   2.237 -0.3812  0.1675  0.8020
 3789TIP3    H135562   3.619   6.395   2.301 -1.3747 -1.4688  0.5577
 3789TIP3    H235563   3.477   6.403   2.250 -0.8900  0.8109 -0.5708
 3790TIP3   OH235564   3.213   4.166   0.243  0.4301  0.2342  0.1126
 3790TIP3    H135565   3.209   4.223   0.320  2.0214 -1.0667  1.2279
 3790TIP3    H235566   3.272   4.211   0.183  1.2160  0.0760  0.7464
 3791TIP3   OH235567   3.373   6.761   9.058 -0.4935  0.0600  0.1508
 3791TIP3    H135568   3.289   6.722   9.084 -1.2031  2.4753  1.9344
 3791TIP3    H235569   3.439   6.705   9.098 -1.2899 -1.2488 -0.3099
 3792TIP3   OH235570   6.947   1.574   2.804 -0.4012  0.3433 -0.2851
 3792TIP3    H135571   7.003   1.613   2.871  0.2903  0.5038 -0.9385
 3792TIP3    H235572   6.942   1.481   2.827 -0.9654  0.5662  0.5286
 3793TIP3   OH235573   7.304   4.133   9.736 -0.3683 -0.4197 -0.2764
 3793TIP3    H135574   7.226   4.129   9.680 -0.5985  0.6955 -0.0671
 3793TIP3    H235575   7.282   4.079   9.811 -1.0900  0.1440 -0.0643
 3794TIP3   OH235576   6.037   4.712   8.391  0.6092  0.2047 -0.7259
 3794TIP3    H135577   6.132   4.715   8.403  0.5016 -1.3737  1.0157
 3794TIP3    H235578   6.013   4.622   8.415 -1.3380  0.5613 -1.1630
 3795TIP3   OH235579   0.786   6.675   0.536  0.4017  0.4862  0.4451
 3795TIP3    H135580   0.866   6.629   0.560  0.3467 -0.5596 -1.2341
 3795TIP3    H235581   0.715   6.615   0.560  0.2728  0.1836 -0.6386
 3796TIP3   OH235582   3.742   4.888   1.447  0.2891  0.0069  0.5068
 3796TIP3    H135583   3.649   4.913   1.453  0.3343  0.0822  0.9156
 3796TIP3    H235584   3.771   4.885   1.538  1.0075  1.1520  0.3281
 3797TIP3   OH235585   6.236   4.164   9.227  0.2758 -0.4687 -0.3206
 3797TIP3    H135586   6.253   4.154   9.320 -0.1690  0.8085 -0.0884
 3797TIP3    H235587   6.143   4.142   9.217  0.2801 -0.4367 -0.4317
 3798TIP3   OH235588   2.004   5.507   9.019 -0.2272  0.0077  0.0630
 3798TIP3    H135589   2.057   5.557   9.081  0.1896  0.9606 -1.0421
 3798TIP3    H235590   2.006   5.418   9.054  1.1912  0.2348  0.6467
 3799TIP3   OH235591   2.413   6.382   9.454 -0.1458 -0.4215 -0.5334
 3799TIP3    H135592   2.353   6.400   9.526 -1.7107 -2.7084 -1.1436
 3799TIP3    H235593   2.376   6.429   9.379 -0.0940 -0.2912 -0.4769
 3800TIP3   OH235594   4.597   6.002   9.293 -0.1470 -0.2517 -0.6724
 3800TIP3    H135595   4.655   5.962   9.357 -1.7404 -0.9918  0.3928
 3800TIP3    H235596   4.599   6.096   9.314  1.7138 -0.0386 -1.5963
 3801TIP3   OH235597   0.825   1.600   1.088  0.7773  0.3509  0.7024
 3801TIP3    H135598   0.777   1.565   1.013  0.3013 -1.4817  1.8133
 3801TIP3    H235599   0.909   1.628   1.051 -0.2202  1.4494 -0.8554
 3802TIP3   OH235600   1.431   5.014   6.551  0.6811  0.2594 -0.2714
 3802TIP3    H135601   1.368   5.020   6.623  0.7852  1.1109 -0.2403
 3802TIP3    H235602   1.423   4.924   6.520 -0.8926  0.4797 -0.5847
 3803TIP3   OH235603   4.020   4.068   0.439  0.2219 -0.5646  0.3185
 3803TIP3    H135604   4.095   4.082   0.382 -0.3028 -1.5283 -0.6458
 3803TIP3    H235605   4.042   3.989   0.489 -0.3714 -1.2099 -0.4035
 3804TIP3   OH235606   5.512   6.010   9.630  0.0756  0.0545 -0.4581
 3804TIP3    H135607   5.555   6.075   9.686  1.2155  1.6335 -2.9944
 3804TIP3    H235608   5.562   6.011   9.548 -2.6836 -0.6105 -2.3050
 3805TIP3   OH235609   0.131   4.242   1.815  0.3218  0.4351 -0.4575
 3805TIP3    H135610   0.200   4.180   1.791 -0.4314 -0.9084  0.7096
 3805TIP3    H235611   0.058   4.220   1.757  0.8010  1.7879 -1.6222
 3806TIP3   OH235612   4.141   5.904   7.673  0.5655  0.0318 -0.3147
 3806TIP3    H135613   4.208   5.969   7.693  0.5960 -0.1291  0.0978
 3806TIP3    H235614   4.124   5.859   7.756  1.4300 -1.3316 -0.8274
 3807TIP3   OH235615   7.203   2.309   8.810  0.5175 -0.4398 -0.2444
 3807TIP3    H135616   7.268   2.359   8.761  1.6722 -0.0361  1.5826
 3807TIP3    H235617   7.149   2.377   8.852  1.4028 -0.6810  1.3633
 3808TIP3   OH235618   6.889   0.395   8.559  0.0814 -0.2325 -0.2432
 3808TIP3    H135619   6.910   0.317   8.507  0.3998 -0.6758  0.5299
 3808TIP3    H235620   6.863   0.360   8.644 -2.6895  0.3528 -0.7636
 3809TIP3   OH235621   7.563   1.577   1.826  0.0780  0.1246  0.0312
 3809TIP3    H135622   7.617   1.502   1.802  2.7489  1.6804  0.7916
 3809TIP3    H235623   7.501   1.586   1.754  0.1577 -2.3113 -0.4358
 3810TIP3   OH235624   4.420   1.901   8.461 -0.1824 -0.0215  0.0099
 3810TIP3    H135625   4.380   1.971   8.410  1.8488  0.3596 -1.1337
 3810TIP3    H235626   4.349   1.838   8.475 -2.0871  2.2017  1.0994
 3811TIP3   OH235627   1.927   6.493   0.762 -0.2921  0.0388  0.1077
 3811TIP3    H135628   2.004   6.490   0.704 -0.3365  1.7876 -0.1123
 3811TIP3    H235629   1.878   6.569   0.731 -1.0241  0.1874  1.5843
 3812TIP3   OH235630   2.710   6.448   9.800 -0.2903  0.3796  0.8473
 3812TIP3    H135631   2.728   6.541   9.811  3.1324 -0.0560 -0.0591
 3812TIP3    H235632   2.700   6.436   9.706  2.2338 -0.5116  0.6258
 3813TIP3   OH235633   0.657   1.906   2.116  0.3866  0.1865  0.0419
 3813TIP3    H135634   0.684   1.899   2.207  0.0169 -0.4454  0.1094
 3813TIP3    H235635   0.562   1.918   2.120  0.5124  1.3963 -0.2237
 3814TIP3   OH235636   7.328   7.580   0.455 -0.2919 -0.0165  0.6588
 3814TIP3    H135637   7.398   7.589   0.390 -1.4064  1.1517 -0.4260
 3814TIP3    H235638   7.375   7.575   0.539  1.0808  1.6945  0.0575
 3815TIP3   OH235639   5.573   5.291   1.562  0.1232 -0.6967 -0.0253
 3815TIP3    H135640   5.521   5.307   1.641  1.8728 -2.6002  1.6316
 3815TIP3    H235641   5.662   5.279   1.594  1.2375  0.1971 -2.5304
 3816TIP3   OH235642   1.725   1.581   8.451  0.2189  0.2836  0.2544
 3816TIP3    H135643   1.779   1.628   8.515 -0.5020  1.4867 -0.0093
 3816TIP3    H235644   1.735   1.630   8.370  0.0448 -0.4538 -0.2229
 3817TIP3   OH235645   1.133   3.423   8.597  0.0909  0.3602  0.1822
 3817TIP3    H135646   1.071   3.354   8.570 -0.2118  0.7341 -0.0820
 3817TIP3    H235647   1.094   3.504   8.565 -0.6883  0.9413  2.3952
 3818TIP3   OH235648   0.282   5.870   7.950  0.0721  0.2237 -0.1421
 3818TIP3    H135649   0.203   5.879   7.896  0.7000 -0.2304 -1.1486
 3818TIP3    H235650   0.254   5.817   8.025 -0.2312 -1.1999 -1.2384
 3819TIP3   OH235651   7.112   6.972   0.039 -0.2793 -0.1482 -0.0863
 3819TIP3    H135652   7.124   6.919   0.118  0.1938 -0.0512 -0.0862
 3819TIP3    H235653   7.018   6.983   0.031 -0.3496 -0.5128  0.2307
 3820TIP3   OH235654   3.102   2.697   1.612 -0.0754 -0.4434 -0.0445
 3820TIP3    H135655   3.012   2.726   1.599 -0.0805 -0.5871 -0.3280
 3820TIP3    H235656   3.120   2.717   1.704 -0.1802  0.1809 -0.1518
 3821TIP3   OH235657   3.136   2.819   2.225 -0.2318 -0.0480  0.3818
 3821TIP3    H135658   3.181   2.879   2.284  0.4985  1.1577 -1.2988
 3821TIP3    H235659   3.073   2.875   2.178  0.5220 -0.5400 -1.2921
 3822TIP3   OH235660   0.681   6.291   2.185 -0.3471  0.3398  0.3949
 3822TIP3    H135661   0.591   6.286   2.216 -0.1437  0.9678  1.1537
 3822TIP3    H235662   0.706   6.383   2.199  0.1620  0.3621 -0.5321
 3823TIP3   OH235663   2.805   3.159   0.074 -0.1236 -0.4266  0.3541
 3823TIP3    H135664   2.738   3.185   0.010  0.6815 -1.3722 -0.9341
 3823TIP3    H235665   2.868   3.231   0.071  0.3530 -0.8566 -0.6148
 3824TIP3   OH235666   1.743   5.494   8.940  0.0922  0.5009 -0.0170
 3824TIP3    H135667   1.702   5.411   8.961 -1.0822  0.4433 -2.2201
 3824TIP3    H235668   1.819   5.499   8.998  0.3537 -2.2279 -0.0176
 3825TIP3   OH235669   6.087   2.604   0.057 -0.0988  0.7666  0.8854
 3825TIP3    H135670   6.127   2.578   0.140 -0.2170 -0.9335  0.4453
 3825TIP3    H235671   6.144   2.567  -0.010 -0.5642  1.2408  0.2097
 3826TIP3   OH235672   3.153   4.997   1.231  0.0558  0.1019 -0.5102
 3826TIP3    H135673   3.078   4.957   1.275  0.4722  0.4684  0.5655
 3826TIP3    H235674   3.210   4.923   1.209  0.2758 -0.0089  0.4091
 3827TIP3   OH235675   5.057   1.083   9.995 -0.2481  0.7086  0.3159
 3827TIP3    H135676   5.014   0.999   9.975  1.3423  0.0900 -0.6617
 3827TIP3    H235677   5.084   1.116   9.910  1.5171  0.8975  0.9294
 3828TIP3   OH235678   6.229   4.249   2.298  0.0787 -0.4967 -0.5527
 3828TIP3    H135679   6.136   4.226   2.296 -0.0615 -0.4357  2.0302
 3828TIP3    H235680   6.272   4.174   2.339  0.8497  0.3151  0.1714
 3829TIP3   OH235681   1.765   4.096   7.409 -0.0564 -0.8845 -0.2724
 3829TIP3    H135682   1.752   4.038   7.334  0.7148 -0.2232 -0.9421
 3829TIP3    H235683   1.676   4.122   7.434 -0.3294 -1.1447 -0.9362
 3830TIP3   OH235684   4.677   7.524   8.552 -0.4098  0.4835  0.0593
 3830TIP3    H135685   4.585   7.551   8.554 -1.0816 -1.5281 -0.6078
 3830TIP3    H235686   4.704   7.521   8.644 -1.0605  0.9585  0.2684
 3831TIP3   OH235687   1.353   6.244   1.003  0.0548 -0.4024 -0.5260
 3831TIP3    H135688   1.393   6.196   0.930  0.5905 -0.0778 -0.4497
 3831TIP3    H235689   1.427   6.272   1.057  0.0407  2.6242 -1.8368
 3832TIP3   OH235690   0.252   7.321   7.724 -0.5491 -0.2394  0.2477
 3832TIP3    H135691   0.249   7.405   7.679  0.7273 -0.4093 -0.2117
 3832TIP3    H235692   0.318   7.333   7.792 -0.4551 -0.8233  0.2655
 3833TIP3   OH235693   3.358   1.577   7.664  0.2199 -0.2666 -0.0392
 3833TIP3    H135694   3.279   1.626   7.688 -0.0881 -0.8233  0.1061
 3833TIP3    H235695   3.429   1.640   7.677 -0.1078 -0.0340  0.7098
 3834TIP3   OH235696   5.273   2.528   1.143 -0.2292  0.1849 -0.5024
 3834TIP3    H135697   5.299   2.505   1.054  0.6750  0.8223 -0.4143
 3834TIP3    H235698   5.276   2.445   1.191  2.2534  0.2621 -0.3686
 3835TIP3   OH235699   5.484   1.000   8.374 -0.8149 -0.2018  0.1754
 3835TIP3    H135700   5.513   1.041   8.455 -0.7402 -1.3883  0.7691
 3835TIP3    H235701   5.392   0.976   8.391 -0.4237 -1.6463  0.4328
 3836TIP3   OH235702   7.068   4.266   9.054 -0.5004 -0.0141  0.3641
 3836TIP3    H135703   7.034   4.178   9.038 -1.6306  0.5063 -0.1983
 3836TIP3    H235704   7.026   4.321   8.988  1.9960  0.5696 -0.8586
 3837TIP3   OH235705   5.738   4.028   2.468 -0.2110 -0.5554 -0.0743
 3837TIP3    H135706   5.817   4.066   2.507 -0.5171 -1.4361  1.4789
 3837TIP3    H235707   5.761   4.015   2.376 -0.2111  3.7138 -0.9137
 3838TIP3   OH235708   6.128   3.282   8.237  0.1060 -0.2022 -0.0168
 3838TIP3    H135709   6.194   3.265   8.169  0.6666  0.1864  0.4178
 3838TIP3    H235710   6.162   3.237   8.315  0.0240  0.2773  0.2972
 3839TIP3   OH235711   5.457   0.557   0.183 -0.0519  0.5613  0.3581
 3839TIP3    H135712   5.543   0.539   0.220  0.3728 -1.7435 -1.5396
 3839TIP3    H235713   5.475   0.600   0.100 -0.6723 -0.1770 -0.1785
 3840TIP3   OH235714   4.188   6.054   1.809 -0.2775  0.4020 -0.5673
 3840TIP3    H135715   4.258   6.064   1.873 -2.0429  2.7420  1.1337
 3840TIP3    H235716   4.233   6.058   1.724  1.7123  1.2803  0.4639
 3841TIP3   OH235717   3.254   6.982   9.849 -0.5806 -0.2864  0.0436
 3841TIP3    H135718   3.314   7.055   9.868 -1.2545  0.7321 -1.5600
 3841TIP3    H235719   3.310   6.913   9.815  0.1220 -0.7004  1.9375
 3842TIP3   OH235720   3.991   0.263   7.598  0.0904  0.1638 -0.2327
 3842TIP3    H135721   4.044   0.187   7.621  2.0233  1.7820  1.0283
 3842TIP3    H235722   3.961   0.245   7.509  2.0030 -1.2853 -0.6686
 3843TIP3   OH235723   3.429   0.982   1.244  0.1830  0.4999 -0.5622
 3843TIP3    H135724   3.405   1.043   1.314 -0.4277  0.5135 -0.7771
 3843TIP3    H235725   3.389   1.019   1.165 -1.2054 -0.7742 -0.4994
 3844TIP3   OH235726   7.331   1.566   0.632  0.4245  0.0434 -0.1805
 3844TIP3    H135727   7.291   1.481   0.610  1.2101 -0.1261 -1.0160
 3844TIP3    H235728   7.308   1.580   0.724 -1.9108  0.1590 -0.7037
 3845TIP3   OH235729   6.509   7.223   0.850 -0.2884 -0.2685  0.2921
 3845TIP3    H135730   6.553   7.182   0.775 -0.5746  0.6899 -0.4179
 3845TIP3    H235731   6.449   7.155   0.882  0.2800 -0.9033  0.0476
 3846TIP3   OH235732   6.423   6.143   1.274 -0.1072  0.1641  0.0525
 3846TIP3    H135733   6.401   6.196   1.351  0.0099  0.1395  0.1037
 3846TIP3    H235734   6.405   6.200   1.200  0.1026  0.3101  0.1112
 3847TIP3   OH235735   7.092   0.821   8.833 -0.2296 -0.2487 -0.1515
 3847TIP3    H135736   7.117   0.855   8.747  0.2349  0.1763  0.1490
 3847TIP3    H235737   7.107   0.726   8.825  0.1649 -0.1695 -0.4235
 3848TIP3   OH235738   4.905   0.658   8.172  0.1360  0.1337 -0.0690
 3848TIP3    H135739   4.966   0.733   8.174 -1.0388  1.1243 -0.1115
 3848TIP3    H235740   4.943   0.595   8.233  0.3908  1.4075  1.1495
 3849TIP3   OH235741   4.447   2.677   8.993  0.0571 -0.6922 -0.4220
 3849TIP3    H135742   4.453   2.582   9.003 -0.4372 -0.6451  0.4960
 3849TIP3    H235743   4.496   2.697   8.914 -0.4981 -1.7942 -1.0560
 3850TIP3   OH235744   3.079   4.984   6.197 -0.1046 -0.1560  0.2398
 3850TIP3    H135745   3.066   5.054   6.261 -3.3290  0.3247 -0.7724
 3850TIP3    H235746   3.030   5.012   6.120 -0.2136 -2.8205 -0.7674
 3851TIP3   OH235747   3.045   0.758   0.046  0.4763  0.4744  0.1521
 3851TIP3    H135748   3.091   0.832   0.008 -0.5575  1.1608  0.1900
 3851TIP3    H235749   2.964   0.795   0.081  0.1878 -0.5833  0.6577
 3852TIP3   OH235750   5.867   5.309   2.078  0.4365  0.0922 -0.1269
 3852TIP3    H135751   5.869   5.213   2.075 -1.8016  0.0017 -2.4013
 3852TIP3    H235752   5.959   5.335   2.084  1.1653 -2.1864 -0.4282
 3853TIP3   OH235753   3.941   6.577   7.752  0.3201  0.5945 -0.1922
 3853TIP3    H135754   3.923   6.543   7.664  1.1457  0.3802 -0.2914
 3853TIP3    H235755   3.900   6.515   7.811  1.6722 -0.5338 -0.3734
 3854TIP3   OH235756   0.564   2.699   1.836  0.4061 -0.8104  0.4014
 3854TIP3    H135757   0.518   2.656   1.908  0.3526  0.9524  1.4932
 3854TIP3    H235758   0.609   2.628   1.790  1.1219 -1.9261  2.6723
 3855TIP3   OH235759   7.189   5.882   9.478  0.3613  0.0029  0.0546
 3855TIP3    H135760   7.167   5.804   9.427 -0.8012  2.0029 -2.7533
 3855TIP3    H235761   7.284   5.878   9.489  0.3441 -1.6630 -0.2224
 3856TIP3   OH235762   0.025   3.998   8.252 -0.3879  0.2043  0.8863
 3856TIP3    H135763   0.078   3.922   8.278 -1.6468 -0.2694  2.2055
 3856TIP3    H235764   0.077   4.074   8.279 -0.0626 -0.2320  1.5101
 3857TIP3   OH235765   7.547   6.113   9.247  0.0158  0.1004 -0.0675
 3857TIP3    H135766   7.573   6.081   9.160 -0.1687 -0.9034  0.2306
 3857TIP3    H235767   7.589   6.199   9.254  1.5884 -0.6036 -0.4101
 3858TIP3   OH235768   0.479   6.474   9.204  0.3216  0.1225  0.7179
 3858TIP3    H135769   0.515   6.504   9.287  2.4863  1.1068 -0.4940
 3858TIP3    H235770   0.556   6.453   9.151 -0.9486  0.4567 -1.3633
 3859TIP3   OH235771   2.382   6.426   8.000 -0.3178 -0.1708 -0.3955
 3859TIP3    H135772   2.465   6.442   7.956  0.1247 -1.8996 -0.2772
 3859TIP3    H235773   2.323   6.397   7.930 -0.3619 -0.4242 -0.2552
 3860TIP3   OH235774   1.892   7.095   0.018 -0.5178 -0.3176 -0.6586
 3860TIP3    H135775   1.947   7.035  -0.033  1.6805  0.7030  0.3687
 3860TIP3    H235776   1.861   7.159  -0.046 -0.6232 -0.9795 -1.2872
 3861TIP3   OH235777   6.137   6.052   1.741 -0.3006  0.2673  0.9763
 3861TIP3    H135778   6.140   5.970   1.790  1.3547 -0.0502  0.3915
 3861TIP3    H235779   6.066   6.040   1.678 -0.6816 -0.3361  1.5014
 3862TIP3   OH235780   0.685   6.811   9.251 -0.2109 -0.2239 -0.0341
 3862TIP3    H135781   0.758   6.758   9.218  1.3655  0.9728  1.3184
 3862TIP3    H235782   0.634   6.751   9.306  1.0516 -0.5912  0.7828
 3863TIP3   OH235783   2.434   0.896   1.806 -0.5208 -0.1305 -0.3048
 3863TIP3    H135784   2.345   0.862   1.793  0.1105 -1.6617 -0.9216
 3863TIP3    H235785   2.430   0.987   1.776 -1.9728 -0.0332  0.1086
 3864TIP3   OH235786   3.805   5.484   0.961  0.5587  0.4809  0.3543
 3864TIP3    H135787   3.780   5.392   0.976  0.6205  0.8221  2.9939
 3864TIP3    H235788   3.893   5.478   0.924  0.4438 -0.5518  0.2045
 3865TIP3   OH235789   6.703   4.107   0.135 -0.3127 -0.7472 -0.6633
 3865TIP3    H135790   6.688   4.178   0.074  1.0044 -0.1428 -0.3134
 3865TIP3    H235791   6.790   4.073   0.113 -0.3718 -1.3861  0.0147
 3866TIP3   OH235792   4.192   1.396   0.205  0.1890  0.1984 -0.0351
 3866TIP3    H135793   4.265   1.380   0.144 -0.8316  1.6384 -1.7359
 3866TIP3    H235794   4.141   1.315   0.203  1.0072 -0.3387  0.1520
 3867TIP3   OH235795   1.452   1.168   7.249 -0.3646 -0.2694  0.2914
 3867TIP3    H135796   1.472   1.093   7.193  1.5352 -0.4241  1.0987
 3867TIP3    H235797   1.358   1.159   7.269 -0.8552 -0.7295 -2.0097
 3868TIP3   OH235798   2.186   2.994   7.565 -0.3048  0.0531 -0.3157
 3868TIP3    H135799   2.174   3.062   7.498  0.4393  0.0771 -0.4338
 3868TIP3    H235800   2.187   3.043   7.648 -1.9085 -0.0495 -0.2202
 3869TIP3   OH235801   6.918   6.489   8.453  0.6633  0.1274 -0.0482
 3869TIP3    H135802   6.898   6.582   8.465  1.6323  0.3755 -0.3045
 3869TIP3    H235803   6.838   6.444   8.480  0.5675  0.9772  1.1502
 3870TIP3   OH235804   1.298   6.483   1.148 -0.2517  0.4843  0.1849
 3870TIP3    H135805   1.322   6.410   1.091 -0.5895  2.2964 -2.4713
 3870TIP3    H235806   1.237   6.445   1.211  1.6413 -2.0418  0.6714
 3871TIP3   OH235807   3.750   2.606   1.605  0.0707 -0.4386 -0.4512
 3871TIP3    H135808   3.834   2.572   1.575  0.7515  1.0030 -0.2817
 3871TIP3    H235809   3.706   2.635   1.525 -0.7698 -2.1544 -0.6678
 3872TIP3   OH235810   2.218   2.065   9.660  0.0402  0.5222  0.1592
 3872TIP3    H135811   2.266   2.001   9.608  0.5354  1.9522 -1.2166
 3872TIP3    H235812   2.286   2.126   9.691 -0.0016 -0.9851  3.7028
 3873TIP3   OH235813   7.165   5.233   9.002 -0.3962  0.3564  0.1867
 3873TIP3    H135814   7.204   5.149   9.027  0.0489  0.3738 -0.4263
 3873TIP3    H235815   7.211   5.258   8.922 -1.4646  0.5259 -0.3933
 3874TIP3   OH235816   2.688   0.655   0.536  0.1968 -0.3239  0.1086
 3874TIP3    H135817   2.771   0.695   0.563 -0.5332 -0.4315  2.7233
 3874TIP3    H235818   2.634   0.729   0.510  0.5660 -0.1211 -0.1073
 3875TIP3   OH235819   7.636   0.729   9.349  0.9379 -0.2354 -0.4022
 3875TIP3    H135820   7.720   0.737   9.304  0.3339  0.4164 -1.4428
 3875TIP3    H235821   7.573   0.714   9.279 -0.1171  1.4142  0.1387
 3876TIP3   OH235822   1.822   1.367   7.269 -0.6469  0.0011  0.4963
 3876TIP3    H135823   1.772   1.445   7.243 -1.4790 -0.3794  0.8932
 3876TIP3    H235824   1.893   1.361   7.205 -0.2845  1.3494  0.7305
 3877TIP3   OH235825   6.105   1.806   9.733 -0.3197  0.3406  0.5208
 3877TIP3    H135826   6.118   1.860   9.810  0.9346  2.4277 -1.0575
 3877TIP3    H235827   6.180   1.747   9.730 -0.2168  0.4658  0.7145
 3878TIP3   OH235828   1.229   2.557   9.497 -0.1284  0.4069  0.0570
 3878TIP3    H135829   1.201   2.644   9.467 -1.1183  0.2632  0.5060
 3878TIP3    H235830   1.208   2.557   9.591 -1.0197 -0.6449 -0.1279
 3879TIP3   OH235831   0.077   3.409   2.265 -0.2915  0.0448  0.2790
 3879TIP3    H135832   0.044   3.320   2.262  0.4719 -0.3859  2.4958
 3879TIP3    H235833  -0.000   3.463   2.286 -0.9814  0.1269 -2.2018
 3880TIP3   OH235834   4.813   5.445   8.439  0.0801 -0.3743  0.8908
 3880TIP3    H135835   4.823   5.537   8.418 -0.6385 -0.3504  0.6363
 3880TIP3    H235836   4.729   5.420   8.401  0.0028 -0.9917  1.4425
 3881TIP3   OH235837   3.569   0.697   8.721 -0.2549  0.3928 -0.4794
 3881TIP3    H135838   3.654   0.738   8.738 -0.4499  0.8921 -0.6875
 3881TIP3    H235839   3.580   0.653   8.637  0.8482 -2.4476  0.9998
 3882TIP3   OH235840   1.465   3.051   9.513  0.1055  0.2821  0.0870
 3882TIP3    H135841   1.450   2.977   9.455  1.2946  1.0529 -1.2415
 3882TIP3    H235842   1.392   3.110   9.496 -1.9309 -1.3144  2.5176
 3883TIP3   OH235843   3.532   6.829   7.017  0.4067  0.2961  0.0753
 3883TIP3    H135844   3.598   6.868   6.960  1.8451 -1.0822  0.7277
 3883TIP3    H235845   3.504   6.750   6.970  2.0944 -1.2273  1.4641
 3884TIP3   OH235846   3.140   6.128   9.693 -0.4062 -0.3137  0.9268
 3884TIP3    H135847   3.186   6.152   9.612  1.1249 -1.2752  1.4602
 3884TIP3    H235848   3.100   6.043   9.674 -0.0289 -0.5499  1.1683
 3885TIP3   OH235849   5.500   2.165   0.769 -0.4405  0.0068 -0.0682
 3885TIP3    H135850   5.410   2.139   0.786 -0.9727  0.9013 -1.3994
 3885TIP3    H235851   5.526   2.216   0.846 -1.1409 -0.0567  0.2128
 3886TIP3   OH235852   5.258   3.905   9.407 -0.2448 -0.0304  0.6338
 3886TIP3    H135853   5.245   3.939   9.496  1.3312 -1.5519  1.4934
 3886TIP3    H235854   5.182   3.848   9.392  0.5864 -1.5740  1.9518
 3887TIP3   OH235855   3.662   2.128   0.880 -0.3906 -0.2195 -0.2521
 3887TIP3    H135856   3.693   2.173   0.958  0.8589 -2.2080  0.4669
 3887TIP3    H235857   3.598   2.064   0.912  2.3322 -3.2186 -0.2677
 3888TIP3   OH235858   2.794   3.963   7.345 -0.2386 -0.0556 -0.0692
 3888TIP3    H135859   2.878   3.930   7.378  0.0328  0.6964  0.0095
 3888TIP3    H235860   2.794   3.938   7.253 -0.7035 -1.5752  0.3115
 3889TIP3   OH235861   5.755   5.565   0.977  0.1872  0.1081 -0.3587
 3889TIP3    H135862   5.804   5.512   0.915  0.9420  0.3258  0.0382
 3889TIP3    H235863   5.820   5.624   1.015  0.2548 -1.4799  2.2709
 3890TIP3   OH235864   2.697   6.500   9.510  0.1447  0.4165 -0.2835
 3890TIP3    H135865   2.613   6.486   9.468 -0.9889  1.6592  1.4382
 3890TIP3    H235866   2.729   6.583   9.473  0.7732 -0.1747 -1.1171
 3891TIP3   OH235867   3.164   2.394   0.393  0.3033 -0.5296 -0.1024
 3891TIP3    H135868   3.237   2.333   0.407 -0.3499 -1.1160  0.9026
 3891TIP3    H235869   3.091   2.354   0.440 -0.5276  0.3182 -0.6533
 3892TIP3   OH235870   7.110   5.591   9.133  0.4857  0.1920  0.0754
 3892TIP3    H135871   7.176   5.595   9.063 -0.6757 -1.1171 -1.1667
 3892TIP3    H235872   7.040   5.537   9.096 -0.5486  0.1710  1.9693
 3893TIP3   OH235873   3.935   1.305   9.195  0.3148 -0.2593 -0.4071
 3893TIP3    H135874   4.015   1.347   9.163 -0.1353 -0.8898 -2.5665
 3893TIP3    H235875   3.900   1.365   9.260  1.5500  0.9504 -0.8177
 3894TIP3   OH235876   1.172   2.673   2.036 -0.0098  0.0181  0.2630
 3894TIP3    H135877   1.088   2.627   2.039  0.3062 -0.5498  0.7641
 3894TIP3    H235878   1.150   2.765   2.046 -0.6596 -0.0130 -0.7217
 3895TIP3   OH235879   5.085   4.809   1.557  0.2365  0.6763  0.1543
 3895TIP3    H135880   4.992   4.785   1.554 -0.0126  1.7238 -0.6986
 3895TIP3    H235881   5.126   4.752   1.492  0.2420  0.0520  0.6917
 3896TIP3   OH235882   4.549   2.331   1.630 -0.7121  0.3066 -0.1666
 3896TIP3    H135883   4.516   2.250   1.592 -0.8061  0.2200  0.0991
 3896TIP3    H235884   4.513   2.332   1.719  0.9179 -0.3823  0.5515
 3897TIP3   OH235885   2.541   0.937   2.917  0.3628  0.1607  0.3023
 3897TIP3    H135886   2.559   1.011   2.859  2.2566 -0.1951  0.3893
 3897TIP3    H235887   2.531   0.977   3.003 -1.0293  0.5394 -0.0101
 3898TIP3   OH235888   6.623   2.816   1.676 -0.2430 -0.1124 -0.1437
 3898TIP3    H135889   6.660   2.771   1.752 -1.1534 -0.1056  0.3289
 3898TIP3    H235890   6.529   2.799   1.683 -0.7846  2.6794  0.6311
 3899TIP3   OH235891   1.047   6.768   8.086  0.4657 -0.2784  0.5629
 3899TIP3    H135892   1.074   6.700   8.147 -0.2590 -0.1692  1.0241
 3899TIP3    H235893   0.988   6.824   8.137 -1.6989 -1.2608 -0.7213
 3900TIP3   OH235894   2.997   3.670   1.028 -0.0822  0.2826 -0.0652
 3900TIP3    H135895   2.957   3.756   1.016 -0.7021  0.0840  0.5114
 3900TIP3    H235896   3.079   3.675   0.979 -0.4482  0.9563 -0.6317
 3901TIP3   OH235897   4.329   5.607   8.851 -0.1992  0.2120 -0.1824
 3901TIP3    H135898   4.296   5.660   8.923 -1.1105 -1.5252  0.7627
 3901TIP3    H235899   4.400   5.555   8.890  0.5133  0.5563 -1.0100
 3902TIP3   OH235900   1.865   5.420   9.603 -0.1901  0.1508 -0.7683
 3902TIP3    H135901   1.870   5.383   9.691 -0.9321  1.2182 -0.2655
 3902TIP3    H235902   1.951   5.403   9.565  0.1303 -0.3274  0.1566
 3903TIP3   OH235903   5.727   7.185   0.636 -0.7885  0.0021  0.1814
 3903TIP3    H135904   5.692   7.256   0.584 -1.0892  0.6463  1.2254
 3903TIP3    H235905   5.751   7.226   0.719 -2.7236 -1.4215  1.5297
 3904TIP3   OH235906   3.692   2.026   7.310 -0.1985  0.1571 -0.0749
 3904TIP3    H135907   3.754   2.086   7.267 -1.2889  0.0468 -1.8968
 3904TIP3    H235908   3.615   2.080   7.327  0.3252  0.3096  2.2485
 3905TIP3   OH235909   4.370   1.616   1.140 -0.1739 -0.2153 -0.2912
 3905TIP3    H135910   4.278   1.638   1.153  0.0616  0.5478  0.2043
 3905TIP3    H235911   4.383   1.621   1.045 -0.4531  0.5323 -0.3017
 3906TIP3   OH235912   1.700   6.447   0.309  0.6799  0.3215 -0.0538
 3906TIP3    H135913   1.758   6.514   0.346  1.6582 -0.4420 -0.1556
 3906TIP3    H235914   1.759   6.386   0.266 -0.0777 -1.3000  1.1132
 3907TIP3   OH235915   7.511   5.800   1.795  0.4433  0.0222  0.3761
 3907TIP3    H135916   7.515   5.738   1.721  0.2555  0.9809 -0.4640
 3907TIP3    H235917   7.524   5.745   1.872  0.4679 -1.0447 -0.3505
 3908TIP3   OH235918   7.661   5.666   7.802 -0.0806  0.0501 -0.5138
 3908TIP3    H135919   7.633   5.677   7.712  0.5545 -4.6190 -1.5430
 3908TIP3    H235920   7.743   5.616   7.796  0.3207  0.0955  2.6449
 3909TIP3   OH235921   0.483   5.131   9.338 -0.2353 -0.2907  0.1375
 3909TIP3    H135922   0.439   5.049   9.357  0.6527 -0.6481  0.7528
 3909TIP3    H235923   0.448   5.193   9.402 -0.1277 -0.4778  0.3814
 3910TIP3   OH235924   4.970   6.418   7.627  0.3472 -0.5778  0.4753
 3910TIP3    H135925   4.940   6.350   7.566  0.4081  1.2890 -1.7555
 3910TIP3    H235926   4.964   6.376   7.713  0.4082 -3.4033 -0.7640
 3911TIP3   OH235927   3.475   4.095   8.082  0.0566 -0.5495  0.0366
 3911TIP3    H135928   3.396   4.041   8.084  0.8762 -1.7877 -0.0219
 3911TIP3    H235929   3.447   4.179   8.119 -1.9158 -0.0537 -2.2783
 3912TIP3   OH235930   2.644   6.923   9.619  0.4305 -0.0959 -0.0691
 3912TIP3    H135931   2.617   6.998   9.672 -0.0869 -1.3470  1.5341
 3912TIP3    H235932   2.571   6.908   9.559  0.1328  0.1352  0.2327
 3913TIP3   OH235933   4.510   0.891   9.174 -0.2422  0.6517  0.1682
 3913TIP3    H135934   4.499   0.957   9.105  0.3993 -1.5151 -2.1291
 3913TIP3    H235935   4.493   0.940   9.255 -0.0450  3.5674 -1.3857
 3914TIP3   OH235936   6.558   0.205   0.452  0.0201  0.4134 -0.2737
 3914TIP3    H135937   6.521   0.134   0.505  0.6574  0.0543 -0.2989
 3914TIP3    H235938   6.546   0.175   0.361 -0.0021  0.4914 -0.2971
 3915TIP3   OH235939   3.175   0.715   1.171  0.3554  0.1709  0.0959
 3915TIP3    H135940   3.215   0.735   1.255  1.4447  1.1784 -0.6313
 3915TIP3    H235941   3.086   0.750   1.177 -0.0506 -0.9976  1.2952
 3916TIP3   OH235942   6.987   1.488   0.996 -0.4834 -0.1059  0.4699
 3916TIP3    H135943   6.948   1.487   0.908 -0.3287 -0.7357  0.4032
 3916TIP3    H235944   6.981   1.579   1.024 -2.6927 -0.2802  0.7552
 3917TIP3   OH235945   1.450   3.029   2.562  0.0027  0.0139 -0.0978
 3917TIP3    H135946   1.399   3.100   2.600 -0.0326 -0.1169  0.1008
 3917TIP3    H235947   1.426   2.952   2.613  0.1822 -0.1042 -0.1893
 3918TIP3   OH235948   5.947   7.460   1.036 -0.8246 -0.2196  0.3831
 3918TIP3    H135949   5.942   7.373   1.075 -1.6994 -0.1456  0.4534
 3918TIP3    H235950   5.994   7.513   1.102 -1.7018 -0.2589  1.0577
 3919TIP3   OH235951   7.200   5.902   9.801  0.0275  0.2885 -0.2559
 3919TIP3    H135952   7.128   5.849   9.769  0.5305 -0.4360 -0.2215
 3919TIP3    H235953   7.225   5.957   9.727 -0.4312  0.4066 -0.3241
 3920TIP3   OH235954   1.629   4.031   6.579  0.5476 -0.3808  0.0307
 3920TIP3    H135955   1.703   4.085   6.550 -0.6307  1.1582 -0.2006
 3920TIP3    H235956   1.597   3.989   6.499  0.3346  0.0170 -0.0941
 3921TIP3   OH235957   0.842   5.767   1.982  0.1752 -0.0568 -0.7864
 3921TIP3    H135958   0.782   5.827   1.936  1.2046  1.9378  0.3332
 3921TIP3    H235959   0.785   5.717   2.040 -0.5121  1.6487  0.0939
 3922TIP3   OH235960   4.837   4.920   0.919  0.0446  0.1241 -0.3281
 3922TIP3    H135961   4.790   4.836   0.923 -0.5373  0.4676  0.4766
 3922TIP3    H235962   4.864   4.936   1.010  0.7839  0.4615 -0.6008
 3923TIP3   OH235963   3.211   0.951   9.993 -0.0393  0.3095  0.0839
 3923TIP3    H135964   3.197   1.029   9.940  0.9212  0.4044 -0.0522
 3923TIP3    H235965   3.249   0.983  10.074 -0.9685  0.1086  0.6120
 3924TIP3   OH235966   7.378   6.840   1.698  0.7851  0.0337 -0.0070
 3924TIP3    H135967   7.332   6.897   1.760 -0.9246 -1.1680 -0.0989
 3924TIP3    H235968   7.357   6.751   1.728  0.5325 -0.5566 -1.8601
 3925TIP3   OH235969   5.060   4.554   0.687 -0.0929  0.2561  0.0903
 3925TIP3    H135970   5.052   4.635   0.738 -0.5033  1.2959 -1.5409
 3925TIP3    H235971   5.151   4.555   0.655 -0.3829  0.5994 -0.7438
 3926TIP3   OH235972   2.077   4.140   1.460  0.4088  0.4345  0.8011
 3926TIP3    H135973   2.003   4.148   1.520 -0.9652  0.5927 -0.8212
 3926TIP3    H235974   2.069   4.052   1.423  1.1679  0.3719  0.7648
 3927TIP3   OH235975   2.692   5.717   0.674  1.1856  0.8454  0.0638
 3927TIP3    H135976   2.699   5.729   0.579 -3.0641  0.2470 -0.5411
 3927TIP3    H235977   2.617   5.771   0.699  0.0202 -1.5969  2.3816
 3928TIP3   OH235978   4.262   7.469   0.569  0.4600  0.0226  0.0384
 3928TIP3    H135979   4.283   7.394   0.513 -0.4637  0.1284 -0.4766
 3928TIP3    H235980   4.346   7.498   0.603  0.8253 -1.2801  0.2890
 3929TIP3   OH235981   0.126   5.188   9.317  0.7528  0.0170  0.5497
 3929TIP3    H135982   0.072   5.225   9.387 -1.8291  0.7597 -1.7182
 3929TIP3    H235983   0.127   5.094   9.336 -1.2169  0.0052  0.7741
 3930TIP3   OH235984   7.100   4.562   1.154 -0.5159 -0.3348  0.2421
 3930TIP3    H135985   7.141   4.480   1.181 -0.2156 -0.0659  0.6278
 3930TIP3    H235986   7.085   4.608   1.237 -3.1936 -1.1474  0.2950
 3931TIP3   OH235987   0.464   4.942   9.075 -0.1965  0.0896 -0.3544
 3931TIP3    H135988   0.382   4.893   9.082  0.7238 -1.7297 -1.6644
 3931TIP3    H235989   0.528   4.890   9.124  0.7015  0.2069 -1.3633
 3932TIP3   OH235990   5.432   0.924   7.446 -0.1833  0.4864 -0.9544
 3932TIP3    H135991   5.408   0.924   7.353 -2.7022 -1.1995 -0.4038
 3932TIP3    H235992   5.437   0.832   7.469  0.9716  0.8786  0.4838
 3933TIP3   OH235993   3.048   5.395   6.290 -0.2758  0.1198  0.2814
 3933TIP3    H135994   2.965   5.441   6.305 -1.0190 -0.1147 -2.5207
 3933TIP3    H235995   3.039   5.313   6.338 -0.3154  1.4143  2.5980
 3934TIP3   OH235996   0.305   4.533   2.251  0.6064 -0.6973  0.6164
 3934TIP3    H135997   0.325   4.508   2.342 -1.2783 -1.6717  0.8158
 3934TIP3    H235998   0.256   4.458   2.216 -1.4507  0.9116 -0.1919
 3935TIP3   OH235999   5.497   5.486   1.363  0.1547 -0.5306  0.7161
 3935TIP3    H136000   5.517   5.410   1.417  3.4060 -0.0507  0.3901
 3935TIP3    H236001   5.526   5.461   1.275 -1.4248  0.0879 -0.0108
 3936TIP3   OH236002   7.319   5.556   1.875  0.1643 -0.0830  0.0026
 3936TIP3    H136003   7.288   5.485   1.931  1.8358 -1.6701 -0.9726
 3936TIP3    H236004   7.379   5.605   1.930  1.7109 -1.5653 -0.2771
 3937TIP3   OH236005   6.411   4.886   9.670 -0.2406  0.0757  0.3144
 3937TIP3    H136006   6.370   4.934   9.598  0.2279  0.8325  0.5437
 3937TIP3    H236007   6.441   4.954   9.730 -1.2443 -0.5545  1.5832
 3938TIP3   OH236008   2.091   1.083   1.029  0.0256  0.6561 -0.3449
 3938TIP3    H136009   2.075   1.002   1.077 -1.6302  0.9674 -0.3253
 3938TIP3    H236010   2.079   1.059   0.937  0.7535  0.6202 -0.4383
 3939TIP3   OH236011   2.147   7.144   9.862 -0.0675  0.0111 -0.1494
 3939TIP3    H136012   2.228   7.137   9.812  1.0214  0.3069  1.5243
 3939TIP3    H236013   2.100   7.216   9.820  1.4048  1.1166  0.0468
 3940TIP3   OH236014   1.291   6.213   8.273 -0.0446  0.0403  0.6167
 3940TIP3    H136015   1.208   6.172   8.299 -0.2899 -0.3616 -0.6883
 3940TIP3    H236016   1.267   6.273   8.203  0.7954 -0.2852  0.0297
 3941TIP3   OH236017   7.109   6.240   2.101 -0.1023 -0.1556 -0.3444
 3941TIP3    H136018   7.025   6.246   2.056  0.1532 -2.4319 -1.2377
 3941TIP3    H236019   7.087   6.200   2.186 -0.1216  0.9188  0.1763
 3942TIP3   OH236020   5.799   0.322   7.972 -0.4960  0.3274  0.0206
 3942TIP3    H136021   5.757   0.297   7.889 -0.0544 -1.1172  0.2041
 3942TIP3    H236022   5.733   0.305   8.039 -0.8704  1.5448 -0.0225
 3943TIP3   OH236023   1.304   0.393   1.366  0.1502  0.2721 -0.3063
 3943TIP3    H136024   1.263   0.478   1.382 -0.6899 -0.0360 -0.7808
 3943TIP3    H236025   1.383   0.394   1.421 -0.2423  1.0569  0.2646
 3944TIP3   OH236026   0.739   2.416   7.225  0.0731  0.4411  0.1880
 3944TIP3    H136027   0.748   2.436   7.132  0.9666  0.6594  0.3147
 3944TIP3    H236028   0.819   2.450   7.265  0.4669 -1.1331  0.7904
 3945TIP3   OH236029   1.460   1.144   7.666 -0.3468 -0.2614 -0.1722
 3945TIP3    H136030   1.478   1.076   7.601 -0.4764  0.5366 -1.0485
 3945TIP3    H236031   1.546   1.176   7.693 -0.3041 -0.3635 -0.1870
 3946TIP3   OH236032   4.860   3.780   8.360 -0.0764  0.4163  0.0945
 3946TIP3    H136033   4.929   3.802   8.298 -0.8455  0.1494 -0.8859
 3946TIP3    H236034   4.836   3.690   8.339 -0.6661  0.4776  0.4663
 3947TIP3   OH236035   4.073   1.920   9.143  0.9355  0.5963  0.7962
 3947TIP3    H136036   4.161   1.899   9.111  0.8156 -1.1101  1.4653
 3947TIP3    H236037   4.018   1.919   9.065  1.0922 -0.9592  0.6580
 3948TIP3   OH236038   1.605   4.369   7.767  0.1331 -0.1355  0.1642
 3948TIP3    H136039   1.686   4.320   7.753  0.5799  0.3012  1.1199
 3948TIP3    H236040   1.560   4.320   7.836  0.8505  1.0565  1.5474
 3949TIP3   OH236041   2.257   3.612   1.710  0.5381 -0.0381  0.7845
 3949TIP3    H136042   2.208   3.567   1.778  0.5092  0.2471  0.9562
 3949TIP3    H236043   2.206   3.690   1.691 -0.1123 -0.7420 -0.4717
 3950TIP3   OH236044   6.557   6.733   9.610  0.0184 -0.0745 -0.4208
 3950TIP3    H136045   6.487   6.783   9.653  1.4678  0.8351  0.9973
 3950TIP3    H236046   6.534   6.642   9.625 -0.9736  0.2055 -0.1546
 3951TIP3   OH236047   3.712   2.764   0.394  0.2504 -0.3694  0.1088
 3951TIP3    H136048   3.785   2.708   0.368 -0.1546 -0.8555 -0.0111
 3951TIP3    H236049   3.751   2.830   0.452  1.1527  0.6814 -1.6173
 3952TIP3   OH236050   3.259   0.138   8.804  0.2354 -0.1801  0.1218
 3952TIP3    H136051   3.210   0.063   8.770  1.6712 -0.7751 -0.7342
 3952TIP3    H236052   3.322   0.100   8.865 -0.7165  0.6347  1.6683
 3953TIP3   OH236053   1.442   6.446   1.953  0.1905 -0.0422  0.3539
 3953TIP3    H136054   1.503   6.393   2.004  0.2166  0.0423  0.4098
 3953TIP3    H236055   1.441   6.405   1.866  0.7381  0.2824  0.1931
 3954TIP3   OH236056   0.767   2.543   2.342  0.0471 -0.2367 -0.0261
 3954TIP3    H136057   0.681   2.560   2.304  0.2282  0.5212 -0.1030
 3954TIP3    H236058   0.752   2.544   2.437  0.1595  0.9653 -0.0117
 3955TIP3   OH236059   1.768   4.288   8.423  0.3513 -0.1588  0.7693
 3955TIP3    H136060   1.748   4.213   8.479 -0.5825 -0.1695  0.4432
 3955TIP3    H236061   1.862   4.282   8.407 -0.0762 -2.7801 -1.3999
 3956TIP3   OH236062   6.020   4.438   0.779 -0.3538  0.3281  0.3378
 3956TIP3    H136063   5.954   4.436   0.847  1.2279  0.0955  1.9328
 3956TIP3    H236064   6.087   4.376   0.808 -0.5632 -1.3855 -2.4644
 3957TIP3   OH236065   1.142   0.255   7.481  0.5098 -0.7337  0.3712
 3957TIP3    H136066   1.229   0.271   7.446 -0.6720 -0.3579 -2.7108
 3957TIP3    H236067   1.138   0.160   7.493  0.7351 -0.9776 -1.3336
 3958TIP3   OH236068   0.688   4.340   0.334  0.0747  0.0074 -0.1693
 3958TIP3    H136069   0.740   4.261   0.346 -0.7482 -0.7609 -1.4373
 3958TIP3    H236070   0.690   4.356   0.239 -1.7033  0.1370 -0.2137
 3959TIP3   OH236071   7.158   1.754   2.623  0.3760  0.3564  0.1885
 3959TIP3    H136072   7.064   1.752   2.606  0.6216  2.5621 -2.1280
 3959TIP3    H236073   7.196   1.702   2.552  0.9630 -0.0794  0.8080
 3960TIP3   OH236074   2.135   3.250   7.760 -0.1841 -0.3592  0.1208
 3960TIP3    H136075   2.159   3.306   7.834  1.5534  0.1860 -0.7836
 3960TIP3    H236076   2.069   3.300   7.712 -1.2101 -0.6550  1.2056
 3961TIP3   OH236077   3.571   0.382   8.275 -0.2303  0.5335 -0.0453
 3961TIP3    H136078   3.484   0.417   8.294 -1.2301 -1.0651 -1.4776
 3961TIP3    H236079   3.568   0.291   8.303  0.4795  0.0406 -1.4732
 3962TIP3   OH236080   5.353   4.572   7.913  0.4254  0.4807 -0.0314
 3962TIP3    H136081   5.443   4.604   7.921  0.1899  1.6614 -1.5727
 3962TIP3    H236082   5.300   4.638   7.958  0.1199  1.3041 -1.5160
 3963TIP3   OH236083   1.674   5.773   7.728  0.2184 -0.1295  0.3477
 3963TIP3    H136084   1.640   5.722   7.802 -2.1696  0.5195 -0.1924
 3963TIP3    H236085   1.730   5.713   7.680 -1.6594 -1.9358  0.3048
 3964TIP3   OH236086   2.610   1.999   1.095  0.3358  0.2973 -0.1066
 3964TIP3    H136087   2.638   2.072   1.039  2.4697  0.4730  1.0721
 3964TIP3    H236088   2.628   1.921   1.042 -0.2864  0.5405 -0.6969
 3965TIP3   OH236089   0.532   0.377   9.010  0.3875 -0.1335  0.2065
 3965TIP3    H136090   0.454   0.338   9.048  0.1813  0.4818  0.4145
 3965TIP3    H236091   0.569   0.307   8.954 -0.0649 -0.5652  0.4425
 3966TIP3   OH236092   5.594   1.523   7.509 -0.5247 -0.6997  0.2095
 3966TIP3    H136093   5.580   1.440   7.555 -0.1796 -0.8055  0.1307
 3966TIP3    H236094   5.544   1.514   7.428 -0.7480 -0.7013  0.3452
 3967TIP3   OH236095   2.684   1.687   2.346 -0.7374 -0.0252  0.8920
 3967TIP3    H136096   2.759   1.741   2.371 -1.0277  0.8877 -0.1480
 3967TIP3    H236097   2.721   1.603   2.320 -0.1568  0.1469  1.1552
 3968TIP3   OH236098   1.960   7.427   7.895  0.0050  0.3164 -0.1013
 3968TIP3    H136099   1.922   7.474   7.821  2.2871 -1.3716 -2.5320
 3968TIP3    H236100   2.051   7.454   7.898  0.4460 -1.1116  0.8199
 3969TIP3   OH236101   2.647   6.600   6.795 -0.0383  0.5746  0.1764
 3969TIP3    H136102   2.677   6.509   6.794 -2.3506 -0.2581 -0.1188
 3969TIP3    H236103   2.699   6.643   6.727  0.4862 -0.7434 -0.2949
 3970TIP3   OH236104   1.680   0.062   8.326 -0.2723  0.5893 -0.3886
 3970TIP3    H136105   1.769   0.078   8.294  0.1727  0.0703  0.5717
 3970TIP3    H236106   1.687   0.069   8.421 -1.1515  0.0533 -0.2770
 3971TIP3   OH236107   2.070   3.767   2.037 -0.6253  0.2273 -0.5476
 3971TIP3    H136108   2.064   3.772   2.132 -0.2817  0.8673 -0.5549
 3971TIP3    H236109   2.146   3.821   2.014  0.4205 -1.3955 -1.0583
 3972TIP3   OH236110   2.630   2.552   8.151 -0.3998  0.1603  0.7985
 3972TIP3    H136111   2.649   2.622   8.214 -1.4136  0.6378  0.5843
 3972TIP3    H236112   2.536   2.557   8.137 -0.6716 -1.9772  1.6284
 3973TIP3   OH236113   2.032   0.904   2.896  0.2743  0.0625 -0.1515
 3973TIP3    H136114   1.941   0.881   2.914 -0.2870 -0.7878 -3.4844
 3973TIP3    H236115   2.029   0.996   2.870  0.1535 -0.2619 -1.3318
 3974TIP3   OH236116   6.778   2.547   0.994  0.2779 -0.1977  0.2269
 3974TIP3    H136117   6.696   2.519   1.035 -1.0453  1.4056 -1.1631
 3974TIP3    H236118   6.774   2.510   0.906  1.3781 -0.6423  0.3537
 3975TIP3   OH236119   7.366   7.110   1.524 -0.6213  0.1117 -0.5348
 3975TIP3    H136120   7.443   7.057   1.546 -0.1135  0.8792 -0.4122
 3975TIP3    H236121   7.334   7.142   1.608 -1.5756 -0.8651 -0.5137
 3976TIP3   OH236122   5.639   5.033   9.016 -0.0386  0.0024 -0.4697
 3976TIP3    H136123   5.565   5.010   9.072  0.1300 -0.4820 -0.4353
 3976TIP3    H236124   5.635   4.970   8.943  1.8619 -1.8452  0.8825
 3977TIP3   OH236125   5.121   4.849   9.193  0.3723 -0.1364 -0.2047
 3977TIP3    H136126   5.067   4.785   9.147  0.4394 -0.4393  0.1300
 3977TIP3    H236127   5.064   4.925   9.204 -0.0340 -0.5015  0.2575
 3978TIP3   OH236128   3.465   3.156   9.327 -0.5283  0.3298 -0.3996
 3978TIP3    H136129   3.522   3.165   9.404 -0.0998 -2.5999 -0.2488
 3978TIP3    H236130   3.393   3.101   9.357  0.2052 -1.8190 -2.2615
 3979TIP3   OH236131   4.463   6.610   0.061  0.3918  0.0706 -1.0455
 3979TIP3    H136132   4.502   6.656   0.134 -1.8692 -1.4501  1.3030
 3979TIP3    H236133   4.373   6.643   0.056 -0.4676 -2.0457 -0.9969
 3980TIP3   OH236134   5.116   3.431   7.855  0.4941 -0.2451 -0.0812
 3980TIP3    H136135   5.153   3.508   7.813 -1.2069 -0.4025 -2.0666
 3980TIP3    H236136   5.049   3.466   7.914  1.2255 -0.1357  0.7035
 3981TIP3   OH236137   4.802   3.436   7.534 -0.1376 -0.1951 -0.4144
 3981TIP3    H136138   4.772   3.369   7.595 -1.7468 -0.6684 -1.6378
 3981TIP3    H236139   4.737   3.507   7.544  0.3304  0.2688 -0.6451
 3982TIP3   OH236140   3.197   1.536   7.987 -0.0277 -0.2179  0.3368
 3982TIP3    H136141   3.274   1.489   7.954 -0.1041  0.6642 -1.2222
 3982TIP3    H236142   3.125   1.501   7.936 -0.1028  1.4481 -0.7717
 3983TIP3   OH236143   1.884   0.403   7.288 -0.2685  0.0112  0.2192
 3983TIP3    H136144   1.892   0.398   7.384  0.1540 -0.7595  0.1591
 3983TIP3    H236145   1.942   0.333   7.257 -0.2527  0.3906 -0.6055
 3984TIP3   OH236146   6.524   0.732   1.908 -0.2968 -0.5184  0.3466
 3984TIP3    H136147   6.584   0.659   1.926 -0.1784 -0.8582 -1.2502
 3984TIP3    H236148   6.437   0.695   1.919 -0.3414 -1.7406 -2.8873
 3985TIP3   OH236149   4.377   4.041   9.226 -0.6276  0.2656 -0.3691
 3985TIP3    H136150   4.324   4.118   9.246 -1.6780 -0.8756  1.4916
 3985TIP3    H236151   4.326   3.994   9.159  0.8067  1.9169 -2.7666
 3986TIP3   OH236152   7.229   0.310   0.201  0.0620  0.0235 -0.1584
 3986TIP3    H136153   7.304   0.270   0.244 -1.0477 -0.7226  1.1695
 3986TIP3    H236154   7.209   0.251   0.128  0.4318 -0.0534 -0.2010
 3987TIP3   OH236155   5.674   3.969   8.088 -0.2866 -0.0148  0.6380
 3987TIP3    H136156   5.608   4.037   8.074  0.1659  0.6367  1.5880
 3987TIP3    H236157   5.683   3.927   8.003 -0.5481  1.1310  0.0261
 3988TIP3   OH236158   5.897   2.479   9.230  0.1793 -0.3682 -0.0449
 3988TIP3    H136159   5.848   2.412   9.182  0.2759  0.8854 -2.0248
 3988TIP3    H236160   5.976   2.434   9.259 -0.8205 -1.6894  0.7258
 3989TIP3   OH236161   1.381   6.531   8.667  0.1632  0.1227 -0.2634
 3989TIP3    H136162   1.293   6.511   8.635  0.2465  0.4561 -0.7060
 3989TIP3    H236163   1.400   6.617   8.631  1.4424 -0.7401 -1.7822
 3990TIP3   OH236164   3.397   0.689   8.309  0.3362 -0.3738 -0.2800
 3990TIP3    H136165   3.393   0.614   8.368 -0.1392  0.5475  0.9020
 3990TIP3    H236166   3.415   0.651   8.223  3.2727 -1.6069  0.7564
 3991TIP3   OH236167   6.190   3.074   9.675 -0.1664  0.3376  0.9175
 3991TIP3    H136168   6.250   3.007   9.642 -0.7216  0.3251 -0.1261
 3991TIP3    H236169   6.104   3.032   9.672 -0.1792  0.1275  3.0274
 3992TIP3   OH236170   3.257   2.977   1.517  0.3077 -0.0818 -0.1742
 3992TIP3    H136171   3.244   3.024   1.434  1.9446  0.8988  0.0930
 3992TIP3    H236172   3.173   2.987   1.562 -0.9135 -1.3358 -1.9963
 3993TIP3   OH236173   5.099   0.576   1.308  0.6654 -0.3874  0.2541
 3993TIP3    H136174   5.023   0.523   1.286  0.1735  0.1777  0.5494
 3993TIP3    H236175   5.062   0.657   1.344  1.3818 -0.9953  2.5595
 3994TIP3   OH236176   5.063   1.871   0.087 -0.0122 -0.1079  0.9012
 3994TIP3    H136177   5.113   1.790   0.089 -0.6032 -0.4684  2.1425
 3994TIP3    H236178   5.025   1.878   0.175 -0.2787  1.3142  0.6993
 3995TIP3   OH236179   7.093   6.434   9.440  0.8127 -0.0864  0.1535
 3995TIP3    H136180   7.171   6.380   9.444 -0.1064 -1.4149  2.0121
 3995TIP3    H236181   7.118   6.516   9.483  1.6913  0.2942 -1.0271
 3996TIP3   OH236182   4.072   4.222   9.424 -0.0560  0.1299  0.1443
 3996TIP3    H136183   4.019   4.214   9.503  0.7597 -1.4920  0.5723
 3996TIP3    H236184   4.009   4.243   9.355 -1.2535 -1.3988  0.6976
 3997TIP3   OH236185   0.244   1.356   2.508  0.4271 -0.3758 -0.4949
 3997TIP3    H136186   0.316   1.399   2.461  0.8712 -0.8442 -0.2560
 3997TIP3    H236187   0.166   1.382   2.460  0.8061 -0.2614 -1.0657
 3998TIP3   OH236188   0.155   3.976   2.009  0.0979  0.5320  0.1057
 3998TIP3    H136189   0.126   4.022   2.088  0.0071  0.5154  0.0819
 3998TIP3    H236190   0.238   4.017   1.986  0.7169 -0.2428  0.8865
 3999TIP3   OH236191   0.678   4.292   7.016 -0.2732 -0.2494  0.1037
 3999TIP3    H136192   0.673   4.387   7.013 -1.5468 -0.2449  1.5095
 3999TIP3    H236193   0.761   4.273   7.061  0.6485  0.1302 -1.3561
 4000TIP3   OH236194   3.866   6.103   9.140 -0.2673 -0.1996  0.0044
 4000TIP3    H136195   3.912   6.019   9.131  0.4153  0.3053 -1.5916
 4000TIP3    H236196   3.783   6.080   9.182  0.6139 -1.4124  1.2099
 4001TIP3   OH236197   1.543   7.635   9.799 -0.0550  0.1101 -0.3032
 4001TIP3    H136198   1.613   7.694   9.771 -0.9092  1.6669  0.6894
 4001TIP3    H236199   1.465   7.691   9.800 -1.5562 -1.7662 -2.2767
 4002TIP3   OH236200   3.983   1.966   9.849  0.0661  0.4529 -0.3334
 4002TIP3    H136201   4.073   1.951   9.876 -0.4412  0.4605  1.4794
 4002TIP3    H236202   3.940   1.881   9.859 -1.0857  1.2698  2.9873
 4003TIP3   OH236203   0.614   5.287   7.174 -0.9134  0.2088 -0.2940
 4003TIP3    H136204   0.628   5.226   7.246  1.7956  0.7187 -0.2789
 4003TIP3    H236205   0.579   5.366   7.215 -2.2379 -0.5127  0.0056
 4004TIP3   OH236206   1.869   6.489   8.815 -0.2087 -0.5555 -0.3034
 4004TIP3    H136207   1.787   6.523   8.852 -0.3121 -0.7871 -0.3165
 4004TIP3    H236208   1.869   6.397   8.839 -0.6107 -0.8753 -1.4804
 4005TIP3   OH236209   0.960   5.269   0.720 -0.5326  0.2165 -0.3238
 4005TIP3    H136210   0.988   5.342   0.775 -1.7417  0.7638 -0.3934
 4005TIP3    H236211   0.944   5.308   0.634  0.1173 -0.3974 -0.7377
 4006TIP3   OH236212   5.629   3.015   0.823 -0.0968  0.0898 -0.3904
 4006TIP3    H136213   5.663   3.089   0.874 -1.6647  0.9500 -0.5569
 4006TIP3    H236214   5.672   2.938   0.861  2.2684  1.1230 -0.7947
 4007TIP3   OH236215   5.719   4.420   0.223 -0.0681  0.6516  0.0953
 4007TIP3    H136216   5.721   4.512   0.248 -2.1485  1.3051 -1.8526
 4007TIP3    H236217   5.752   4.418   0.133  0.4298 -0.5885  0.2768
 4008TIP3   OH236218   2.677   1.533   0.858 -0.4344  0.4236  0.1716
 4008TIP3    H136219   2.746   1.517   0.794  0.7160 -0.1275  1.4973
 4008TIP3    H236220   2.659   1.626   0.851  0.5016  0.5915 -0.1518
 4009TIP3   OH236221   5.978   0.848   8.890 -0.1387 -0.5403  0.5790
 4009TIP3    H136222   6.061   0.835   8.846 -0.8410 -0.6817 -0.7681
 4009TIP3    H236223   5.917   0.790   8.844 -1.1170  0.0344  1.1143
 4010TIP3   OH236224   6.887   0.061   0.950  0.0964  0.4975  0.0400
 4010TIP3    H136225   6.832   0.134   0.977  0.8644  1.7844 -1.6725
 4010TIP3    H236226   6.941   0.096   0.880 -0.1309 -1.9427 -1.5062
 4011TIP3   OH236227   2.432   0.717   2.114  0.3498  0.0224 -0.4539
 4011TIP3    H136228   2.518   0.679   2.096 -0.0536 -0.2665 -1.8576
 4011TIP3    H236229   2.440   0.809   2.088  0.6517  0.3853  0.8233
 4012TIP3   OH236230   0.915   1.562   0.162 -0.1617 -0.2186  0.0681
 4012TIP3    H136231   0.955   1.628   0.106 -0.5107 -0.2695 -0.2439
 4012TIP3    H236232   0.971   1.559   0.239  2.1033 -2.3084 -1.5386
 4013TIP3   OH236233   6.470   0.389   0.878  0.3172  0.2698  0.1229
 4013TIP3    H136234   6.426   0.445   0.942  1.6921  1.6080 -0.0643
 4013TIP3    H236235   6.558   0.377   0.913  0.3610 -0.9747 -0.3570
 4014TIP3   OH236236   2.034   7.349   9.140 -0.1776  0.3225  0.1873
 4014TIP3    H136237   2.104   7.316   9.196  0.5927  0.6537 -0.5688
 4014TIP3    H236238   2.077   7.413   9.083 -1.3294  1.4816  0.5668
 4015TIP3   OH236239   5.863   4.911   1.705  0.8876 -0.2175  0.0249
 4015TIP3    H136240   5.956   4.909   1.681  0.7389 -0.6071 -0.5399
 4015TIP3    H236241   5.860   4.967   1.782  1.9235 -2.0403  1.4790
 4016TIP3   OH236242   3.909   1.658   2.037  0.3725  0.6974  0.3718
 4016TIP3    H136243   3.815   1.670   2.025  0.3725 -0.0687 -0.5240
 4016TIP3    H236244   3.944   1.746   2.047 -0.6234  0.9372  2.3364
 4017TIP3   OH236245   3.576   2.217   8.496 -0.0366 -0.5148 -0.5361
 4017TIP3    H136246   3.545   2.127   8.510  0.5301 -0.5845  0.3396
 4017TIP3    H236247   3.556   2.262   8.578 -0.0032  0.0685 -0.8455
 4018TIP3   OH236248   3.926   5.838   1.444  0.2556  0.3930  0.1137
 4018TIP3    H136249   3.873   5.859   1.366 -0.0102  0.7558  0.3885
 4018TIP3    H236250   3.913   5.744   1.456  0.8201  0.2073 -0.6624
 4019TIP3   OH236251   0.125   3.818   9.560  0.2997  0.2538  0.5241
 4019TIP3    H136252   0.219   3.815   9.539  0.2275  0.3588  0.1906
 4019TIP3    H236253   0.102   3.911   9.555 -0.3572  0.0253 -1.7695
 4020TIP3   OH236254   1.622   6.449   8.193  0.4343  0.3075  0.1200
 4020TIP3    H136255   1.562   6.515   8.228  0.4783  0.4342 -0.0397
 4020TIP3    H236256   1.681   6.430   8.265  0.6506  0.7162  0.0568
 4021TIP3   OH236257   7.055   6.620   9.228 -0.2111  0.2722 -0.3058
 4021TIP3    H136258   7.064   6.543   9.284  0.1011 -1.2462 -2.3096
 4021TIP3    H236259   6.966   6.651   9.243 -0.7966 -1.2819 -0.3896
 4022TIP3   OH236260   5.368   6.850   7.465  0.1460  0.1263 -0.0093
 4022TIP3    H136261   5.284   6.869   7.424  0.4892  2.0650  0.0802
 4022TIP3    H236262   5.370   6.906   7.543  1.8508  0.7994 -0.4815
 4023TIP3   OH236263   0.217   0.370   1.281  0.3660  0.2648  0.4941
 4023TIP3    H136264   0.308   0.357   1.306  0.2063 -1.7024  0.1790
 4023TIP3    H236265   0.191   0.288   1.239 -1.3858  0.9881  0.0537
 4024TIP3   OH236266   1.339   1.854   1.574  0.0023 -0.0451 -0.3388
 4024TIP3    H136267   1.349   1.817   1.487  1.3343 -0.8602  0.1325
 4024TIP3    H236268   1.417   1.908   1.586  0.9211 -1.6239  1.1321
 4025TIP3   OH236269   2.912   6.528   1.995 -0.3108 -0.0158 -0.1426
 4025TIP3    H136270   2.938   6.620   1.994 -0.8511  0.1416 -0.6848
 4025TIP3    H236271   2.882   6.512   2.085  1.8818 -0.2944  0.5790
 4026TIP3   OH236272   2.943   5.498   2.008 -0.5255 -0.4107  0.3782
 4026TIP3    H136273   2.924   5.451   1.927  1.5981 -0.6554 -0.0440
 4026TIP3    H236274   2.903   5.445   2.077 -3.5028  0.4786 -0.5325
 4027TIP3   OH236275   7.059   4.673   9.020 -0.0221 -0.8036 -0.3355
 4027TIP3    H136276   7.060   4.623   8.939 -1.1985  0.3840 -1.1159
 4027TIP3    H236277   7.017   4.616   9.084  2.7550 -2.5862  0.0857
 4028TIP3   OH236278   3.573   3.240   1.380  0.2701 -0.9510  0.0989
 4028TIP3    H136279   3.545   3.177   1.314 -0.0345 -1.0678  0.3383
 4028TIP3    H236280   3.641   3.194   1.430 -0.8634 -1.5712  1.1082
 4029TIP3   OH236281   0.748   7.307   0.013  0.9644  0.0636 -0.3094
 4029TIP3    H136282   0.808   7.234   0.025 -0.2986 -0.8150  0.9793
 4029TIP3    H236283   0.748   7.353   0.097 -0.1568  0.0277 -0.2731
 4030TIP3   OH236284   3.414   2.577   9.381 -0.2080  0.5329 -0.2553
 4030TIP3    H136285   3.381   2.644   9.321 -1.3795  1.5988  1.4912
 4030TIP3    H236286   3.388   2.607   9.468  0.7364 -1.3487  0.7502
 4031TIP3   OH236287   1.412   3.895   8.231  0.5719  0.4707  0.0539
 4031TIP3    H136288   1.445   3.815   8.189  1.6260  1.3012 -0.7540
 4031TIP3    H236289   1.466   3.965   8.195 -0.5508  1.6033  0.5042
 4032TIP3   OH236290   2.620   4.903   7.265  0.0516  0.2423  0.7695
 4032TIP3    H136291   2.574   4.834   7.314 -0.2323 -0.0767  0.0575
 4032TIP3    H236292   2.550   4.958   7.230  0.0204 -1.3588 -1.9972
 4033TIP3   OH236293   0.260   3.134   1.657  0.0830  0.4182 -0.3435
 4033TIP3    H136294   0.300   3.156   1.741 -0.7397 -1.1335  0.4939
 4033TIP3    H236295   0.172   3.170   1.663  0.5736  1.8761 -1.2990
 4034TIP3   OH236296   3.325   3.900   7.757  0.5282 -0.6945 -0.4005
 4034TIP3    H136297   3.286   3.826   7.803  2.0898 -0.1670  1.9754
 4034TIP3    H236298   3.261   3.971   7.766  1.3148 -0.2190  2.2924
 4035TIP3   OH236299   2.041   0.721   1.460 -0.0552 -0.4858 -0.6792
 4035TIP3    H136300   1.995   0.639   1.479 -0.6601 -0.1474 -0.6585
 4035TIP3    H236301   2.004   0.784   1.521  1.9119 -0.6710  0.7924
 4036TIP3   OH236302   0.877   2.457   8.507  0.3580 -0.0174  0.0259
 4036TIP3    H136303   0.965   2.494   8.501  0.1177  0.6339  0.3276
 4036TIP3    H236304   0.826   2.526   8.549 -0.0512 -0.8182  0.8559
 4037TIP3   OH236305   5.872   1.849   1.794 -0.3558 -0.0120 -0.2014
 4037TIP3    H136306   5.942   1.887   1.741 -0.1080 -0.5724 -0.2773
 4037TIP3    H236307   5.912   1.774   1.837 -0.7099  0.0974  0.3382
 4038TIP3   OH236308   7.650   0.929   1.856 -0.4862 -0.3716  0.0955
 4038TIP3    H136309   7.721   0.947   1.917 -0.0551 -1.3611 -0.0953
 4038TIP3    H236310   7.691   0.931   1.770 -1.6299  4.2060 -0.6079
 4039TIP3   OH236311   4.295   5.674   7.907  0.1938  0.0812 -0.6419
 4039TIP3    H136312   4.322   5.614   7.977 -2.2589 -1.6374 -1.0601
 4039TIP3    H236313   4.212   5.711   7.937 -0.0765  0.5692 -1.9239
 4040TIP3   OH236314   0.519   7.455   7.087 -0.0334 -0.1259  0.1980
 4040TIP3    H136315   0.590   7.393   7.068  0.4043  0.0415  1.2057
 4040TIP3    H236316   0.536   7.528   7.028  0.7784  0.0150  0.5936
 4041TIP3   OH236317   3.161   4.972   7.851 -0.1666  0.3402  0.2223
 4041TIP3    H136318   3.170   4.963   7.756  1.2564 -0.4938  0.4052
 4041TIP3    H236319   3.168   5.067   7.866  1.9120  0.3506 -0.3517
 4042TIP3   OH236320   4.533   6.807   2.743  0.6046 -0.0108 -0.7566
 4042TIP3    H136321   4.439   6.820   2.751  0.5289 -0.9760  0.2805
 4042TIP3    H236322   4.571   6.891   2.771  0.0651  0.1533 -0.4910
 4043TIP3   OH236323   7.006   6.110   8.496  0.1321 -0.0330 -0.5184
 4043TIP3    H136324   7.061   6.071   8.563 -0.3549 -1.1031 -0.7153
 4043TIP3    H236325   6.916   6.091   8.524 -0.2666  2.8199  0.4989
 4044TIP3   OH236326   4.623   2.752   9.191 -0.0338 -0.5213 -0.1546
 4044TIP3    H136327   4.672   2.823   9.149  0.3919 -1.2850 -0.9626
 4044TIP3    H236328   4.556   2.729   9.128 -0.4988 -0.4986  0.3276
 4045TIP3   OH236329   5.981   6.313   0.490  0.4955  0.1665  0.0563
 4045TIP3    H136330   5.936   6.383   0.537  0.4266  0.5166 -0.5141
 4045TIP3    H236331   6.053   6.287   0.548  0.7829  1.0028  0.0949
 4046TIP3   OH236332   5.547   2.806   7.547 -0.4446 -0.1746  0.6160
 4046TIP3    H136333   5.593   2.879   7.589 -0.7473  0.0415  0.5760
 4046TIP3    H236334   5.506   2.845   7.470 -1.4426 -0.1611  1.1359
 4047TIP3   OH236335   0.168   3.275   7.215  0.1662 -0.2402  0.4418
 4047TIP3    H136336   0.223   3.251   7.141 -0.3550 -0.7220  0.2099
 4047TIP3    H236337   0.175   3.201   7.275  1.5543  0.6517  1.4515
 4048TIP3   OH236338   7.287   5.568   0.647 -0.2167 -0.2417  0.3251
 4048TIP3    H136339   7.277   5.474   0.635 -0.6428 -0.0341 -1.1567
 4048TIP3    H236340   7.381   5.584   0.635 -0.3548 -0.3050 -1.0644
 4049TIP3   OH236341   2.687   6.768   0.697  0.1128 -0.2434 -0.1575
 4049TIP3    H136342   2.595   6.758   0.673  0.2840  0.9935 -1.4509
 4049TIP3    H236343   2.733   6.705   0.642 -0.0722 -2.2120  1.8081
 4050TIP3   OH236344   4.453   4.332   0.537 -0.0123 -0.6606  0.1914
 4050TIP3    H136345   4.537   4.287   0.526  0.6535  0.2798  1.1918
 4050TIP3    H236346   4.411   4.288   0.610  0.3113 -0.1589  0.6907
 4051TIP3   OH236347   5.553   5.993   8.329 -0.1516  0.7506 -0.6003
 4051TIP3    H136348   5.585   6.083   8.330 -0.2605  0.7882  0.1113
 4051TIP3    H236349   5.590   5.953   8.407  0.7345 -0.1380 -1.4355
 4052TIP3   OH236350   0.205   5.379   2.292  0.0104  0.6008  0.7732
 4052TIP3    H136351   0.195   5.295   2.246 -2.2785  1.0733  0.2870
 4052TIP3    H236352   0.137   5.435   2.254  0.1803  2.0519  2.4910
 4053TIP3   OH236353   3.592   2.123   9.613  0.2296 -0.3662 -0.2518
 4053TIP3    H136354   3.593   2.128   9.708 -1.5527  0.9534 -0.2457
 4053TIP3    H236355   3.550   2.204   9.585 -0.6983 -1.4014 -2.0754
 4054TIP3   OH236356   2.197   0.204   1.393  0.0666 -0.5576  0.1960
 4054TIP3    H136357   2.133   0.133   1.387  0.6779 -1.0347 -1.2007
 4054TIP3    H236358   2.148   0.282   1.367 -0.0968 -0.8370 -0.3676
 4055TIP3   OH236359   2.564   0.045   9.129 -0.8942  0.5384  0.1023
 4055TIP3    H136360   2.580   0.137   9.109  1.4709 -0.1347 -1.6100
 4055TIP3    H236361   2.602  -0.003   9.054 -1.9838 -1.8293  0.9555
 4056TIP3   OH236362   6.731   1.970   1.748 -0.0635  0.1441  0.1728
 4056TIP3    H136363   6.763   2.018   1.825  0.4603 -1.0699  0.7396
 4056TIP3    H236364   6.651   2.017   1.723 -0.2297  0.5977  1.4437
 4057TIP3   OH236365   2.755   6.513   8.241 -0.0029  0.3592 -0.2066
 4057TIP3    H136366   2.722   6.440   8.188 -2.2598  0.8688  0.3996
 4057TIP3    H236367   2.686   6.529   8.306  1.6298  1.3120  1.3814
 4058TIP3   OH236368   7.073   3.252   0.460  0.1430  0.0610  0.5722
 4058TIP3    H136369   7.146   3.270   0.400  0.0321 -0.0116  0.4147
 4058TIP3    H236370   7.052   3.160   0.446 -0.0774  0.1205  0.5098
 4059TIP3   OH236371   6.079   7.654   1.890 -0.5502 -0.1792 -0.7333
 4059TIP3    H136372   6.017   7.661   1.817  1.1751  0.3209 -2.2323
 4059TIP3    H236373   6.146   7.720   1.871 -0.7759  0.9976  2.1044
 4060TIP3   OH236374   6.294   3.865   8.570  0.4260  0.2529 -0.5185
 4060TIP3    H136375   6.291   3.780   8.614  0.6683  0.9450  0.8863
 4060TIP3    H236376   6.376   3.863   8.521 -0.0388 -0.6853 -1.3038
 4061TIP3   OH236377   1.673   0.285   8.723 -0.0389 -0.2898  0.4857
 4061TIP3    H136378   1.683   0.312   8.632  0.9406 -0.3854  0.5497
 4061TIP3    H236379   1.622   0.205   8.719  0.2952 -0.4805 -0.0124
 4062TIP3   OH236380   6.043   3.443   1.927  0.4174  0.3536 -0.8058
 4062TIP3    H136381   6.080   3.379   1.987  1.7259  0.6203 -1.2946
 4062TIP3    H236382   5.979   3.393   1.875  0.0316 -0.1042  0.0965
 4063TIP3   OH236383   1.566   7.320   2.819 -0.1357  0.1091 -0.3209
 4063TIP3    H136384   1.571   7.414   2.802 -2.4102  0.3182 -0.2319
 4063TIP3    H236385   1.479   7.308   2.858  0.4816 -1.9095  0.5309
 4064TIP3   OH236386   6.137   2.690   8.362  0.1734 -0.1341 -0.2589
 4064TIP3    H136387   6.226   2.655   8.372 -0.0455 -0.2243  1.8291
 4064TIP3    H236388   6.086   2.615   8.331  0.4360 -0.6781  0.5756
 4065TIP3   OH236389   1.470   6.936   9.640  0.2295  0.1528  0.1808
 4065TIP3    H136390   1.469   6.980   9.725  1.7203 -0.0758  0.3380
 4065TIP3    H236391   1.536   6.983   9.589  1.5381 -1.5603  0.1990
 4066TIP3   OH236392   3.855   3.130   0.255 -0.1300  0.5794  0.0641
 4066TIP3    H136393   3.829   3.126   0.347  0.0929  2.6297  0.2518
 4066TIP3    H236394   3.774   3.150   0.208 -0.0486  0.6205 -0.0582
 4067TIP3   OH236395   1.582   3.324   0.988 -0.1758  0.3788  0.7749
 4067TIP3    H136396   1.652   3.326   1.053 -0.1225 -0.5799  0.7715
 4067TIP3    H236397   1.627   3.324   0.904 -0.1107 -1.1565  0.7767
 4068TIP3   OH236398   4.886   2.589   9.896  0.5348 -0.2546 -0.5813
 4068TIP3    H136399   4.835   2.519   9.854 -0.1802 -0.6620  0.8969
 4068TIP3    H236400   4.977   2.557   9.893  0.2883 -0.9934 -0.4235
 4069TIP3   OH236401   4.975   6.125   7.599  0.4941 -0.0940 -0.3380
 4069TIP3    H136402   4.959   6.097   7.509  0.3778  1.6189 -0.8947
 4069TIP3    H236403   5.038   6.062   7.634 -0.7846 -1.8166 -1.0190
 4070TIP3   OH236404   6.628   4.284   8.737 -0.6920  0.7149  0.1906
 4070TIP3    H136405   6.621   4.261   8.644  0.4677 -0.0023  0.2664
 4070TIP3    H236406   6.545   4.255   8.774 -1.0921  0.8297 -0.5809
 4071TIP3   OH236407   5.002   3.104   1.885  0.8442  0.0474 -0.6431
 4071TIP3    H136408   5.061   3.153   1.828  1.4850 -0.1833 -0.1840
 4071TIP3    H236409   5.031   3.013   1.878  0.3483 -0.1112 -0.6516
 4072TIP3   OH236410   1.491   4.810   7.534 -0.3028  0.1898 -0.4673
 4072TIP3    H136411   1.489   4.714   7.546 -2.7760  0.2455  0.2879
 4072TIP3    H236412   1.475   4.823   7.441 -1.9033 -0.1915 -0.2902
 4073TIP3   OH236413   6.165   0.548   7.637 -1.1831  0.0298 -0.5655
 4073TIP3    H136414   6.177   0.559   7.543 -1.8062  1.3916 -0.5011
 4073TIP3    H236415   6.180   0.635   7.674  0.4373 -0.7610  0.7708
 4074TIP3   OH236416   0.037   1.361   1.426  0.3301  0.0969 -0.3148
 4074TIP3    H136417   0.078   1.447   1.414  2.0738 -0.7026 -0.4546
 4074TIP3    H236418  -0.022   1.372   1.500  0.2527  1.5036 -0.5695
 4075TIP3   OH236419   2.156   1.976   1.631 -0.6911  0.2559 -0.2176
 4075TIP3    H136420   2.164   2.046   1.696  1.6355  0.7527 -0.9570
 4075TIP3    H236421   2.163   2.020   1.547  2.2404 -0.8816 -0.6927
 4076TIP3   OH236422   1.474   5.247   9.598  0.3328  0.2570 -0.0382
 4076TIP3    H136423   1.543   5.293   9.646 -0.4507  1.5610 -0.0940
 4076TIP3    H236424   1.399   5.306   9.603  0.0579  0.1950 -2.4198
 4077TIP3   OH236425   6.361   2.661   0.926 -0.3123 -0.7398 -0.4959
 4077TIP3    H136426   6.333   2.580   0.968 -2.0266 -0.5086 -1.1035
 4077TIP3    H236427   6.279   2.706   0.904  0.4947 -0.4905 -3.3918
 4078TIP3   OH236428   0.602   5.740   0.052 -0.2501  0.3593 -0.5963
 4078TIP3    H136429   0.696   5.758   0.051 -0.4039  1.2617 -0.0381
 4078TIP3    H236430   0.576   5.742  -0.040  0.3852 -0.5358 -0.8070
 4079TIP3   OH236431   1.983   4.949   1.263  0.4740 -0.1217 -0.3410
 4079TIP3    H136432   2.067   4.934   1.220 -0.3441 -2.4257 -1.2807
 4079TIP3    H236433   1.987   4.893   1.341 -0.0352  0.0476 -0.1942
 4080TIP3   OH236434   4.373   3.801   2.537 -0.1658 -0.3355  0.0316
 4080TIP3    H136435   4.442   3.819   2.600  1.4040 -1.3370 -1.3031
 4080TIP3    H236436   4.371   3.705   2.531 -2.7894 -0.4292  1.1646
 4081TIP3   OH236437   1.153   0.479   2.171 -0.5595  0.2467  0.3185
 4081TIP3    H136438   1.139   0.446   2.260  0.1121  1.0116  0.7200
 4081TIP3    H236439   1.246   0.467   2.156 -0.5033  0.9696  0.0692
 4082TIP3   OH236440   4.735   1.786   2.005  0.1759  0.3245  0.3516
 4082TIP3    H136441   4.767   1.814   1.919 -2.0190 -0.9440 -0.9402
 4082TIP3    H236442   4.799   1.822   2.066  0.1162  4.1101 -1.5060
 4083TIP3   OH236443   7.169   1.739   1.727  0.2617  0.0271  0.4307
 4083TIP3    H136444   7.156   1.796   1.651  0.0099 -0.7946 -0.1525
 4083TIP3    H236445   7.223   1.668   1.695 -2.3843 -2.0094  0.1245
 4084TIP3   OH236446   7.391   5.318   0.561  0.1828  0.6657 -0.1147
 4084TIP3    H136447   7.332   5.263   0.511  1.8405  0.0897 -1.5162
 4084TIP3    H236448   7.418   5.263   0.635  1.4262 -0.2987 -1.2261
 4085TIP3   OH236449   5.150   6.098   0.361 -0.1557  0.1198  0.0443
 4085TIP3    H136450   5.178   6.047   0.286 -0.7226 -1.1114  0.6514
 4085TIP3    H236451   5.085   6.159   0.327 -1.6224 -1.5151 -0.2218
 4086TIP3   OH236452   3.224   2.681   0.456 -0.1903 -0.1469  0.4911
 4086TIP3    H136453   3.298   2.651   0.404  0.1866  0.1673  0.8464
 4086TIP3    H236454   3.152   2.624   0.430 -0.3844  0.9042 -1.4383
 4087TIP3   OH236455   4.476   1.609   7.612 -0.0103 -0.5122  0.0354
 4087TIP3    H136456   4.470   1.705   7.611 -0.6636 -0.5500  0.0811
 4087TIP3    H236457   4.566   1.591   7.584 -0.0821  0.0976 -0.6339
 4088TIP3   OH236458   0.395   2.234   1.761 -0.0143  0.6497  0.5911
 4088TIP3    H136459   0.319   2.176   1.768 -0.8133  1.6697  0.4566
 4088TIP3    H236460   0.417   2.255   1.852 -0.3289  0.9306  0.5992
 4089TIP3   OH236461   6.107   4.668   0.667 -0.2855 -1.0021  0.0322
 4089TIP3    H136462   6.093   4.591   0.722 -1.3633  0.2997  1.6844
 4089TIP3    H236463   6.201   4.685   0.673 -0.0512 -2.1216 -0.2807
 4090TIP3   OH236464   3.030   7.115   2.463  0.0544 -0.0301 -0.3214
 4090TIP3    H136465   3.043   7.142   2.554 -0.1365  0.5620 -0.4615
 4090TIP3    H236466   2.935   7.110   2.453  0.0923 -1.0637 -0.2218
 4091TIP3   OH236467   5.426   6.458   0.540  0.1180  0.1013  0.2179
 4091TIP3    H136468   5.467   6.428   0.458  1.0037  0.8585  0.3620
 4091TIP3    H236469   5.490   6.437   0.608  0.2840  1.2716  0.4543
 4092TIP3   OH236470   4.688   4.695   0.923 -0.0648 -0.2903 -0.2992
 4092TIP3    H136471   4.692   4.717   0.830  0.0783  0.1210 -0.2022
 4092TIP3    H236472   4.596   4.678   0.941  0.2526 -3.4497 -1.1855
 4093TIP3   OH236473   1.910   2.677   9.627  0.0316  0.1510 -0.4632
 4093TIP3    H136474   1.908   2.625   9.707  0.2236  0.6554 -0.1253
 4093TIP3    H236475   1.957   2.622   9.564  0.9390  0.2281  0.1261
 4094TIP3   OH236476   2.988   1.278   8.632 -0.2051 -0.6503 -0.1602
 4094TIP3    H136477   2.972   1.186   8.654 -3.1477 -0.7889 -2.2708
 4094TIP3    H236478   2.933   1.327   8.693 -1.1284 -0.5175 -1.0755
 4095TIP3   OH236479   2.715   5.311   7.791 -0.3380 -0.6734 -0.1650
 4095TIP3    H136480   2.764   5.393   7.782  1.3188 -1.3055  2.1405
 4095TIP3    H236481   2.624   5.337   7.778  0.2231  1.3122 -0.6109
 4096TIP3   OH236482   1.282   5.663   0.247  0.2309 -0.2073  0.4605
 4096TIP3    H136483   1.240   5.647   0.332 -0.0325 -2.4132 -0.0179
 4096TIP3    H236484   1.294   5.758   0.244 -0.5094  0.0200  2.5955
 4097TIP3   OH236485   3.641   6.742   0.373  0.4145  0.5084 -0.5140
 4097TIP3    H136486   3.554   6.781   0.363 -0.0698 -0.0726  1.0910
 4097TIP3    H236487   3.637   6.662   0.319  0.6576  1.4773 -2.0235
 4098TIP3   OH236488   6.548   4.388   0.840  0.0942  1.2615  0.0950
 4098TIP3    H136489   6.456   4.382   0.865  0.3618 -0.2080  0.8120
 4098TIP3    H236490   6.548   4.436   0.757 -1.4186  0.3034 -0.4832
 4099TIP3   OH236491   3.041   5.216   7.462  0.0666  0.0786  0.4394
 4099TIP3    H136492   3.012   5.212   7.553 -0.4391 -2.0619  0.2474
 4099TIP3    H236493   2.976   5.164   7.414  1.1247 -0.0730 -0.8969
 4100TIP3   OH236494   2.815   5.105   0.246 -0.0027  0.0990 -0.0715
 4100TIP3    H136495   2.759   5.063   0.311 -0.6199  1.0305  0.0233
 4100TIP3    H236496   2.879   5.155   0.297 -0.3534  0.6593 -0.1730
 4101TIP3   OH236497   3.043   6.254   7.303  0.1641 -0.0613 -0.3368
 4101TIP3    H136498   3.017   6.199   7.229 -0.0495  2.3451 -2.1794
 4101TIP3    H236499   3.135   6.276   7.286  0.4774 -0.4478  0.7772
 4102TIP3   OH236500   2.868   2.794   8.804  0.4826  0.1285  0.3859
 4102TIP3    H136501   2.931   2.785   8.875  0.6083  1.4333  0.4668
 4102TIP3    H236502   2.900   2.736   8.735  0.5637 -0.8676  1.2434
 4103TIP3   OH236503   3.951   3.303   1.722 -0.5445  0.0681 -0.2932
 4103TIP3    H136504   3.967   3.209   1.731  1.0248  0.2294 -1.0053
 4103TIP3    H236505   3.877   3.310   1.663 -0.0875 -0.7199 -0.9676
 4104TIP3   OH236506   1.859   4.987   9.786  0.0372  0.0347 -0.0020
 4104TIP3    H136507   1.778   4.997   9.736 -0.3498  1.0745  0.8034
 4104TIP3    H236508   1.890   5.076   9.800  0.6757 -0.2903  0.7566
 4105TIP3   OH236509   1.150   6.251   9.648 -0.5705 -0.1029  0.2680
 4105TIP3    H136510   1.240   6.249   9.682 -0.5174  4.0763  0.9335
 4105TIP3    H236511   1.161   6.261   9.554 -0.4602 -1.9639  0.0562
 4106TIP3   OH236512   0.731   4.152   2.758  0.3370  0.5108  0.6669
 4106TIP3    H136513   0.710   4.070   2.713  0.6090  0.3982  0.7416
 4106TIP3    H236514   0.771   4.207   2.691 -0.7574  0.9643  0.3657
 4107TIP3   OH236515   4.323   0.899   0.601 -0.3343 -0.3736  0.1613
 4107TIP3    H136516   4.342   0.981   0.646 -1.0677  0.6873 -1.3276
 4107TIP3    H236517   4.266   0.925   0.528 -1.1013 -2.3019  0.0051
 4108TIP3   OH236518   7.358   6.161   8.270 -0.1843 -0.1168  0.0529
 4108TIP3    H136519   7.347   6.074   8.232 -2.4079  1.5118 -3.6499
 4108TIP3    H236520   7.269   6.189   8.291  0.5798  0.9499  2.1868
 4109TIP3   OH236521   0.062   0.316   8.857  0.0816 -0.4437 -0.4337
 4109TIP3    H136522   0.081   0.230   8.819  3.0196 -1.4420  2.7485
 4109TIP3    H236523   0.046   0.297   8.950 -2.9782  2.1669 -0.2575
 4110TIP3   OH236524   6.357   5.683   0.430  0.2208  0.6216 -0.1053
 4110TIP3    H136525   6.441   5.639   0.427 -0.6780 -1.2372  0.5255
 4110TIP3    H236526   6.343   5.715   0.341  1.8146  1.4538 -0.0832
 4111TIP3   OH236527   1.949   3.192   2.498 -0.0277 -0.9245 -0.5252
 4111TIP3    H136528   2.028   3.231   2.461 -0.1706 -2.6409 -2.8800
 4111TIP3    H236529   1.879   3.252   2.471  0.2703 -0.2379  0.1916
 4112TIP3   OH236530   3.439   1.900   1.371  0.1041 -0.0501 -1.1403
 4112TIP3    H136531   3.501   1.829   1.386 -1.9474 -1.6835  0.1626
 4112TIP3    H236532   3.427   1.939   1.458 -1.4202 -0.4402 -1.1589
 4113TIP3   OH236533   2.108   7.323   7.581 -0.0558 -0.2338 -0.1625
 4113TIP3    H136534   2.169   7.268   7.630 -1.1629 -1.1440  0.2397
 4113TIP3    H236535   2.133   7.311   7.489  1.5955  0.9441  0.0826
 4114TIP3   OH236536   1.020   4.358   0.017  0.8532 -0.1840 -0.2664
 4114TIP3    H136537   0.995   4.277   0.062  0.9070 -1.1146 -1.8348
 4114TIP3    H236538   0.957   4.422   0.047 -0.3548 -1.2755 -0.3959
 4115TIP3   OH236539   1.888   4.863   0.750  0.8190 -0.0504  0.3209
 4115TIP3    H136540   1.799   4.880   0.717 -0.4449 -4.3043  0.9642
 4115TIP3    H236541   1.900   4.927   0.820 -1.8627  0.5023  0.3840
 4116TIP3   OH236542   5.597   0.763   9.248  0.5495 -0.3609  0.5285
 4116TIP3    H136543   5.522   0.821   9.234  0.8952  0.0218  0.2329
 4116TIP3    H236544   5.671   0.809   9.206  0.8653 -0.9209  0.4658
 4117TIP3   OH236545   1.934   7.117   0.967 -0.1205 -0.2095 -0.1923
 4117TIP3    H136546   1.880   7.074   0.902 -0.0100 -0.4580 -0.1200
 4117TIP3    H236547   1.974   7.046   1.017 -0.5032 -0.0267  0.3930
 4118TIP3   OH236548   4.830   5.292   9.861 -0.6887 -0.4402  0.4182
 4118TIP3    H136549   4.897   5.224   9.873  0.2716  0.6721  1.6443
 4118TIP3    H236550   4.767   5.253   9.801 -0.1443 -2.3916  1.0490
 4119TIP3   OH236551   4.402   5.728   0.991  0.1101  0.1922 -0.0242
 4119TIP3    H136552   4.335   5.707   0.927  0.0538  0.3377 -0.0128
 4119TIP3    H236553   4.354   5.763   1.066 -0.1377 -2.8538  1.3757
 4120TIP3   OH236554   1.977   3.311   1.410  0.5206 -0.3651  0.1153
 4120TIP3    H136555   1.976   3.304   1.506  2.2637 -0.8351  0.1239
 4120TIP3    H236556   1.951   3.401   1.393 -0.5823 -0.4889  0.9759
 4121TIP3   OH236557   7.061   3.349   0.739  0.3668  0.7412 -0.7046
 4121TIP3    H136558   7.141   3.315   0.781  0.6204  0.3901 -1.4457
 4121TIP3    H236559   7.062   3.309   0.652 -2.3489 -1.9886  0.3454
 4122TIP3   OH236560   1.449   2.721   2.090  0.1932 -0.1687 -0.7723
 4122TIP3    H136561   1.394   2.682   2.022  0.0842  2.2979 -2.2507
 4122TIP3    H236562   1.389   2.777   2.139  0.8535  0.4189 -0.6227
 4123TIP3   OH236563   6.500   0.311   8.792 -0.4096  0.3407 -0.0115
 4123TIP3    H136564   6.536   0.347   8.873 -0.3127 -0.4480  0.3078
 4123TIP3    H236565   6.428   0.255   8.821  0.1169 -0.5572 -0.4045
 4124TIP3   OH236566   0.520   0.347   8.023  0.2411  0.0848  0.4787
 4124TIP3    H136567   0.505   0.258   7.993  0.3897 -0.2635  1.4056
 4124TIP3    H236568   0.615   0.359   8.017  0.2593  0.0532  0.7108
 4125TIP3   OH236569   3.520   3.991   0.987  0.2365  0.1091  0.0366
 4125TIP3    H136570   3.427   3.968   0.977  0.5728 -0.9813 -0.8035
 4125TIP3    H236571   3.522   4.048   1.064 -1.1350  0.1987  0.0378
 4126TIP3   OH236572   2.429   0.294   6.819 -0.2049  0.3635  0.1541
 4126TIP3    H136573   2.379   0.237   6.762 -0.1353  1.4929 -1.1013
 4126TIP3    H236574   2.463   0.237   6.888 -1.2946 -0.8187 -0.2638
 4127TIP3   OH236575   5.390   6.191   9.960  0.3151  0.1310  0.5284
 4127TIP3    H136576   5.485   6.207   9.957  0.2022  1.4486  2.2251
 4127TIP3    H236577   5.352   6.277   9.976 -1.0469 -0.6198  1.5066
 4128TIP3   OH236578   3.738   6.624   0.734 -0.0883  0.1244  0.0049
 4128TIP3    H136579   3.667   6.560   0.740 -0.5833  0.6414 -0.2146
 4128TIP3    H236580   3.761   6.626   0.641 -1.1080  1.3429 -0.2516
 4129TIP3   OH236581   3.636   4.569   8.852  0.0486 -0.1160  0.2760
 4129TIP3    H136582   3.560   4.511   8.859  0.9957 -1.5120 -0.4119
 4129TIP3    H236583   3.623   4.615   8.769 -0.2091 -0.0975  0.3258
 4130TIP3   OH236584   3.582   3.408   8.981  0.1575  0.1243 -0.2445
 4130TIP3    H136585   3.618   3.364   8.904 -0.1318 -0.4156 -0.0742
 4130TIP3    H236586   3.634   3.374   9.054 -1.0433 -1.0935  0.0769
 4131TIP3   OH236587   1.970   5.772   1.282 -0.4812  0.0294 -0.1486
 4131TIP3    H136588   1.990   5.865   1.270 -1.6014  0.4501  1.0059
 4131TIP3    H236589   2.053   5.727   1.264 -0.0419  1.1994 -1.1793
 4132TIP3   OH236590   3.350   5.365   2.683 -0.3266 -0.4001  0.2467
 4132TIP3    H136591   3.355   5.379   2.777  0.9158  0.0225  0.1284
 4132TIP3    H236592   3.312   5.277   2.674  1.6515 -1.4043  1.1934
 4133TIP3   OH236593   2.016   0.914   0.830  0.3326  0.3359 -0.1783
 4133TIP3    H136594   1.931   0.916   0.873 -0.4621  1.7291 -1.6759
 4133TIP3    H236595   1.998   0.874   0.744  1.5564 -0.9446  0.1182
 4134TIP3   OH236596   0.535   4.970   2.222  0.2063  0.2068 -0.9079
 4134TIP3    H136597   0.481   5.049   2.218 -1.7277 -0.9982  0.2848
 4134TIP3    H236598   0.482   4.903   2.179  0.0643 -1.3470  1.5474
 4135TIP3   OH236599   7.270   7.275   9.885  0.0804  0.1606 -0.2476
 4135TIP3    H136600   7.346   7.218   9.877  1.4464  1.9504 -0.8355
 4135TIP3    H236601   7.289   7.329   9.963 -0.7220  0.4576 -0.2415
 4136TIP3   OH236602   6.101   5.075   0.515 -0.1701 -0.2740  0.3627
 4136TIP3    H136603   6.135   5.137   0.450  0.4401 -1.3687 -0.3801
 4136TIP3    H236604   6.166   5.078   0.586  0.0657 -0.3586  0.1514
 4137TIP3   OH236605   0.777   4.526   9.779 -0.1842  0.5657 -0.5428
 4137TIP3    H136606   0.750   4.444   9.821  0.7212  0.8592  0.6488
 4137TIP3    H236607   0.712   4.540   9.710 -0.1023 -1.3808 -1.0571
 4138TIP3   OH236608   2.902   7.099   0.460 -0.0585  0.0323 -0.1414
 4138TIP3    H136609   2.892   7.037   0.388  1.6990 -0.0704 -0.3259
 4138TIP3    H236610   2.884   7.048   0.538 -3.2202  0.4171 -0.4576
 4139TIP3   OH236611   2.638   5.823   8.086 -1.0333  0.3752  0.6434
 4139TIP3    H136612   2.589   5.877   8.148 -1.5002  0.9030 -0.1723
 4139TIP3    H236613   2.706   5.881   8.052  0.7335 -0.5851  2.3746
 4140TIP3   OH236614   0.489   2.013   0.849 -0.3086 -0.5224  0.1745
 4140TIP3    H136615   0.484   2.082   0.915 -0.0685 -0.4613  0.1295
 4140TIP3    H236616   0.438   1.941   0.886  0.3184 -0.7056  0.6888
 4141TIP3   OH236617   5.549   5.145   0.013  0.2636 -0.3271 -0.1178
 4141TIP3    H136618   5.622   5.198   0.046 -0.6458  0.5391  0.5521
 4141TIP3    H236619   5.508   5.200  -0.053 -2.9079  1.5316  3.0375
 4142TIP3   OH236620   5.063   0.209   2.445 -0.5778  0.0199  0.2084
 4142TIP3    H136621   4.970   0.219   2.427 -0.7550 -2.4848 -0.5552
 4142TIP3    H236622   5.074   0.246   2.533 -2.4408 -0.3282  0.6234
 4143TIP3   OH236623   6.964   2.407   9.852 -0.0975 -0.1297  0.2107
 4143TIP3    H136624   6.890   2.436   9.799 -0.1614 -0.5397  0.0701
 4143TIP3    H236625   6.988   2.322   9.815 -0.0144 -0.3272  0.7165
 4144TIP3   OH236626   3.386   2.622   2.267  0.0986 -0.7169 -0.2520
 4144TIP3    H136627   3.402   2.613   2.173 -0.7550 -0.7449 -0.4027
 4144TIP3    H236628   3.351   2.536   2.293 -0.1352 -0.5504 -0.0121
 4145TIP3   OH236629   4.686   5.212   7.827 -0.0770  0.2650 -0.2887
 4145TIP3    H136630   4.651   5.147   7.765  0.9194  0.5125 -1.1218
 4145TIP3    H236631   4.775   5.229   7.797  0.4911  0.2746  1.3111
 4146TIP3   OH236632   6.440   6.885   1.159 -0.0389 -0.2854 -0.5020
 4146TIP3    H136633   6.423   6.892   1.252  0.0309 -2.2311 -0.3122
 4146TIP3    H236634   6.486   6.967   1.137  1.3970 -0.4878  1.4997
 4147TIP3   OH236635   1.886   2.223   6.844 -0.3697  0.9351 -0.3911
 4147TIP3    H136636   1.872   2.136   6.806 -0.8895  1.1432 -0.6773
 4147TIP3    H236637   1.802   2.267   6.836 -0.0302  1.5752 -0.5204
 4148TIP3   OH236638   0.432   2.575   8.415 -0.2436 -0.1944  0.3764
 4148TIP3    H136639   0.391   2.489   8.424 -1.7934  0.5534  0.6876
 4148TIP3    H236640   0.453   2.601   8.505 -0.2577 -0.0232  0.3314
 4149TIP3   OH236641   6.375   0.926   9.277 -0.5398 -0.0727 -0.0640
 4149TIP3    H136642   6.338   0.890   9.358  0.1604  1.8067  1.1463
 4149TIP3    H236643   6.322   1.003   9.258  0.6550  0.7709 -0.1313
 4150TIP3   OH236644   2.716   1.270   8.383 -0.1232 -0.2192 -0.1077
 4150TIP3    H136645   2.640   1.288   8.328  0.6726  0.0366 -1.1487
 4150TIP3    H236646   2.690   1.195   8.436 -1.5796  0.6794  0.5332
 4151TIP3   OH236647   1.140   0.721   2.466  0.3304 -0.4772 -0.6278
 4151TIP3    H136648   1.111   0.632   2.486 -0.2655 -0.2382 -0.3997
 4151TIP3    H236649   1.121   0.770   2.546  0.3090 -0.0636 -0.8894
 4152TIP3   OH236650   3.114   3.514   9.226  0.1082 -0.4074 -0.1026
 4152TIP3    H136651   3.052   3.581   9.196  0.5327  0.2068  0.3803
 4152TIP3    H236652   3.200   3.556   9.221  0.3764 -0.9060  0.2374
 4153TIP3   OH236653   0.930   2.283   8.836 -0.8187  0.5480  0.1286
 4153TIP3    H136654   0.984   2.360   8.818  0.7029 -0.7551 -1.2391
 4153TIP3    H236655   0.952   2.222   8.765 -2.0886 -1.0796  1.0771
 4154TIP3   OH236656   2.666   0.641   2.462  0.1483 -0.1668 -0.4132
 4154TIP3    H136657   2.735   0.658   2.399  0.5793 -0.3714  0.0000
 4154TIP3    H236658   2.621   0.563   2.430  0.2893 -0.1995 -0.5278
 4155TIP3   OH236659   2.890   4.479   0.712 -0.9003  0.2874  0.2036
 4155TIP3    H136660   2.941   4.410   0.755  2.0314  1.5934 -0.8886
 4155TIP3    H236661   2.817   4.432   0.671  0.6218 -2.1189  0.0093
 4156TIP3   OH236662   1.937   4.403   7.057  0.0389  0.1234  0.5409
 4156TIP3    H136663   1.913   4.348   6.982  0.2613 -2.3123  2.1462
 4156TIP3    H236664   2.033   4.409   7.052 -0.0497  1.1781 -0.1368
 4157TIP3   OH236665   2.246   0.391   9.797  0.0156  0.8610  0.1818
 4157TIP3    H136666   2.302   0.422   9.868 -0.2120  1.1703  0.2261
 4157TIP3    H236667   2.235   0.466   9.739  0.6115  0.4689 -0.4493
 4158TIP3   OH236668   7.137   6.009   1.782  0.9297 -0.4445  0.0644
 4158TIP3    H136669   7.070   6.049   1.726  0.1817 -3.1759 -1.1432
 4158TIP3    H236670   7.220   6.030   1.739  0.3864 -2.2325 -2.0545
 4159TIP3   OH236671   0.380   4.666   7.656  0.0492  0.0277  0.0306
 4159TIP3    H136672   0.448   4.692   7.718  3.0626 -0.5955 -2.7447
 4159TIP3    H236673   0.352   4.748   7.615  0.4049  0.1241 -0.0191
 4160TIP3   OH236674   7.674   2.408   9.557 -0.3952  0.4802  0.3972
 4160TIP3    H136675   7.722   2.484   9.524 -1.1646  0.2160 -1.4606
 4160TIP3    H236676   7.583   2.422   9.529 -0.5778 -1.0508  0.1073
 4161TIP3   OH236677   4.062   3.941   0.934  0.3783  0.2100 -0.5117
 4161TIP3    H136678   4.020   3.884   0.871  1.9822 -1.6582 -0.0087
 4161TIP3    H236679   4.000   3.948   1.006 -0.0010 -0.6232 -0.7486
 4162TIP3   OH236680   6.070   5.349   1.634 -0.5906 -0.2692  0.5338
 4162TIP3    H136681   6.098   5.423   1.687 -1.7209 -0.2095  1.0609
 4162TIP3    H236682   6.077   5.273   1.693 -0.4010 -0.4359  0.3016
 4163TIP3   OH236683   3.288   6.450   7.825  0.2975 -0.0966 -0.2051
 4163TIP3    H136684   3.288   6.530   7.877 -0.7789 -1.3533  1.8225
 4163TIP3    H236685   3.202   6.447   7.784  0.2625 -0.3087 -0.1198
 4164TIP3   OH236686   5.393   0.933   9.157  0.0988 -0.1121  0.1210
 4164TIP3    H136687   5.373   0.892   9.073 -0.4460 -0.4673  0.4210
 4164TIP3    H236688   5.333   1.007   9.163 -1.1683 -1.1524  1.0007
 4165TIP3   OH236689   3.780   6.484   9.453 -0.1386  0.5117  0.2959
 4165TIP3    H136690   3.776   6.460   9.361 -0.6097 -3.2779  1.1305
 4165TIP3    H236691   3.691   6.513   9.474 -0.3724  0.1151 -0.1478
 4166TIP3   OH236692   0.163   0.787   7.486  1.0393 -0.1229 -0.3540
 4166TIP3    H136693   0.122   0.809   7.570  1.1184 -0.6086 -0.1847
 4166TIP3    H236694   0.198   0.699   7.499  0.6002 -0.4143 -1.0621
 4167TIP3   OH236695   2.775   3.968   9.959 -0.7416  0.2215  0.0062
 4167TIP3    H136696   2.712   3.898   9.943  1.9836 -2.2894 -0.6529
 4167TIP3    H236697   2.783   4.013   9.875  0.0855 -1.0541 -0.6285
 4168TIP3   OH236698   1.949   2.955   1.125  0.1141  0.3884 -0.0205
 4168TIP3    H136699   1.965   2.987   1.214  1.3136 -1.3850  0.4369
 4168TIP3    H236700   2.034   2.957   1.082  0.3359 -2.3347  0.1230
 4169TIP3   OH236701   1.672   4.322   1.680 -0.0637  0.2146 -0.0071
 4169TIP3    H136702   1.625   4.320   1.597 -1.4706  0.2378  0.7682
 4169TIP3    H236703   1.654   4.408   1.717  0.4921  0.1767  0.3738
 4170TIP3   OH236704   3.237   0.563   0.087 -0.2510  0.3120  0.0062
 4170TIP3    H136705   3.157   0.517   0.064  0.2958 -0.5635 -0.2100
 4170TIP3    H236706   3.215   0.656   0.081 -1.7708  0.1136  1.8318
 4171TIP3   OH236707   5.542   4.044   1.245 -0.4096  0.1020 -0.2375
 4171TIP3    H136708   5.499   4.104   1.184  0.7611  1.5059  0.2680
 4171TIP3    H236709   5.478   4.030   1.314  0.1449  2.8393  0.9344
 4172TIP3   OH236710   1.927   4.490   8.695 -0.3218 -0.9359  0.5234
 4172TIP3    H136711   1.838   4.512   8.721 -0.6920  0.0513 -1.4117
 4172TIP3    H236712   1.981   4.563   8.726 -0.7434  0.1813 -1.2325
 4173TIP3   OH236713   5.101   6.667   7.655 -0.6595 -0.6546  0.0384
 4173TIP3    H136714   5.073   6.577   7.644 -3.4387  0.2099 -0.7459
 4173TIP3    H236715   5.061   6.714   7.582  1.0819  1.1862  0.1537
 4174TIP3   OH236716   0.057   2.385   0.691  0.3960  0.1532  0.0275
 4174TIP3    H136717   0.073   2.351   0.779 -0.4456 -1.0193 -0.2473
 4174TIP3    H236718   0.057   2.480   0.702 -2.0706  0.0526  1.7829
 4175TIP3   OH236719   2.612   3.253   1.910 -0.3870 -0.0580 -0.9103
 4175TIP3    H136720   2.528   3.271   1.951 -0.2149 -0.4838 -0.3595
 4175TIP3    H236721   2.631   3.332   1.858 -0.2198  0.8593  0.4974
 4176TIP3   OH236722   3.185   3.543   8.126 -0.0359  0.6080  0.3695
 4176TIP3    H136723   3.275   3.518   8.148 -0.0262 -0.1079 -0.4504
 4176TIP3    H236724   3.133   3.516   8.202  0.2254 -0.3874  0.2064
 4177TIP3   OH236725   3.802   2.318   1.786 -0.6983 -0.1338 -0.3650
 4177TIP3    H136726   3.890   2.302   1.751 -1.6953 -3.6694 -1.6690
 4177TIP3    H236727   3.758   2.369   1.718  0.2756  1.6604  0.2989
 4178TIP3   OH236728   3.868   0.539   7.713  0.4201  0.0995 -0.3661
 4178TIP3    H136729   3.795   0.480   7.732  0.4263  0.1170 -0.2864
 4178TIP3    H236730   3.869   0.547   7.618  1.0014 -0.7667 -0.4474
 4179TIP3   OH236731   1.524   4.143   8.173 -0.0994  0.4395  0.6016
 4179TIP3    H136732   1.495   4.181   8.090  0.8981 -0.3962 -0.1587
 4179TIP3    H236733   1.507   4.211   8.238 -0.4762  1.2837 -0.3557
 4180TIP3   OH236734   2.514   6.793   3.256  0.1448 -0.0350 -0.1532
 4180TIP3    H136735   2.593   6.741   3.270 -0.2158 -0.4364  0.4444
 4180TIP3    H236736   2.442   6.732   3.269 -0.2857  0.5646  0.3588
 4181TIP3   OH236737   4.146   6.816   8.905  0.0955 -0.5036  0.3432
 4181TIP3    H136738   4.185   6.780   8.825  0.7304  1.3467 -0.2204
 4181TIP3    H236739   4.202   6.784   8.975  0.4348 -0.9021 -0.1036
 4182TIP3   OH236740   3.943   4.439   8.011 -0.0040 -0.2116 -0.1958
 4182TIP3    H136741   3.973   4.419   7.922  0.5332 -2.6721  0.4464
 4182TIP3    H236742   3.853   4.407   8.013  0.9406 -3.2000  0.9230
 4183TIP3   OH236743   1.075   7.438   9.294  0.8344  0.4632 -0.0306
 4183TIP3    H136744   1.155   7.490   9.298  1.2938  0.0830 -2.7998
 4183TIP3    H236745   1.012   7.489   9.346  1.8899  2.5955 -0.6968
 4184TIP3   OH236746   2.123   0.466   1.359 -0.1186  0.3534  0.1905
 4184TIP3    H136747   2.067   0.465   1.436  0.8623 -0.5933  0.9182
 4184TIP3    H236748   2.183   0.540   1.373 -0.2677  0.4924  0.0934
 4185TIP3   OH236749   1.446   5.914   8.852 -0.0374  0.3346  0.9769
 4185TIP3    H136750   1.511   5.862   8.900 -0.0364 -0.9640 -0.3827
 4185TIP3    H236751   1.483   6.002   8.850  2.9060 -0.7643 -1.6938
 4186TIP3   OH236752   3.539   6.416   7.680  0.0001 -0.3532 -0.1283
 4186TIP3    H136753   3.450   6.414   7.716 -0.3035 -0.6515 -0.8807
 4186TIP3    H236754   3.545   6.336   7.628  0.5580 -0.1074 -0.4447
 4187TIP3   OH236755   1.077   6.641   0.901  0.2509  0.1546  0.4540
 4187TIP3    H136756   1.122   6.725   0.902 -0.2393  0.4696 -1.2080
 4187TIP3    H236757   0.984   6.663   0.909  0.2033 -0.3450  1.5001
 4188TIP3   OH236758   5.180   4.492   2.247  0.4742 -0.0791 -0.3979
 4188TIP3    H136759   5.177   4.487   2.343 -1.9099  0.1519 -0.3982
 4188TIP3    H236760   5.093   4.524   2.222  0.7557 -0.9236 -2.6920
 4189TIP3   OH236761   4.143   4.190   8.893 -0.0742  0.6082  0.1217
 4189TIP3    H136762   4.083   4.157   8.960 -0.6453 -2.3198 -1.6594
 4189TIP3    H236763   4.229   4.155   8.918  0.2467  1.7730  0.7182
 4190TIP3   OH236764   0.704   4.840   8.353 -0.7375 -0.3741 -0.2473
 4190TIP3    H136765   0.610   4.850   8.362 -0.4392  0.9437  3.0298
 4190TIP3    H236766   0.737   4.929   8.347  0.3775 -0.6685  0.9300
 4191TIP3   OH236767   4.755   4.433   0.916 -0.1327  0.0021  0.0834
 4191TIP3    H136768   4.670   4.390   0.927 -0.2132  0.3046  0.6524
 4191TIP3    H236769   4.734   4.525   0.902  0.0202 -0.1793 -1.5435
 4192TIP3   OH236770   0.958   1.002   7.265 -0.0434  0.0148 -0.0866
 4192TIP3    H136771   0.984   0.984   7.175  2.1748 -0.1252  0.5046
 4192TIP3    H236772   0.864   0.988   7.267  0.3249 -4.1844 -1.4642
 4193TIP3   OH236773   3.270   3.669   0.950 -0.2113 -0.1117  0.1815
 4193TIP3    H136774   3.281   3.764   0.949  0.4437 -0.1857 -1.2588
 4193TIP3    H236775   3.325   3.637   0.879  1.9720 -1.8618  2.4609
 4194TIP3   OH236776   5.638   0.752   0.025  0.2539 -0.1956 -0.2155
 4194TIP3    H136777   5.683   0.786   0.102  0.5211 -0.4330 -0.2651
 4194TIP3    H236778   5.577   0.821   0.001  0.3141 -0.0330  0.0856
 4195TIP3   OH236779   6.380   7.086   8.728 -0.0938  0.1182  0.6163
 4195TIP3    H136780   6.371   7.003   8.774  1.6737 -0.7796 -0.5474
 4195TIP3    H236781   6.474   7.095   8.713 -0.2712  2.2300  0.4954
 4196TIP3   OH236782   0.654   5.275   9.605 -0.2959 -0.3510 -0.0057
 4196TIP3    H136783   0.567   5.268   9.645 -0.7452  1.2277 -0.6031
 4196TIP3    H236784   0.714   5.281   9.679 -0.8963  0.4051  0.4356
 4197TIP3   OH236785   3.369   2.604   8.432 -0.8706  0.4157 -0.0544
 4197TIP3    H136786   3.361   2.698   8.443 -3.7496  0.2045  0.4463
 4197TIP3    H236787   3.373   2.569   8.521  0.4403  0.0418 -0.2371
 4198TIP3   OH236788   5.319   2.246   9.928 -0.1310 -0.1340 -0.3071
 4198TIP3    H136789   5.240   2.202   9.958  0.5377 -2.0810 -1.2146
 4198TIP3    H236790   5.383   2.230   9.997  0.5275 -1.9725 -1.2561
 4199TIP3   OH236791   6.145   5.147   1.800 -0.0324 -0.0505 -0.7826
 4199TIP3    H136792   6.171   5.155   1.892  1.2672 -0.6334 -1.0821
 4199TIP3    H236793   6.141   5.053   1.784 -1.3350  0.0258 -1.0524
 4200TIP3   OH236794   7.038   1.666   8.829  0.4381 -0.0274  0.0744
 4200TIP3    H136795   6.987   1.713   8.895  1.2459  1.7244 -0.5036
 4200TIP3    H236796   7.126   1.704   8.835  1.5375 -2.4355  0.5157
 4201TIP3   OH236797   4.758   0.248   7.935 -0.5952 -0.2295 -0.4569
 4201TIP3    H136798   4.804   0.325   7.970  1.1644 -1.5492  0.2898
 4201TIP3    H236799   4.701   0.284   7.866  1.7465  1.5293 -1.6347
 4202TIP3   OH236800   1.829   2.470   7.961  0.4459  0.5579  0.1815
 4202TIP3    H136801   1.756   2.467   8.023 -0.7021 -0.7207 -1.1624
 4202TIP3    H236802   1.803   2.539   7.898 -0.2032 -0.6538 -0.9353
 4203TIP3   OH236803   1.305   3.140   9.175  0.1897 -0.1358 -0.5741
 4203TIP3    H136804   1.395   3.172   9.177 -0.0030  0.3550  1.0309
 4203TIP3    H236805   1.260   3.200   9.115  0.2270  1.6367  1.0670
 4204TIP3   OH236806   4.059   1.466   1.907  0.2049 -0.0838  0.0269
 4204TIP3    H136807   4.097   1.444   1.992  1.2759 -1.4117 -0.7639
 4204TIP3    H236808   3.991   1.530   1.928 -1.4343 -2.3214  2.2115
 4205TIP3   OH236809   0.020   1.245   8.777  0.1170  0.3495 -0.5830
 4205TIP3    H136810   0.109   1.213   8.762  0.1895 -0.4687  1.3417
 4205TIP3    H236811   0.027   1.298   8.857 -1.3371 -0.7790  0.3287
 4206TIP3   OH236812   2.120   1.721   9.050 -0.5461 -0.1941 -0.5576
 4206TIP3    H136813   2.171   1.646   9.020  0.7965  1.0474 -1.5787
 4206TIP3    H236814   2.046   1.684   9.098  0.3437 -2.1228 -0.6177
 4207TIP3   OH236815   1.606   7.469   7.365  0.0358  0.0874 -0.1945
 4207TIP3    H136816   1.696   7.473   7.332 -0.3524 -0.0239 -1.2934
 4207TIP3    H236817   1.602   7.387   7.414  0.1469 -0.6279 -1.3466
 4208TIP3   OH236818   2.678   0.626   8.626  0.3106  0.0928 -0.5737
 4208TIP3    H136819   2.667   0.697   8.562  2.1024 -0.2978 -1.3557
 4208TIP3    H236820   2.747   0.657   8.684  0.4407 -0.6231 -0.3434
 4209TIP3   OH236821   0.242   6.135   8.051  0.0052  0.0507  0.3473
 4209TIP3    H136822   0.292   6.178   7.982 -0.6737 -1.2334 -0.9755
 4209TIP3    H236823   0.273   6.045   8.051 -1.0490 -0.3216  0.7133
 4210TIP3   OH236824   0.522   4.606   9.701 -0.2277  0.5514 -0.0876
 4210TIP3    H136825   0.488   4.658   9.628  1.3283  0.8841 -0.6152
 4210TIP3    H236826   0.530   4.669   9.773 -0.6210  0.4896  0.0142
 4211TIP3   OH236827   3.815   4.963   0.551 -0.1126  0.1571 -0.6096
 4211TIP3    H136828   3.721   4.953   0.568 -0.1248  0.0520 -0.7417
 4211TIP3    H236829   3.852   4.986   0.637 -0.6119  2.8664 -1.0566
 4212TIP3   OH236830   1.749   3.860   2.117  0.4073 -0.0333 -0.1576
 4212TIP3    H136831   1.714   3.889   2.034 -1.1681  2.5182  1.2711
 4212TIP3    H236832   1.838   3.895   2.120  0.3504  0.1476 -0.6289
 4213TIP3   OH236833   6.571   4.829   9.146 -0.1403 -0.1465  0.2832
 4213TIP3    H136834   6.631   4.784   9.205  1.0398  1.2283  0.2134
 4213TIP3    H236835   6.565   4.918   9.181  1.3421  0.9984 -2.0884
 4214TIP3   OH236836   1.239   0.365   9.010  0.1342 -0.3134 -0.1870
 4214TIP3    H136837   1.329   0.335   8.993  0.1033 -0.6858  0.2925
 4214TIP3    H236838   1.244   0.408   9.095 -0.0647  0.0203 -0.3414
 4215TIP3   OH236839   5.559   5.611   8.929 -0.0805 -0.0311  0.6555
 4215TIP3    H136840   5.535   5.625   8.837  2.7777 -0.2973 -0.2153
 4215TIP3    H236841   5.591   5.521   8.932  1.4873  0.5193  1.4984
 4216TIP3   OH236842   4.462   1.287   9.561 -0.0382 -0.4253  0.7156
 4216TIP3    H136843   4.478   1.296   9.467  0.1278 -1.1803  0.6715
 4216TIP3    H236844   4.404   1.361   9.582 -0.4676 -0.5263 -0.0718
 4217TIP3   OH236845   5.043   2.560   1.624  0.3762 -0.5018  0.5741
 4217TIP3    H136846   4.970   2.576   1.684  0.3770  0.8953  0.2441
 4217TIP3    H236847   5.001   2.531   1.543  0.0339  1.4579 -0.0169
 4218TIP3   OH236848   6.065   7.150   2.107 -0.2465  0.2396 -0.2208
 4218TIP3    H136849   5.989   7.167   2.163 -0.7925 -0.3365 -0.7774
 4218TIP3    H236850   6.093   7.237   2.078  0.1082  0.5562  1.0128
 4219TIP3   OH236851   5.036   0.209   0.691  0.4980 -0.1144  0.1537
 4219TIP3    H136852   5.009   0.258   0.614 -1.0803 -0.3873  0.4934
 4219TIP3    H236853   5.123   0.243   0.712 -0.6162  2.7855  0.5645
 4220TIP3   OH236854   1.985   0.805   1.845  0.7312 -0.0034 -0.2030
 4220TIP3    H136855   2.070   0.768   1.820  0.8000 -0.3491  0.5006
 4220TIP3    H236856   1.958   0.751   1.920  0.4348  0.8432  0.3070
 4221TIP3   OH236857   3.057   6.706   8.293  0.3587 -0.3005  0.1900
 4221TIP3    H136858   2.965   6.729   8.304 -0.3166 -2.1355 -1.1649
 4221TIP3    H236859   3.076   6.725   8.201  0.9584 -1.1057  0.1380
 4222TIP3   OH236860   1.406   2.105   0.041 -0.0074  0.2217 -0.6144
 4222TIP3    H136861   1.438   2.038  -0.019 -0.8361 -0.2825 -0.5085
 4222TIP3    H236862   1.416   2.187  -0.008 -0.6521 -0.1757 -1.4545
 4223TIP3   OH236863   7.151   5.383   0.316  0.4846  0.1661 -0.2837
 4223TIP3    H136864   7.212   5.457   0.317 -0.8603  1.3346 -0.1406
 4223TIP3    H236865   7.151   5.353   0.225  0.9301  0.4655 -0.3863
 4224TIP3   OH236866   4.756   5.332   1.073  0.1370 -0.1381  0.0773
 4224TIP3    H136867   4.680   5.288   1.109 -0.0045 -0.8081 -0.9949
 4224TIP3    H236868   4.737   5.341   0.979  0.8589  0.7651 -0.0036
 4225TIP3   OH236869   0.441   1.638   8.122 -0.0916  0.0505  0.0916
 4225TIP3    H136870   0.483   1.705   8.068  1.0674 -0.6360  0.1174
 4225TIP3    H236871   0.375   1.598   8.064 -0.3275  0.7526 -0.1304
 4226TIP3   OH236872   1.226   1.974   8.005  0.0375  0.1166  0.1444
 4226TIP3    H136873   1.317   1.986   7.976  0.0613  0.8071  0.4836
 4226TIP3    H236874   1.233   1.941   8.094 -0.0409  0.1479  0.1622
 4227TIP3   OH236875   3.700   7.658   7.449 -0.0046  0.0219 -0.6145
 4227TIP3    H136876   3.783   7.700   7.427 -0.7185  0.6402 -2.2378
 4227TIP3    H236877   3.723   7.566   7.464  0.9052  0.0748 -1.5925
 4228TIP3   OH236878   2.247   1.742   7.302 -0.2451 -0.1193  0.2287
 4228TIP3    H136879   2.213   1.661   7.340 -1.9892 -0.1110 -1.2064
 4228TIP3    H236880   2.273   1.795   7.377  1.5862 -2.2186  1.2001
 4229TIP3   OH236881   3.186   2.207   0.013  0.0092  0.0626 -0.5862
 4229TIP3    H136882   3.184   2.283   0.071  1.8956 -1.5035  1.7101
 4229TIP3    H236883   3.111   2.154   0.038  0.2722 -0.1396 -0.2053
 4230TIP3   OH236884   0.691   4.890   0.883  0.0809  0.2385 -0.3368
 4230TIP3    H136885   0.751   4.820   0.909 -0.8788 -0.6487 -0.3859
 4230TIP3    H236886   0.656   4.923   0.966 -1.6027 -1.3384 -0.3363
 4231TIP3   OH236887   1.931   4.558   2.385 -0.3948 -0.1226 -0.2709
 4231TIP3    H136888   1.978   4.565   2.302  0.7618  0.7521  0.4293
 4231TIP3    H236889   1.946   4.468   2.414 -0.2932 -0.2455 -0.7016
 4232TIP3   OH236890   5.496   2.655   0.275 -0.1394  0.3081 -0.1184
 4232TIP3    H136891   5.454   2.586   0.326  2.1191 -0.4508  0.8277
 4232TIP3    H236892   5.456   2.736   0.307 -0.4338 -0.3368  1.2210
 4233TIP3   OH236893   5.079   2.170   0.010  0.1043 -0.2132  0.1505
 4233TIP3    H136894   4.998   2.210   0.044  1.0501  1.5292  0.4425
 4233TIP3    H236895   5.067   2.076   0.027 -1.6523  0.0441  0.6076
 4234TIP3   OH236896   5.859   0.288   1.499 -0.2063  0.0353 -0.1013
 4234TIP3    H136897   5.836   0.375   1.466 -2.5333  0.2987  1.8833
 4234TIP3    H236898   5.854   0.231   1.422 -3.1706  0.9571 -0.7329
 4235TIP3   OH236899   5.964   2.613   1.602  0.0196 -0.1677  0.4450
 4235TIP3    H136900   6.029   2.559   1.646  2.7907  1.0763 -1.8137
 4235TIP3    H236901   5.908   2.549   1.557  0.2406 -1.2432  1.6094
 4236TIP3   OH236902   5.908   2.293   1.656  1.0509 -0.1099  0.2265
 4236TIP3    H136903   5.994   2.302   1.614  1.6564  1.9231  1.7333
 4236TIP3    H236904   5.849   2.344   1.600  1.3176  0.4081  0.4049
 4237TIP3   OH236905   7.504   1.465   9.850 -0.3034 -0.3799 -0.1302
 4237TIP3    H136906   7.483   1.428   9.935 -0.2040 -0.4426 -0.1330
 4237TIP3    H236907   7.558   1.542   9.869 -2.1203  0.9376 -0.0182
 4238TIP3   OH236908   4.660   0.855   2.721 -0.5975 -0.3973 -0.0985
 4238TIP3    H136909   4.685   0.763   2.712 -0.2530 -0.2128 -1.1107
 4238TIP3    H236910   4.569   0.859   2.691 -0.3502 -0.2709 -0.8427
 4239TIP3   OH236911   5.373   4.425   9.838  0.4642  0.2202 -0.1071
 4239TIP3    H136912   5.353   4.497   9.778 -0.8228  0.3834  0.4765
 4239TIP3    H236913   5.447   4.380   9.797 -0.2119  0.4652 -1.6894
 4240TIP3   OH236914   2.565   7.575   9.724 -0.1331 -0.0584 -0.0955
 4240TIP3    H136915   2.601   7.511   9.786 -2.1313 -0.1161  1.0768
 4240TIP3    H236916   2.587   7.660   9.761 -0.8624 -0.0900  0.4074
 4241TIP3   OH236917   3.886   2.949   9.131 -0.2406  0.8048  0.1761
 4241TIP3    H136918   3.793   2.951   9.151 -0.5175  0.6282 -1.0294
 4241TIP3    H236919   3.928   2.923   9.214 -1.1079  2.3747  1.1523
 4242TIP3   OH236920   3.697   4.621   7.228 -0.2854 -0.1810 -0.1294
 4242TIP3    H136921   3.641   4.573   7.290 -0.0182  0.8536  0.9500
 4242TIP3    H236922   3.682   4.713   7.249 -0.4668  0.2117 -1.8822
 4243TIP3   OH236923   7.372   0.808   9.568 -0.1268  0.5244 -0.0112
 4243TIP3    H136924   7.348   0.897   9.592 -2.4287  0.1386 -0.5606
 4243TIP3    H236925   7.386   0.763   9.651  0.3111  1.2003  0.2914
 4244TIP3   OH236926   7.309   2.520   2.271  0.2405  0.1387  0.2830
 4244TIP3    H136927   7.298   2.561   2.356 -1.2164 -0.0412  0.2040
 4244TIP3    H236928   7.353   2.437   2.289 -0.0706  0.0982  0.8617
 4245TIP3   OH236929   0.886   0.655   0.930  0.2630  0.1892 -0.0238
 4245TIP3    H136930   0.973   0.694   0.936 -0.6696  2.2495  0.9184
 4245TIP3    H236931   0.829   0.716   0.977 -1.6994 -1.0921 -0.6420
 4246TIP3   OH236932   2.774   2.568   9.482 -0.1539 -0.1560 -0.0218
 4246TIP3    H136933   2.745   2.658   9.497  0.7933  0.0409  0.7219
 4246TIP3    H236934   2.776   2.528   9.569 -0.1808 -0.7759 -0.2953
 4247TIP3   OH236935   3.185   3.460   1.120  0.1155 -0.3748 -0.2788
 4247TIP3    H136936   3.128   3.497   1.188  1.4340  0.8494  0.2075
 4247TIP3    H236937   3.236   3.535   1.089  0.5193 -1.1942 -1.6470
 4248TIP3   OH236938   2.298   4.018   8.449 -0.5745 -0.0712  0.5930
 4248TIP3    H136939   2.353   3.985   8.519 -0.7004  0.0702  0.7603
 4248TIP3    H236940   2.210   4.019   8.486 -0.5844  0.3722  0.5624
 4249TIP3   OH236941   5.916   2.273   8.841  0.9249 -0.3565  0.1178
 4249TIP3    H136942   5.828   2.310   8.843  0.7725 -0.6407 -0.8212
 4249TIP3    H236943   5.908   2.189   8.885  0.8747 -0.1015  0.6086
 4250TIP3   OH236944   7.120   3.226   7.920  0.0037  0.2399 -0.2557
 4250TIP3    H136945   7.204   3.211   7.962 -0.8093  0.3196  1.4684
 4250TIP3    H236946   7.124   3.317   7.889 -0.2040  0.9897  1.7681
 4251TIP3   OH236947   2.503   4.899   7.620 -0.4238 -0.2069  0.1925
 4251TIP3    H136948   2.483   4.810   7.647  0.8503 -0.5802 -0.0315
 4251TIP3    H236949   2.433   4.952   7.657  0.6227 -0.8198  3.3720
 4252TIP3   OH236950   4.487   1.592   0.512  0.2210 -0.0364 -0.4562
 4252TIP3    H136951   4.480   1.599   0.417  1.0180 -0.2403 -0.5357
 4252TIP3    H236952   4.469   1.680   0.544  1.0675  0.3013 -0.8755
 4253TIP3   OH236953   0.592   7.443   7.356 -0.3285 -0.6150  0.5963
 4253TIP3    H136954   0.537   7.499   7.411  0.0004  0.2560  0.0581
 4253TIP3    H236955   0.579   7.477   7.268  0.5541 -0.8267  0.3796
 4254TIP3   OH236956   3.574   7.636   8.146 -0.1195  0.0490  0.1704
 4254TIP3    H136957   3.617   7.560   8.186  1.3032  0.3114 -0.7994
 4254TIP3    H236958   3.483   7.608   8.135  0.5155 -1.8485 -0.8795
 4255TIP3   OH236959   4.712   3.993   8.758  0.3117  0.4364  0.2662
 4255TIP3    H136960   4.752   4.074   8.726 -1.2330  1.0062 -0.3601
 4255TIP3    H236961   4.641   4.022   8.816 -1.1158 -0.3811 -0.9802
 4256TIP3   OH236962   5.486   3.088   9.695 -0.8197  0.8279 -0.1208
 4256TIP3    H136963   5.407   3.123   9.736 -0.3405  1.6627  0.1260
 4256TIP3    H236964   5.517   3.159   9.639 -0.8057  0.1318 -1.0188
 4257TIP3   OH236965   2.700   6.679   2.275  0.1993 -0.2007  0.0571
 4257TIP3    H136966   2.616   6.660   2.233  0.6609  0.7745 -1.3760
 4257TIP3    H236967   2.746   6.595   2.276  0.0532 -0.3082 -1.1482
 4258TIP3   OH236968   0.978   7.333   7.517  0.7986 -0.0267 -0.5397
 4258TIP3    H136969   1.059   7.306   7.560  2.0556  0.9965 -2.1667
 4258TIP3    H236970   0.913   7.335   7.587  2.0929 -1.1266  0.7544
 4259TIP3   OH236971   0.971   0.889   2.015  0.1200  0.1667 -0.2844
 4259TIP3    H136972   1.065   0.874   2.029  0.3878  1.6150 -0.3547
 4259TIP3    H236973   0.929   0.836   2.083  0.9516 -0.9083 -0.5712
 4260TIP3   OH236974   2.902   6.809   1.089 -0.2873 -0.6554 -0.1573
 4260TIP3    H136975   2.936   6.805   1.000 -0.3205 -0.9761 -0.1577
 4260TIP3    H236976   2.814   6.846   1.080 -0.0110  0.0114 -0.1750
 4261TIP3   OH236977   1.697   3.832   9.391  0.2137  0.1119 -0.7365
 4261TIP3    H136978   1.631   3.866   9.452  0.9167  0.8304 -0.3722
 4261TIP3    H236979   1.749   3.771   9.444  0.5784  0.4416 -0.7094
 4262TIP3   OH236980   0.759   2.703   7.216  0.1867  0.2212 -0.4079
 4262TIP3    H136981   0.684   2.662   7.261 -0.2112  1.2720 -0.0761
 4262TIP3    H236982   0.772   2.650   7.138  0.1203 -0.9364  0.3292
 4263TIP3   OH236983   0.774   0.936   9.811  0.0804  0.2133 -0.4539
 4263TIP3    H136984   0.837   0.906   9.877 -0.6148 -0.2937 -0.0121
 4263TIP3    H236985   0.821   1.006   9.764  0.2369  1.3175  1.2421
 4264TIP3   OH236986   4.274   3.717   1.937 -0.5732  0.1520  0.1395
 4264TIP3    H136987   4.252   3.662   2.013 -0.9653  1.1235  0.7430
 4264TIP3    H236988   4.315   3.656   1.875 -1.4707 -0.9263  0.5680
 4265TIP3   OH236989   7.140   4.333   9.313 -0.1866  0.2843 -0.0924
 4265TIP3    H136990   7.228   4.294   9.318  0.6975  2.0554 -0.8721
 4265TIP3    H236991   7.111   4.315   9.224 -0.2239  0.4779 -0.1196
 4266TIP3   OH236992   7.551   6.397   2.220  0.0076  0.0890  0.0484
 4266TIP3    H136993   7.534   6.333   2.289  0.2178  1.0226  0.9924
 4266TIP3    H236994   7.464   6.429   2.195 -0.2193 -1.4696 -1.3717
 4267TIP3   OH236995   1.537   1.481   1.875  0.3456  0.3079  0.0635
 4267TIP3    H136996   1.592   1.516   1.946 -0.4416  0.8062  0.4399
 4267TIP3    H236997   1.547   1.545   1.804  2.6858 -1.1726 -1.0569
 4268TIP3   OH236998   5.633   4.669   7.809 -0.7063 -0.1537  0.2399
 4268TIP3    H136999   5.624   4.740   7.746  1.7340 -1.3957 -1.6957
 4268TIP3    H237000   5.722   4.678   7.844  0.5753 -3.3095 -1.7052
 4269TIP3   OH237001   6.187   5.197   7.702 -0.4394  0.1928  0.2400
 4269TIP3    H137002   6.263   5.174   7.756 -0.6108  0.0662  0.4260
 4269TIP3    H237003   6.225   5.247   7.629 -0.1250 -0.2610  0.0910
 4270TIP3   OH237004   5.060   1.688   8.813  0.2526 -0.3559 -0.1763
 4270TIP3    H137005   5.127   1.712   8.748  0.5256  0.3511  0.3478
 4270TIP3    H237006   4.978   1.716   8.773  0.3356 -0.6457 -0.5549
 4271TIP3   OH237007   6.061   2.186   9.482 -0.1972 -0.2634  0.1083
 4271TIP3    H137008   6.005   2.152   9.412  0.3244  1.2410 -1.0921
 4271TIP3    H237009   6.023   2.271   9.505  1.1042  0.4187 -0.1674
 4272TIP3   OH237010   0.930   1.133   1.851  0.1989 -0.4247 -0.0025
 4272TIP3    H137011   0.848   1.182   1.841  0.4219 -0.1071 -0.2888
 4272TIP3    H237012   0.905   1.055   1.900 -0.5739 -1.0855 -1.3925
 4273TIP3   OH237013   5.268   4.463   1.607  0.2877  0.2553  0.1133
 4273TIP3    H137014   5.204   4.393   1.595  1.4126 -0.5952 -1.2911
 4273TIP3    H237015   5.228   4.539   1.564  0.1011 -0.2114 -0.5639
 4274TIP3   OH237016   0.139   1.145   9.897  0.0424  0.0192 -0.6081
 4274TIP3    H137017   0.188   1.096   9.963 -0.6632  1.4618  1.0581
 4274TIP3    H237018   0.199   1.214   9.868  0.3309 -0.5758 -1.4792
 4275TIP3   OH237019   0.676   5.468   0.609  0.0719 -0.0792  0.0146
 4275TIP3    H137020   0.581   5.460   0.609 -0.1963  2.0224 -1.1930
 4275TIP3    H237021   0.699   5.488   0.700 -0.5635 -1.1611  0.4227
 4276TIP3   OH237022   3.871   2.369   7.837  0.3133  0.7256  0.1924
 4276TIP3    H137023   3.808   2.299   7.820  1.4986 -0.5052  0.7599
 4276TIP3    H237024   3.914   2.383   7.752  1.2036 -0.3874  0.4435
 4277TIP3   OH237025   2.905   2.447   1.865  0.2300 -0.7288  0.7093
 4277TIP3    H137026   2.903   2.520   1.927 -1.6942  0.3935 -0.5747
 4277TIP3    H237027   2.964   2.475   1.795 -0.4836 -0.3837  0.2318
 4278TIP3   OH237028   1.510   0.106   1.305 -0.6328 -0.1320  0.0511
 4278TIP3    H137029   1.606   0.102   1.304 -0.6530 -1.6441  0.7825
 4278TIP3    H237030   1.488   0.171   1.239  0.9161  0.7743  0.3742
 4279TIP3   OH237031   1.125   2.041   1.926  0.8227 -0.5367  0.0099
 4279TIP3    H137032   1.078   1.996   1.856  0.9415  1.4370 -1.4268
 4279TIP3    H237033   1.092   2.131   1.922  1.5113 -0.1534  1.9159
 4280TIP3   OH237034   4.382   0.826   2.628 -0.6179  0.0365  0.0138
 4280TIP3    H137035   4.407   0.742   2.589 -0.6796  0.0011  0.0511
 4280TIP3    H237036   4.287   0.821   2.637 -0.7698  0.6079 -1.1418
 4281TIP3   OH237037   3.074   5.263   2.140 -0.5072 -0.0591 -0.3679
 4281TIP3    H137038   3.057   5.269   2.234 -1.3962  1.4103 -0.5835
 4281TIP3    H237039   3.105   5.350   2.116  1.0786 -0.8271 -1.2120
 4282TIP3   OH237040   7.301   5.020   2.021  0.0279 -0.0736  0.4550
 4282TIP3    H137041   7.392   4.998   2.040 -0.2140  0.0069  1.8356
 4282TIP3    H237042   7.251   4.980   2.093 -1.1275 -0.8580 -0.7370
 4283TIP3   OH237043   5.625   0.893   9.489 -0.2651 -0.1211  0.0073
 4283TIP3    H137044   5.618   0.858   9.400  1.4359  0.8844 -0.5564
 4283TIP3    H237045   5.682   0.832   9.534  0.0452  0.1515 -0.0168
 4284TIP3   OH237046   3.439   0.350   1.268  0.1905  0.2967 -0.3896
 4284TIP3    H137047   3.488   0.271   1.246  0.3315  0.2240  0.1564
 4284TIP3    H237048   3.383   0.367   1.192 -1.3142 -1.4679  0.2391
 4285TIP3   OH237049   5.887   6.021   1.621  0.5074 -0.2356 -0.0468
 4285TIP3    H137050   5.823   5.977   1.677 -0.0208 -1.8176 -1.7861
 4285TIP3    H237051   5.846   6.021   1.535  0.9001  2.9319 -0.3315
 4286TIP3   OH237052   6.907   1.695   8.567  0.5128  0.5300  0.3936
 4286TIP3    H137053   6.839   1.760   8.584  0.1577  0.3506 -0.2939
 4286TIP3    H237054   6.957   1.690   8.648  0.4265  1.5274  0.5165
 4287TIP3   OH237055   5.343   6.115   1.036  0.5492  0.4094  0.2983
 4287TIP3    H137056   5.307   6.113   1.125  0.0731 -0.1091  0.1036
 4287TIP3    H237057   5.270   6.146   0.982  0.5595 -0.1295 -0.0275
 4288TIP3   OH237058   7.566   3.349   2.698  0.7697  0.5293  0.6495
 4288TIP3    H137059   7.627   3.303   2.641 -0.5476  1.4652 -1.6488
 4288TIP3    H237060   7.492   3.289   2.708 -0.4725  1.5955 -1.4690
 4289TIP3   OH237061   3.789   4.572   1.845 -0.6137  0.1278 -0.2690
 4289TIP3    H137062   3.869   4.540   1.803 -1.1398  0.6216 -1.7219
 4289TIP3    H237063   3.803   4.666   1.856 -0.5487  0.0313  0.5465
 4290TIP3   OH237064   1.484   5.703   1.138 -0.0130 -0.4795  0.2221
 4290TIP3    H137065   1.409   5.764   1.140  1.4914  1.6252 -1.8580
 4290TIP3    H237066   1.446   5.620   1.110 -1.5992  0.5187 -0.7561
 4291TIP3   OH237067   2.176   6.411   8.686 -0.2255 -0.6049 -0.2805
 4291TIP3    H137068   2.089   6.444   8.664 -0.8303 -0.4839  1.9838
 4291TIP3    H237069   2.159   6.334   8.740  1.0089  0.0932  1.1763
 4292TIP3   OH237070   6.530   7.068   0.250  0.0502  0.5244 -0.2480
 4292TIP3    H137071   6.439   7.047   0.272 -0.1896  0.1162 -1.5137
 4292TIP3    H237072   6.557   7.132   0.316 -1.4268  1.2679 -0.3194
 4293TIP3   OH237073   4.375   0.843   1.015 -0.0440 -0.6182  0.0001
 4293TIP3    H137074   4.425   0.922   1.035 -0.9982  0.0575 -0.2173
 4293TIP3    H237075   4.298   0.848   1.072 -1.9690  0.5036 -2.4609
 4294TIP3   OH237076   1.692   2.529   7.311 -0.2003  0.0317  0.0702
 4294TIP3    H137077   1.600   2.507   7.322 -0.2538  0.6372  0.9835
 4294TIP3    H237078   1.692   2.606   7.254 -0.1036 -1.2786 -1.7951
 4295TIP3   OH237079   1.011   1.609   8.927  0.0690  0.0807 -0.3839
 4295TIP3    H137080   1.050   1.576   8.846  0.4622 -1.1961  0.2804
 4295TIP3    H237081   0.952   1.539   8.955  0.2807  0.2976  0.6557
 4296TIP3   OH237082   4.267   3.403   9.655 -0.0655  0.0277  0.2048
 4296TIP3    H137083   4.349   3.402   9.704 -0.0691 -1.4563  0.2503
 4296TIP3    H237084   4.270   3.484   9.604  0.5809  0.8926  1.5733
 4297TIP3   OH237085   4.892   2.488   7.615 -0.2751 -0.8144 -0.2994
 4297TIP3    H137086   4.807   2.456   7.585 -0.7440 -0.3271  0.4559
 4297TIP3    H237087   4.879   2.582   7.626  0.6013 -0.6108 -0.9287
 4298TIP3   OH237088   6.652   6.595   1.708 -0.4463  0.0883 -0.2432
 4298TIP3    H137089   6.695   6.514   1.734 -1.1218 -0.2278 -0.0952
 4298TIP3    H237090   6.657   6.651   1.785 -0.0449  0.1606 -0.3218
 4299TIP3   OH237091   6.121   7.440   2.050 -0.2688 -0.0909 -0.0240
 4299TIP3    H137092   6.124   7.506   1.981 -0.2468 -0.3580 -0.2852
 4299TIP3    H237093   6.073   7.481   2.121 -1.4340 -0.2588 -0.6847
 4300TIP3   OH237094   1.224   3.385   8.278 -0.3892 -0.4030  0.7802
 4300TIP3    H137095   1.180   3.335   8.346 -1.1952 -1.4719 -0.4735
 4300TIP3    H237096   1.165   3.458   8.260 -0.5279 -0.5245  0.7354
 4301TIP3   OH237097   3.977   6.613   9.928  0.0367  0.2653 -0.2412
 4301TIP3    H137098   3.986   6.526   9.889  1.2600  0.4830 -0.4783
 4301TIP3    H237099   3.989   6.673   9.855 -2.9880  0.6756 -0.5262
 4302TIP3   OH237100   2.436   7.603   2.433 -0.0902 -0.2767 -0.0531
 4302TIP3    H137101   2.446   7.692   2.465 -1.2984  0.4226 -1.4959
 4302TIP3    H237102   2.343   7.584   2.443  0.0156 -1.0923 -0.4892
 4303TIP3   OH237103   2.000   5.925   8.214  0.4814 -0.1840 -0.5064
 4303TIP3    H137104   1.934   5.870   8.255  0.3469  0.7702  0.6258
 4303TIP3    H237105   1.983   5.918   8.120  0.8280 -2.4786 -0.4673
 4304TIP3   OH237106   6.549   2.843   7.777  0.2069  0.1982  0.2599
 4304TIP3    H137107   6.560   2.839   7.872  1.2433  0.0502  0.1474
 4304TIP3    H237108   6.585   2.761   7.745  0.6466  0.6047 -0.3235
 4305TIP3   OH237109   0.193   4.552   9.825 -0.3031  0.2658 -0.4460
 4305TIP3    H137110   0.280   4.518   9.845 -0.2548  0.7205  0.1655
 4305TIP3    H237111   0.159   4.581   9.910 -1.7024 -1.3717 -0.3963
 4306TIP3   OH237112   2.190   1.247   7.758 -0.1289  0.1778  0.4288
 4306TIP3    H137113   2.209   1.333   7.795 -1.3342  0.1058  1.2994
 4306TIP3    H237114   2.275   1.205   7.747  0.6109  1.9684 -1.3161
 4307TIP3   OH237115   3.932   6.958   8.596  0.0402  0.6403  0.4514
 4307TIP3    H137116   3.900   7.025   8.657 -1.1470 -0.1659  0.7408
 4307TIP3    H237117   3.938   7.003   8.512 -1.0169  1.0676  0.5835
 4308TIP3   OH237118   3.943   6.469   1.728 -0.0536 -0.4765  0.0588
 4308TIP3    H137119   3.938   6.407   1.655 -2.0025 -0.9378  0.5361
 4308TIP3    H237120   3.917   6.418   1.805 -0.9111  0.7154  0.5963
 4309TIP3   OH237121   0.289   3.735   9.232 -0.1131 -0.1909  0.3847
 4309TIP3    H137122   0.265   3.733   9.140 -0.5560 -0.8787  0.5091
 4309TIP3    H237123   0.384   3.721   9.233 -0.3053 -1.5740  0.1030
 4310TIP3   OH237124   2.002   0.039   9.840 -0.5213  0.2731  0.5692
 4310TIP3    H137125   2.069  -0.024   9.868 -0.7352 -0.1787  0.0740
 4310TIP3    H237126   2.009   0.110   9.904 -0.6133 -0.4767  1.4464
 4311TIP3   OH237127   7.579   4.596   0.999 -0.2292  0.1317  0.0509
 4311TIP3    H137128   7.604   4.670   1.053  1.7972  0.9890 -1.9033
 4311TIP3    H237129   7.661   4.563   0.964 -1.4113 -0.2871 -2.5542
 4312TIP3   OH237130   2.159   7.316   2.369 -0.5006  0.2571  0.3188
 4312TIP3    H137131   2.089   7.375   2.344 -1.9148 -0.7051  1.8115
 4312TIP3    H237132   2.203   7.294   2.287 -3.0585 -0.4905 -0.9292
 4313TIP3   OH237133   1.557   0.729   9.958 -0.5616 -0.1421  0.2015
 4313TIP3    H137134   1.641   0.729   9.912  1.0095  2.0186  2.7971
 4313TIP3    H237135   1.570   0.667  10.030 -1.5304 -0.4411  0.1299
 4314TIP3   OH237136   7.542   5.573   1.141 -0.3144  0.3803 -0.5934
 4314TIP3    H137137   7.490   5.645   1.105 -0.9001  0.2177 -0.0953
 4314TIP3    H237138   7.528   5.501   1.081 -1.7606 -0.0678  0.2320
 4315TIP3   OH237139   1.413   6.202   7.106 -0.2020  0.0422  0.1372
 4315TIP3    H137140   1.358   6.138   7.150 -1.7046  0.4516 -1.0600
 4315TIP3    H237141   1.374   6.287   7.130 -0.1134  0.3387 -0.7508
 4316TIP3   OH237142   4.549   1.293   7.546 -0.1449  0.2255 -0.4238
 4316TIP3    H137143   4.595   1.322   7.625  0.3450 -0.0363 -0.6053
 4316TIP3    H237144   4.587   1.346   7.475 -0.7293  0.6063 -0.4575
 4317TIP3   OH237145   3.584   0.296   2.472  0.0430  0.4839  0.0997
 4317TIP3    H137146   3.657   0.358   2.477 -0.5658  1.3264 -0.9483
 4317TIP3    H237147   3.603   0.242   2.395  0.6321 -0.7647  1.0725
 4318TIP3   OH237148   0.473   1.224   7.851  0.0605  0.3386 -0.1846
 4318TIP3    H137149   0.522   1.237   7.932 -0.9575  2.7677  0.1126
 4318TIP3    H237150   0.455   1.313   7.819 -0.5358 -0.5424 -2.4887
 4319TIP3   OH237151   7.140   3.787   7.908 -0.0507  0.2238 -0.1250
 4319TIP3    H137152   7.222   3.766   7.954 -0.6775  0.3450  1.0766
 4319TIP3    H237153   7.138   3.882   7.905 -0.1203  0.2194 -0.1981
 4320TIP3   OH237154   6.404   4.857   0.097 -0.0673 -0.9010  0.1384
 4320TIP3    H137155   6.397   4.841   0.003 -0.2520 -1.2984  0.2179
 4320TIP3    H237156   6.352   4.788   0.137  0.3681 -0.9988  0.5492
 4321TIP3   OH237157   2.099   3.048   2.163  0.7206 -0.1545  0.0714
 4321TIP3    H137158   2.182   3.083   2.198  1.1410 -1.4935  0.4541
 4321TIP3    H237159   2.042   3.041   2.239  1.2140 -1.8731  0.3235
 4322TIP3   OH237160   3.799   7.056   9.702 -0.2854 -0.0811 -0.5294
 4322TIP3    H137161   3.822   7.099   9.619  0.5162 -0.3838 -0.4708
 4322TIP3    H237162   3.876   7.003   9.724 -0.2131  0.5147  0.7578
 4323TIP3   OH237163   3.896   2.524   0.101 -0.5466  0.3368  0.5353
 4323TIP3    H137164   3.928   2.596   0.047  0.6475 -0.2055  0.4789
 4323TIP3    H237165   3.927   2.445   0.057 -2.3306 -0.2548  0.2885
 4324TIP3   OH237166   7.571   5.601   0.417  0.0903  0.3187 -0.2749
 4324TIP3    H137167   7.586   5.673   0.356 -1.3213 -0.0620 -1.1432
 4324TIP3    H237168   7.583   5.639   0.504  0.0411  1.4318 -0.7418
 4325TIP3   OH237169   0.520   7.160   0.696 -0.7745 -0.0041  0.1621
 4325TIP3    H137170   0.434   7.181   0.657 -0.5223  1.3881  0.3066
 4325TIP3    H237171   0.583   7.199   0.635 -0.2161 -1.2105 -0.0550
 4326TIP3   OH237172   6.158   3.854   2.035 -0.3816  0.0218  0.0707
 4326TIP3    H137173   6.105   3.798   2.091  2.0925 -1.7727  0.8230
 4326TIP3    H237174   6.218   3.898   2.096  0.9643 -0.3555 -0.9363
 4327TIP3   OH237175   2.808   5.966   0.491 -0.2836 -0.0467  0.1987
 4327TIP3    H137176   2.767   6.049   0.463  0.4023 -0.0803 -0.9491
 4327TIP3    H237177   2.894   5.992   0.523 -0.4572 -0.2104  0.8179
 4328TIP3   OH237178   0.862   4.388   9.409  0.0374  0.1720  0.0310
 4328TIP3    H137179   0.802   4.333   9.458  1.1650 -0.6650  0.4975
 4328TIP3    H237180   0.931   4.329   9.379 -0.5583  0.6405 -2.5525
 4329TIP3   OH237181   4.146   2.333   0.243  0.0435  0.1934 -0.0862
 4329TIP3    H137182   4.073   2.337   0.304 -0.4112  2.0944 -0.6827
 4329TIP3    H237183   4.224   2.343   0.298 -0.3411  1.5131  0.2479
 4330TIP3   OH237184   4.569   4.365   9.417  0.0983  0.4857 -0.2549
 4330TIP3    H137185   4.611   4.390   9.499  1.2317 -0.4524 -0.5246
 4330TIP3    H237186   4.500   4.304   9.442  1.8470 -1.5255 -0.1256
 4331TIP3   OH237187   0.727   7.016   8.808 -0.1233 -0.1228 -0.1254
 4331TIP3    H137188   0.637   7.013   8.842 -1.1386  1.2525 -2.4395
 4331TIP3    H237189   0.733   6.938   8.752  0.2295 -0.3430  0.2145
 4332TIP3   OH237190   1.513   5.059   7.770 -0.1907  0.2623 -0.0975
 4332TIP3    H137191   1.545   5.026   7.686 -1.2000  0.2482 -0.4792
 4332TIP3    H237192   1.418   5.052   7.765 -0.3665  1.8760  0.3793
 4333TIP3   OH237193   3.630   1.766   1.753 -0.1480 -0.4092 -0.3251
 4333TIP3    H137194   3.675   1.833   1.805 -2.1506  0.6401  0.1553
 4333TIP3    H237195   3.664   1.779   1.664  2.0269 -1.0833  0.3354
 4334TIP3   OH237196   7.415   5.134   1.306  0.1393  0.0194 -0.0461
 4334TIP3    H137197   7.477   5.067   1.277 -0.7517 -1.5205  1.3853
 4334TIP3    H237198   7.467   5.214   1.310  1.6168 -0.8681 -0.4482
 4335TIP3   OH237199   0.130   5.238   7.551  0.6294 -0.5450  0.1798
 4335TIP3    H137200   0.086   5.161   7.588 -2.5589 -0.0045 -1.9972
 4335TIP3    H237201   0.076   5.312   7.579  0.2763  0.2298 -2.2676
 4336TIP3   OH237202   1.784   3.479   8.277 -0.2668 -0.3764 -0.4268
 4336TIP3    H137203   1.744   3.393   8.261 -1.3611 -0.2836  1.4999
 4336TIP3    H237204   1.823   3.471   8.364  0.1939  0.8909 -0.5029
 4337TIP3   OH237205   5.524   6.373   0.305 -0.2293  0.6723 -0.4246
 4337TIP3    H137206   5.617   6.382   0.323 -0.3121 -0.1483  0.5530
 4337TIP3    H237207   5.516   6.288   0.262 -0.4302  1.1385 -1.3181
 4338TIP3   OH237208   7.571   3.267   0.504  0.1477 -0.2290 -0.2546
 4338TIP3    H137209   7.511   3.341   0.514 -0.7135 -0.7540 -1.3411
 4338TIP3    H237210   7.650   3.306   0.464 -0.1251  0.1813 -0.4074
 4339TIP3   OH237211   2.589   3.255   0.890 -0.3667 -0.3757  0.8270
 4339TIP3    H137212   2.594   3.160   0.901  0.1811 -0.4749 -0.2288
 4339TIP3    H237213   2.504   3.270   0.849  0.6411 -0.6915 -1.5367
 4340TIP3   OH237214   3.856   5.558   1.229 -0.0863 -0.8158 -0.3526
 4340TIP3    H137215   3.831   5.648   1.248 -1.3788 -1.1684 -0.3010
 4340TIP3    H237216   3.827   5.543   1.139  1.6778 -0.6652 -0.9897
 4341TIP3   OH237217   2.919   6.951   8.925 -0.0788  0.0271 -0.2779
 4341TIP3    H137218   2.913   6.983   9.015  0.9427 -0.6855  0.0640
 4341TIP3    H237219   2.900   7.028   8.871  0.1044  0.6565  0.5358
 4342TIP3   OH237220   1.828   0.276   8.944  0.5057  0.3451  0.5233
 4342TIP3    H137221   1.797   0.291   8.855 -2.1350 -1.4810  1.0132
 4342TIP3    H237222   1.846   0.363   8.979 -0.6354  1.2556 -1.0564
 4343TIP3   OH237223   4.656   3.430   0.411 -0.0490 -0.6227 -0.4908
 4343TIP3    H137224   4.737   3.480   0.395  0.5178 -0.7671  1.5883
 4343TIP3    H237225   4.685   3.354   0.461 -1.3400 -1.3758 -0.8420
 4344TIP3   OH237226   3.519   4.345   6.891 -0.1537 -0.9207 -0.3739
 4344TIP3    H137227   3.577   4.288   6.940 -1.3912 -1.3254  0.6719
 4344TIP3    H237228   3.578   4.400   6.839  1.4443  1.1045  3.1709
 4345TIP3   OH237229   3.138   4.819   0.416  0.0734 -0.2805 -0.5053
 4345TIP3    H137230   3.105   4.898   0.459  0.4273 -0.0752 -0.6012
 4345TIP3    H237231   3.142   4.843   0.323  2.2196  0.3543 -0.3111
 4346TIP3   OH237232   3.138   2.563   7.626  0.2671 -0.7158 -0.4292
 4346TIP3    H137233   3.126   2.545   7.720 -0.6914 -2.1287 -0.7913
 4346TIP3    H237234   3.151   2.657   7.622  1.4424 -0.7557  1.2337
 4347TIP3   OH237235   0.233   6.738   1.258 -0.3225 -0.2161 -0.5090
 4347TIP3    H137236   0.267   6.713   1.173 -1.5553 -1.5139 -0.6545
 4347TIP3    H237237   0.248   6.661   1.314 -2.3907 -0.6329 -0.4377
 4348TIP3   OH237238   5.444   5.630   8.657  0.0302 -0.0208  0.2602
 4348TIP3    H137239   5.450   5.647   8.563  1.5068 -0.1976  0.3015
 4348TIP3    H237240   5.432   5.716   8.696 -0.7767  0.0355 -0.0967
 4349TIP3   OH237241   2.617   1.848   1.343 -0.8871 -0.0826  0.1672
 4349TIP3    H137242   2.624   1.925   1.287 -1.4932 -0.0265  0.1606
 4349TIP3    H237243   2.680   1.864   1.413  0.0753 -0.2811 -0.6301
 4350TIP3   OH237244   5.770   6.670   1.115  0.0282 -0.7059 -0.1484
 4350TIP3    H137245   5.698   6.732   1.109  0.9835  0.3579 -1.3638
 4350TIP3    H237246   5.757   6.625   1.198 -1.9517 -0.4783 -0.2982
 4351TIP3   OH237247   6.899   5.016   1.649 -0.3358  0.3344  0.0972
 4351TIP3    H137248   6.850   4.951   1.599  0.3571 -0.5884  0.6036
 4351TIP3    H237249   6.887   5.097   1.599  2.2617 -0.9633 -3.0082
 4352TIP3   OH237250   5.411   4.437   9.352 -0.2238 -0.1601  0.3214
 4352TIP3    H137251   5.350   4.369   9.323  0.8127 -1.6130  1.3859
 4352TIP3    H237252   5.456   4.464   9.272 -0.5948 -0.7997 -0.1148
 4353TIP3   OH237253   0.094   2.653   3.061 -0.4824  0.3770 -0.2232
 4353TIP3    H137254   0.007   2.690   3.073 -0.8040 -0.4106 -0.0633
 4353TIP3    H237255   0.121   2.683   2.974 -1.7456 -0.9888 -1.1167
 4354TIP3   OH237256   1.341   4.557   9.048 -0.2708 -0.0954 -0.2202
 4354TIP3    H137257   1.251   4.524   9.048  0.0015 -0.9554 -2.1758
 4354TIP3    H237258   1.393   4.487   9.011  1.3850  0.1116  1.5412
 4355TIP3   OH237259   5.419   1.205   8.178 -0.5948 -0.3116 -0.2401
 4355TIP3    H137260   5.451   1.163   8.098 -1.0063 -2.7196  0.7651
 4355TIP3    H237261   5.461   1.156   8.249  0.5943  2.4150  1.1061
 4356TIP3   OH237262   3.330   7.327   9.892 -0.0697 -0.3744 -0.2917
 4356TIP3    H137263   3.399   7.262   9.897  0.9233  0.6960  0.3934
 4356TIP3    H237264   3.335   7.360   9.802  0.1552 -0.4608 -0.3106
 4357TIP3   OH237265   0.948   6.921   9.464  0.0952  0.4009  0.2571
 4357TIP3    H137266   1.037   6.886   9.464 -0.5827 -1.4534 -0.1153
 4357TIP3    H237267   0.909   6.888   9.382 -1.1802  0.4411  0.8161
 4358TIP3   OH237268   1.923   3.761   1.809 -0.4141 -0.1776  0.0961
 4358TIP3    H137269   1.965   3.828   1.755 -2.3099  1.1287  0.1336
 4358TIP3    H237270   1.974   3.759   1.890  0.3765  0.3501 -0.3756
 4359TIP3   OH237271   6.571   3.701   0.675 -0.1393 -0.1104  0.1447
 4359TIP3    H137272   6.618   3.618   0.665  0.3281  0.3188 -1.7330
 4359TIP3    H237273   6.580   3.743   0.589 -0.6790  1.7200  0.9489
 4360TIP3   OH237274   6.691   1.129   1.800  0.1506 -0.4769 -0.0215
 4360TIP3    H137275   6.702   1.096   1.711 -1.5655 -0.6853 -0.1969
 4360TIP3    H237276   6.648   1.214   1.789  1.1815  0.1378  0.5672
 4361TIP3   OH237277   0.918   5.542   0.532 -0.4814  0.4703  0.2559
 4361TIP3    H137278   0.875   5.458   0.518  0.1739  0.5735 -3.4439
 4361TIP3    H237279   0.848   5.600   0.562 -1.8349 -0.4973 -0.8938
 4362TIP3   OH237280   6.883   5.798   1.082  0.0411 -0.0251 -0.1066
 4362TIP3    H137281   6.893   5.729   1.015 -0.9764  0.5007 -0.8237
 4362TIP3    H237282   6.816   5.765   1.141  0.1431  0.0020  0.0260
 4363TIP3   OH237283   2.635   1.331   9.847 -0.3625  0.4972  0.1422
 4363TIP3    H137284   2.597   1.264   9.904  0.9739 -0.0346  0.4483
 4363TIP3    H237285   2.715   1.291   9.813  0.1619  1.7235 -0.1190
 4364TIP3   OH237286   6.450   5.919   9.975 -0.2001 -0.2608  0.2411
 4364TIP3    H137287   6.500   5.852  10.022 -0.5699  1.0509  2.6682
 4364TIP3    H237288   6.431   5.985  10.041  1.3438  3.0164 -2.3273
 4365TIP3   OH237289   2.206   6.749   0.848  0.2698 -0.2490 -0.1572
 4365TIP3    H137290   2.281   6.727   0.792  0.8933  0.9814  0.1488
 4365TIP3    H237291   2.147   6.799   0.791  1.1563  1.4815  0.3467
 4366TIP3   OH237292   6.883   0.302   1.988 -0.3971  0.3846  0.3390
 4366TIP3    H137293   6.945   0.232   1.965  0.1207  0.9699 -0.1046
 4366TIP3    H237294   6.812   0.258   2.033 -0.6889 -0.6152 -1.0328
 4367TIP3   OH237295   1.392   5.975   8.193  0.0141 -0.2635  0.0822
 4367TIP3    H137296   1.348   6.059   8.203 -1.2808 -0.5155 -2.6614
 4367TIP3    H237297   1.485   5.997   8.194 -0.2592  0.9880  0.6899
 4368TIP3   OH237298   5.820   3.859   0.605  0.1058 -0.0117  0.5741
 4368TIP3    H137299   5.818   3.775   0.651  1.4970 -1.3502 -1.6360
 4368TIP3    H237300   5.864   3.918   0.666  1.7057 -1.6533  1.1115
 4369TIP3   OH237301   3.041   2.990   9.306 -0.4073  0.3806  0.3389
 4369TIP3    H137302   3.075   2.949   9.226 -0.2643  0.2869  0.4466
 4369TIP3    H237303   2.980   3.057   9.275  1.1131  1.7264  0.0591
 4370TIP3   OH237304   1.143   5.199   0.407 -0.0744  0.4577  0.2336
 4370TIP3    H137305   1.058   5.240   0.419  0.1044  0.4993  1.4116
 4370TIP3    H237306   1.124   5.105   0.401 -0.0115  0.1553  3.3182
 4371TIP3   OH237307   1.450   3.447   0.210  0.6370  0.4421 -0.1416
 4371TIP3    H137308   1.544   3.451   0.189  0.2718  1.9579 -1.6291
 4371TIP3    H237309   1.420   3.367   0.167  1.0790  0.3884 -0.3640
 4372TIP3   OH237310   0.207   5.292   0.844  0.6774  0.6736 -0.0471
 4372TIP3    H137311   0.139   5.346   0.884 -0.0754 -0.7415  0.6484
 4372TIP3    H237312   0.166   5.257   0.765 -0.2841 -2.0272  1.5497
 4373TIP3   OH237313   4.316   5.640   2.730 -0.2318 -0.2637  0.1114
 4373TIP3    H137314   4.381   5.652   2.799  0.6043 -1.3851 -0.4440
 4373TIP3    H237315   4.260   5.717   2.736  0.2805  0.0359  1.5364
 4374TIP3   OH237316   4.319   0.501   8.359  0.2704 -0.1695  0.0291
 4374TIP3    H137317   4.340   0.460   8.275  0.7222 -1.4644  0.7459
 4374TIP3    H237318   4.227   0.480   8.375 -0.1276  0.9699 -0.6009
 4375TIP3   OH237319   1.778   3.980   8.183 -0.0526 -0.1867 -0.3313
 4375TIP3    H137320   1.698   4.031   8.169  0.4008  0.0849 -2.2298
 4375TIP3    H237321   1.848   4.033   8.145  1.1308 -0.2819  1.5547
 4376TIP3   OH237322   3.404   0.189   1.032 -0.2234 -0.3961 -0.1021
 4376TIP3    H137323   3.494   0.155   1.031 -0.1375 -0.3556  2.1092
 4376TIP3    H237324   3.393   0.230   0.946  2.4005  0.9380  0.1033
 4377TIP3   OH237325   2.135   3.170   7.108  0.0628  0.0428 -0.8623
 4377TIP3    H137326   2.160   3.083   7.140  0.5686  0.8988  1.2451
 4377TIP3    H237327   2.217   3.208   7.076  0.0958  0.2247 -0.5636
 4378TIP3   OH237328   2.974   3.723   0.380  0.0916  0.0610 -0.1753
 4378TIP3    H137329   2.925   3.768   0.449  0.9718 -0.3758  0.7498
 4378TIP3    H237330   2.988   3.790   0.313 -0.3435  0.6215  0.2825
 4379TIP3   OH237331   3.551   1.323   9.177  0.3942 -0.8371 -0.1560
 4379TIP3    H137332   3.631   1.358   9.217  0.6855 -1.0191 -0.5713
 4379TIP3    H237333   3.485   1.389   9.194  0.7571 -0.4421 -0.2591
 4380TIP3   OH237334   4.267   7.237   7.269  0.2175  0.0693 -0.4817
 4380TIP3    H137335   4.300   7.164   7.216  0.5645  0.9880 -1.5666
 4380TIP3    H237336   4.326   7.310   7.249  0.8451  0.2478  1.7956
 4381TIP3   OH237337   3.300   2.865   8.452 -0.3379 -0.0609 -0.1400
 4381TIP3    H137338   3.216   2.893   8.488  0.3268  0.2638  1.2486
 4381TIP3    H237339   3.342   2.946   8.423 -0.3540 -0.1800 -0.5012
 4382TIP3   OH237340   5.234   1.661   1.991  0.6462  0.3015 -0.4859
 4382TIP3    H137341   5.299   1.625   2.052  1.0308  1.4420 -0.2019
 4382TIP3    H237342   5.282   1.674   1.909  1.1796  2.3623  0.0853
 4383TIP3   OH237343   6.106   0.330   9.473  0.4530 -0.3905 -0.2231
 4383TIP3    H137344   6.148   0.255   9.515 -0.2357 -1.8219 -1.9280
 4383TIP3    H237345   6.175   0.395   9.465  1.4178 -1.3407  0.1630
 4384TIP3   OH237346   2.199   0.678   1.731  0.4728 -0.5539  0.4419
 4384TIP3    H137347   2.225   0.711   1.645 -0.0022 -1.5597 -0.1034
 4384TIP3    H237348   2.194   0.583   1.720 -0.4600 -0.6261  1.3391
 4385TIP3   OH237349   0.875   4.629   0.005  0.1329 -0.3791  0.0035
 4385TIP3    H137350   0.847   4.628  -0.087  2.4528 -0.7329 -0.7673
 4385TIP3    H237351   0.800   4.664   0.052 -2.0115 -2.3897 -1.6927
 4386TIP3   OH237352   4.115   4.358   8.225 -0.3802 -0.7894 -0.1977
 4386TIP3    H137353   4.072   4.395   8.148  0.8530 -0.3008 -0.6602
 4386TIP3    H237354   4.043   4.316   8.274 -1.6187  1.0643 -0.3134
 4387TIP3   OH237355   1.092   4.729   7.144 -0.4009 -0.1174  0.2512
 4387TIP3    H137356   1.097   4.809   7.092 -2.4608 -0.8830 -1.2875
 4387TIP3    H237357   1.000   4.702   7.138  0.0643 -2.1983  1.3474
 4388TIP3   OH237358   7.475   2.237   1.648 -0.4140 -0.5115 -0.0667
 4388TIP3    H137359   7.549   2.288   1.682  0.9320 -1.5972 -1.2497
 4388TIP3    H237360   7.425   2.299   1.596 -0.1512  0.1659  0.4696
 4389TIP3   OH237361   3.332   5.612   1.056 -0.1196  0.1580 -0.0522
 4389TIP3    H137362   3.285   5.626   0.974 -0.6440 -0.1938  0.1871
 4389TIP3    H237363   3.285   5.666   1.120 -0.7200 -0.8413  0.3684
 4390TIP3   OH237364   3.784   6.354   1.000  0.6775  0.1104  0.0667
 4390TIP3    H137365   3.809   6.263   0.984  1.0980  0.1639  0.3884
 4390TIP3    H237366   3.742   6.382   0.919  2.3132  0.2300 -0.7925
 4391TIP3   OH237367   1.203   5.013   7.732 -0.0821 -0.2402 -0.1247
 4391TIP3    H137368   1.191   4.962   7.652 -3.0949 -1.1193  0.7587
 4391TIP3    H237369   1.215   4.948   7.801 -0.4077  0.3841  0.5384
 4392TIP3   OH237370   1.884   2.520   9.857 -0.4608 -0.3653  0.3352
 4392TIP3    H137371   1.799   2.538   9.817 -0.4983  0.9775  0.9756
 4392TIP3    H237372   1.867   2.522   9.951  0.0324 -1.4178  0.4613
 4393TIP3   OH237373   7.409   7.666   9.395 -0.3741  0.1822 -0.2544
 4393TIP3    H137374   7.481   7.603   9.406 -0.6338 -0.2883 -1.1750
 4393TIP3    H237375   7.425   7.732   9.463  2.6817  1.7529 -2.2862
 4394TIP3   OH237376   5.101   3.516   8.205  0.2831  0.1376 -0.2948
 4394TIP3    H137377   5.151   3.508   8.123  0.1841 -1.1407 -0.2495
 4394TIP3    H237378   5.165   3.548   8.269  0.4094  0.9631 -0.8210
 4395TIP3   OH237379   5.745   2.060   1.689 -0.1461  0.5197 -0.2999
 4395TIP3    H137380   5.802   1.985   1.704 -1.7366 -1.0049 -1.4713
 4395TIP3    H237381   5.798   2.136   1.713  2.1103 -0.8525 -0.7171
 4396TIP3   OH237382   3.108   0.985   0.903 -0.3535  0.3045  0.3976
 4396TIP3    H137383   3.152   1.027   0.829 -0.4162 -0.4610 -0.0809
 4396TIP3    H237384   3.111   1.051   0.973  0.9633  0.5064  0.1732
 4397TIP3   OH237385   1.845   7.301   9.845 -0.0385  0.4443  0.4581
 4397TIP3    H137386   1.911   7.325   9.780 -0.4801  2.0098  0.5404
 4397TIP3    H237387   1.765   7.289   9.795  0.1884 -1.0094  0.4135
 4398TIP3   OH237388   6.776   6.247   9.810  0.3168  0.0150  0.4965
 4398TIP3    H137389   6.706   6.201   9.764 -0.4708  2.2336 -0.6871
 4398TIP3    H237390   6.851   6.241   9.752  0.6809 -1.0365  1.0528
 4399TIP3   OH237391   3.618   6.928   9.494  0.0774 -0.2881  0.0940
 4399TIP3    H137392   3.672   6.964   9.564 -0.6932 -0.2097  0.6617
 4399TIP3    H237393   3.539   6.896   9.538 -0.4649 -0.1474 -0.7465
 4400TIP3   OH237394   1.211   3.078   8.168  0.1288  0.3332 -0.3192
 4400TIP3    H137395   1.266   3.004   8.143 -0.0235 -0.1467  0.6969
 4400TIP3    H237396   1.238   3.098   8.258 -0.2366  1.1389 -0.3830
 4401TIP3   OH237397   4.653   0.085   7.634  0.4339  0.1693 -0.1947
 4401TIP3    H137398   4.611   0.170   7.627 -0.5570 -0.1329  1.5277
 4401TIP3    H237399   4.746   0.102   7.620  0.1885  1.4493 -0.3334
 4402TIP3   OH237400   0.093   1.179   8.064 -0.4414 -0.0529 -0.7272
 4402TIP3    H137401   0.029   1.226   8.119  0.8962 -0.4269  1.2451
 4402TIP3    H237402   0.123   1.245   8.001 -0.7533  0.9055  0.0950
 4403TIP3   OH237403   7.238   5.362   1.671 -0.0755 -0.1694 -0.5208
 4403TIP3    H137404   7.256   5.418   1.747  0.4641 -0.9990 -0.0194
 4403TIP3    H237405   7.210   5.279   1.709  2.9852 -1.5958 -1.0889
 4404TIP3   OH237406   2.249   0.942   0.484 -0.5339  0.0851 -0.0602
 4404TIP3    H137407   2.336   0.909   0.506 -0.4202  0.6389  0.3423
 4404TIP3    H237408   2.189   0.877   0.518 -0.3378  0.5708  1.2764
 4405TIP3   OH237409   3.377   0.436   8.849  0.0878  0.1105  0.9604
 4405TIP3    H137410   3.352   0.343   8.846 -0.4190  0.2119 -2.3249
 4405TIP3    H237411   3.299   0.482   8.819  1.3652  1.2295 -0.8626
 4406TIP3   OH237412   2.204   2.012   7.381  0.1683 -0.4795 -0.2266
 4406TIP3    H137413   2.138   2.052   7.438 -1.6960 -1.4452 -1.5760
 4406TIP3    H237414   2.223   2.079   7.315 -0.1703 -0.5167 -0.3642
 4407TIP3   OH237415   7.243   0.193   1.719 -0.0891 -0.0014 -0.3820
 4407TIP3    H137416   7.297   0.272   1.716 -0.7597  0.4387 -1.3906
 4407TIP3    H237417   7.163   0.217   1.672 -0.1937 -1.3596 -0.9329
 4408TIP3   OH237418   3.510   7.237   0.274 -0.1946 -0.2275  0.3042
 4408TIP3    H137419   3.494   7.310   0.335  0.4327  0.1006  0.0854
 4408TIP3    H237420   3.501   7.159   0.328  0.3718  0.0593  0.8259
 4409TIP3   OH237421   2.213   6.204   3.272 -0.2662 -0.1868 -0.1178
 4409TIP3    H137422   2.175   6.282   3.232 -0.0540 -0.2205 -0.3897
 4409TIP3    H237423   2.138   6.148   3.291 -0.2835 -0.7473 -1.7014
 4410TIP3   OH237424   5.194   4.956   8.136 -0.7520  0.2881  0.3488
 4410TIP3    H137425   5.238   4.897   8.197  0.3289  0.5619 -0.1447
 4410TIP3    H237426   5.264   4.991   8.082 -1.6593  0.2020 -0.9349
 4411TIP3   OH237427   4.810   7.438   8.079  0.0974  0.4794  0.8447
 4411TIP3    H137428   4.843   7.384   8.008  0.3585  0.1114  1.2486
 4411TIP3    H237429   4.758   7.506   8.035 -0.1227 -0.0164  0.3350
 4412TIP3   OH237430   1.059   2.956   1.451 -0.1907 -0.4233 -0.0869
 4412TIP3    H137431   1.143   2.956   1.405  0.5971  0.4262  1.2843
 4412TIP3    H237432   1.018   3.039   1.426 -1.9998 -2.0114 -3.0083
 4413TIP3   OH237433   3.721   0.036   9.646 -0.2487  0.1107  0.5447
 4413TIP3    H137434   3.681   0.097   9.584  3.8888  1.6172 -0.9956
 4413TIP3    H237435   3.753   0.092   9.717  1.9699 -0.4065  0.0341
 4414TIP3   OH237436   1.120   2.566   8.464 -0.1979  0.2772 -0.0398
 4414TIP3    H137437   1.130   2.650   8.418  0.4811 -0.8016 -1.9806
 4414TIP3    H237438   1.197   2.516   8.438 -1.9247 -1.9553 -1.1874
 4415TIP3   OH237439   6.530   6.887   8.365  0.2105  0.0172  0.1417
 4415TIP3    H137440   6.464   6.833   8.408  1.2660 -0.1820  1.5771
 4415TIP3    H237441   6.504   6.887   8.273 -1.2878 -0.7619  0.5274
 4416TIP3   OH237442   0.082   1.639   9.311  0.3023  0.4505 -0.1853
 4416TIP3    H137443   0.160   1.609   9.358 -0.2475 -0.9875 -0.1452
 4416TIP3    H237444   0.114   1.707   9.252  1.3328  0.9168  0.8684
 4417TIP3   OH237445   6.553   5.610   8.180  0.2375 -0.0417  0.2875
 4417TIP3    H137446   6.592   5.589   8.095  0.1944  0.1787  0.2130
 4417TIP3    H237447   6.484   5.545   8.192  0.4079 -0.2272  0.2673
 4418TIP3   OH237448   2.054   0.495   0.464 -0.5177 -0.3889  0.8292
 4418TIP3    H137449   1.959   0.497   0.457 -0.6300  2.3996  2.0230
 4418TIP3    H237450   2.085   0.514   0.376 -1.1505  1.0043  0.8858
 4419TIP3   OH237451   2.971   1.351   1.930  0.2516  0.0599 -0.1943
 4419TIP3    H137452   3.058   1.347   1.889  0.3925 -0.2622  0.1341
 4419TIP3    H237453   2.980   1.300   2.010 -0.1248  0.3899  0.0591
 4420TIP3   OH237454   5.677   5.627   1.673 -0.0204  0.2386 -0.4401
 4420TIP3    H137455   5.584   5.612   1.689  0.0629  1.6452  1.9662
 4420TIP3    H237456   5.721   5.553   1.715 -0.0113  0.7954  0.5661
 4421TIP3   OH237457   4.362   6.606   1.077 -0.3498  0.5911  1.0488
 4421TIP3    H137458   4.448   6.630   1.112 -0.3556 -0.2374  1.6661
 4421TIP3    H237459   4.309   6.587   1.155 -0.2177 -1.8123  0.6241
 4422TIP3   OH237460   3.732   0.197   7.651  0.1846  0.1523  0.1079
 4422TIP3    H137461   3.747   0.120   7.597 -1.0135 -0.8260  1.1061
 4422TIP3    H237462   3.820   0.228   7.674  0.6823 -1.0234 -0.1558
 4423TIP3   OH237463   2.444   4.278   1.433 -0.1817 -0.0885 -0.2187
 4423TIP3    H137464   2.397   4.361   1.427 -0.6785 -0.4388 -1.3642
 4423TIP3    H237465   2.499   4.276   1.355 -1.4388 -1.5760 -1.1333
 4424TIP3   OH237466   0.593   2.236   2.599 -0.1758 -0.0928  0.1307
 4424TIP3    H137467   0.662   2.298   2.621  0.3719 -0.5825 -0.1670
 4424TIP3    H237468   0.521   2.290   2.567 -0.2584  0.4825  1.2538
 4425TIP3   OH237469   7.133   5.226   8.472  0.6159 -0.3721 -0.8921
 4425TIP3    H137470   7.078   5.294   8.432  3.0732  2.0903 -0.4118
 4425TIP3    H237471   7.197   5.275   8.524  0.5945 -3.2065  2.1782
 4426TIP3   OH237472   0.694   6.477   1.458  0.1789  0.2254  0.0495
 4426TIP3    H137473   0.655   6.563   1.475 -0.1486  0.0416  0.2194
 4426TIP3    H237474   0.700   6.436   1.544 -1.3581 -0.6565 -0.2411
 4427TIP3   OH237475   5.356   1.000   7.200  0.2635  0.0055 -0.0930
 4427TIP3    H137476   5.266   0.990   7.167  0.8046 -0.3899 -1.5615
 4427TIP3    H237477   5.370   1.095   7.201  0.5277  0.0250 -1.9926
 4428TIP3   OH237478   4.376   2.991   9.816 -0.5847 -0.4405  0.0686
 4428TIP3    H137479   4.325   3.043   9.754  0.9552 -0.3471 -1.1667
 4428TIP3    H237480   4.437   3.053   9.855 -0.5346 -0.8060  0.5766
 4429TIP3   OH237481   6.454   3.428   0.004  0.2729 -0.5144  0.0189
 4429TIP3    H137482   6.398   3.354  -0.019 -0.8004  0.2154  0.1971
 4429TIP3    H237483   6.396   3.504   0.001  1.2897  0.2971  0.0822
 4430TIP3   OH237484   2.667   2.004   6.584 -0.2222  0.3546  0.0035
 4430TIP3    H137485   2.756   2.020   6.552  0.0594 -0.4847  0.3191
 4430TIP3    H237486   2.610   2.036   6.515  0.3184  1.1263 -0.0961
 4431TIP3   OH237487   0.105   6.766   1.938 -0.3733  0.1289 -0.1752
 4431TIP3    H137488   0.104   6.841   1.998 -1.0431  0.0988 -0.1452
 4431TIP3    H237489   0.049   6.701   1.980 -1.0415  0.2009 -0.9403
 4432TIP3   OH237490   2.163   2.110   2.669  0.9435  0.0617  0.5484
 4432TIP3    H137491   2.150   2.168   2.744 -1.4403 -1.7586  1.6916
 4432TIP3    H237492   2.108   2.147   2.600 -0.7172 -0.8359  1.3307
 4433TIP3   OH237493   0.562   3.183   8.010  0.3270 -0.0111 -0.3186
 4433TIP3    H137494   0.629   3.121   8.039 -0.3772 -0.2985  0.7530
 4433TIP3    H237495   0.543   3.157   7.920  2.0154  0.4130 -0.8454
 4434TIP3   OH237496   6.601   3.682   1.426  0.3462 -0.0484  0.4336
 4434TIP3    H137497   6.614   3.761   1.478  1.3677  0.1263 -0.0516
 4434TIP3    H237498   6.675   3.682   1.365 -1.6024  0.5581 -2.0631
 4435TIP3   OH237499   5.618   0.614   8.974 -0.2193  0.3349 -0.0459
 4435TIP3    H137500   5.687   0.575   9.027 -0.2274 -0.0112 -0.2806
 4435TIP3    H237501   5.577   0.680   9.030  0.9985  1.3045 -0.2701
 4436TIP3   OH237502   7.089   6.549   1.945 -0.8308  0.2614  0.0693
 4436TIP3    H137503   7.010   6.604   1.941 -0.5191  0.6439 -2.1376
 4436TIP3    H237504   7.071   6.477   1.885  0.1194 -0.2085  0.3333
 4437TIP3   OH237505   0.878   0.019   7.337 -0.4478 -0.5724  0.0049
 4437TIP3    H137506   0.899  -0.059   7.285  0.8450  0.3383 -0.9004
 4437TIP3    H237507   0.897   0.092   7.279 -0.4573  0.4540  1.2593
 4438TIP3   OH237508   4.575   2.153   9.117 -0.3135 -0.2354 -0.0211
 4438TIP3    H137509   4.549   2.062   9.098  0.2427 -0.4200  0.0844
 4438TIP3    H237510   4.613   2.149   9.205 -0.0592  0.0561 -0.1184
 4439TIP3   OH237511   6.701   6.186   0.542  0.0184  0.4873 -0.5707
 4439TIP3    H137512   6.711   6.271   0.498 -1.4531  0.9299 -0.1106
 4439TIP3    H237513   6.606   6.172   0.544  0.1859 -0.5491  0.5354
 4440TIP3   OH237514   3.500   2.832   7.829  1.4841 -0.2072 -0.3812
 4440TIP3    H137515   3.524   2.755   7.881  2.3267 -0.9334 -1.7806
 4440TIP3    H237516   3.468   2.795   7.747 -1.2531  0.8476  0.1050
 4441TIP3   OH237517   2.029   3.772   8.588  0.1609 -0.1225 -0.1173
 4441TIP3    H137518   1.967   3.767   8.515 -0.7490  0.1775  0.6196
 4441TIP3    H237519   2.088   3.697   8.574  0.3779  0.2756 -1.4761
 4442TIP3   OH237520   4.567   4.536   9.191 -0.6955 -0.0613  0.5243
 4442TIP3    H137521   4.567   4.471   9.262 -3.1220 -0.2180  0.4779
 4442TIP3    H237522   4.479   4.572   9.192  0.2357  2.4033 -0.2640
 4443TIP3   OH237523   5.062   1.685   1.036 -0.1884 -0.4637  0.1749
 4443TIP3    H137524   5.089   1.765   0.990 -0.6030  0.2209  1.0997
 4443TIP3    H237525   5.080   1.615   0.973  0.9358  0.2620 -0.3463
 4444TIP3   OH237526   1.644   0.936   8.788  0.0673 -0.3304 -0.0620
 4444TIP3    H137527   1.609   0.855   8.751 -0.5658  0.1043 -0.4296
 4444TIP3    H237528   1.570   0.996   8.789  0.8845  0.7424 -1.2386
 4445TIP3   OH237529   2.645   5.143   1.038 -0.2136  0.1266 -0.1627
 4445TIP3    H137530   2.736   5.157   1.013 -0.0506  0.3878  0.5531
 4445TIP3    H237531   2.603   5.109   0.959  0.4371  0.2802 -0.5781
 4446TIP3   OH237532   1.712   2.403   1.204  0.9033 -0.4149  0.6700
 4446TIP3    H137533   1.698   2.408   1.109  0.6978  2.8345  0.7609
 4446TIP3    H237534   1.805   2.386   1.214  1.2540  0.8836 -0.1798
 4447TIP3   OH237535   6.604   2.084   7.912  0.0565 -0.0460  0.2333
 4447TIP3    H137536   6.697   2.108   7.919  0.5108 -0.9816 -1.8156
 4447TIP3    H237537   6.601   1.992   7.938  0.4297 -1.1355 -3.0786
 4448TIP3   OH237538   3.474   0.170   2.679  0.3256 -0.0278  0.4140
 4448TIP3    H137539   3.487   0.239   2.614 -0.1053  0.0663  0.4274
 4448TIP3    H237540   3.400   0.200   2.732  0.6042 -0.1519  0.8858
 4449TIP3   OH237541   3.862   5.218   7.448  0.3207  0.2725  0.3628
 4449TIP3    H137542   3.796   5.149   7.457  1.2247 -0.6358  0.2550
 4449TIP3    H237543   3.902   5.201   7.363 -0.5956  1.9936 -0.4633
 4450TIP3   OH237544   7.306   6.038   1.979  0.2314 -0.5832 -0.3605
 4450TIP3    H137545   7.238   6.025   1.914  0.1475 -0.5148 -0.2869
 4450TIP3    H237546   7.295   6.129   2.008  0.4707 -0.5145 -0.4815
 4451TIP3   OH237547   0.102   0.888   1.626 -0.2013  0.2769  0.1512
 4451TIP3    H137548   0.177   0.829   1.634 -0.4117 -0.1026 -0.5730
 4451TIP3    H237549   0.139   0.970   1.595 -0.3030 -0.5388 -2.3282
 4452TIP3   OH237550   2.315   4.475   2.495 -0.3896 -0.6058  0.3005
 4452TIP3    H137551   2.247   4.537   2.471  0.3420  0.2497  0.3904
 4452TIP3    H237552   2.326   4.420   2.418  0.0814  0.4066 -0.3673
 4453TIP3   OH237553   7.062   7.108   9.723 -0.0868 -0.2695  0.1945
 4453TIP3    H137554   7.124   7.133   9.792 -0.9964 -1.2192  1.4038
 4453TIP3    H237555   6.991   7.063   9.770 -0.4614 -1.4483 -1.4352
 4454TIP3   OH237556   2.386   7.453   0.939 -0.1189 -0.0504  0.1891
 4454TIP3    H137557   2.407   7.362   0.918  0.0620 -0.0792  0.4975
 4454TIP3    H237558   2.465   7.487   0.980 -0.3404  0.1198  0.4762
 4455TIP3   OH237559   1.830   0.641   0.791  0.0958  0.2178  0.6997
 4455TIP3    H137560   1.782   0.560   0.805 -2.1602  1.4683  0.6344
 4455TIP3    H237561   1.841   0.678   0.878 -0.1147  0.5049  0.6054
 4456TIP3   OH237562   0.398   4.106   2.025  0.4894 -0.2237 -0.4424
 4456TIP3    H137563   0.449   4.052   2.085 -0.3678  0.5340  1.0237
 4456TIP3    H237564   0.453   4.183   2.008  0.6331 -0.3227 -0.4208
 4457TIP3   OH237565   1.504   4.093   9.403 -0.4777  0.1246 -0.4959
 4457TIP3    H137566   1.409   4.082   9.398 -0.4751 -1.1708  1.2602
 4457TIP3    H237567   1.539   4.037   9.334 -0.9532 -0.6399 -0.1237
 4458TIP3   OH237568   2.696   6.057   9.103  0.1295  0.1411 -0.0735
 4458TIP3    H137569   2.606   6.066   9.135  0.4520  1.4067  0.5489
 4458TIP3    H237570   2.706   6.130   9.041  0.2928 -0.8412 -1.2495
 4459TIP3   OH237571   1.833   5.164   7.785  0.1458 -0.0286  0.3400
 4459TIP3    H137572   1.767   5.231   7.802  1.1213  1.1103 -0.2098
 4459TIP3    H237573   1.796   5.109   7.717 -0.3361  0.4402  0.2212
 4460TIP3   OH237574   4.376   3.314   8.387 -0.0361 -0.0092 -0.4040
 4460TIP3    H137575   4.345   3.229   8.419  2.6129 -0.1813  2.1380
 4460TIP3    H237576   4.433   3.292   8.314 -0.9450 -0.2084 -1.0703
 4461TIP3   OH237577   3.749   4.482   9.714  0.1905 -0.7337 -0.3804
 4461TIP3    H137578   3.730   4.484   9.807 -0.5134 -3.1841 -0.3984
 4461TIP3    H237579   3.732   4.571   9.683 -0.5719 -0.1440  1.6195
 4462TIP3   OH237580   3.595   2.888   9.561  0.6213 -0.1482  0.1581
 4462TIP3    H137581   3.530   2.818   9.569  1.2724 -0.7417  0.3120
 4462TIP3    H237582   3.547   2.967   9.584 -0.1518 -0.5272 -0.1059
 4463TIP3   OH237583   1.576   3.092   9.170  0.2044 -0.2134 -0.0799
 4463TIP3    H137584   1.656   3.101   9.118  0.1023  0.2027 -0.1685
 4463TIP3    H237585   1.571   2.999   9.191  1.2442 -0.0816  0.7845
 4464TIP3   OH237586   6.891   6.960   9.908 -0.2851 -0.1454  0.4004
 4464TIP3    H137587   6.812   6.975   9.960  0.1954  1.2732  0.7713
 4464TIP3    H237588   6.864   6.897   9.841 -1.9548  0.9074  0.0217
 4465TIP3   OH237589   6.121   4.792   9.951 -0.2303 -0.5844 -0.1285
 4465TIP3    H137590   6.026   4.791   9.950 -0.2818  0.9942 -0.1892
 4465TIP3    H237591   6.146   4.798   9.859 -0.1563  0.6447 -0.0537
 4466TIP3   OH237592   6.040   7.556   7.936 -0.8435 -0.5654 -0.2887
 4466TIP3    H137593   5.969   7.497   7.960 -0.9766 -0.4363 -0.3611
 4466TIP3    H237594   6.041   7.621   8.006 -2.0178  0.5080 -1.2210
 4467TIP3   OH237595   0.609   2.319   9.567  0.0470 -0.1982  0.7981
 4467TIP3    H137596   0.550   2.286   9.635 -1.6623  0.5468 -0.2372
 4467TIP3    H237597   0.688   2.267   9.575 -0.1387 -0.2120  3.2709
 4468TIP3   OH237598   0.543   5.944   7.894  0.3096  0.5162 -0.5229
 4468TIP3    H137599   0.587   5.863   7.869  2.4461  0.9679  1.4633
 4468TIP3    H237600   0.453   5.918   7.912  0.5037 -1.0591 -1.5944
 4469TIP3   OH237601   7.426   6.650   9.806 -0.5247  0.1587 -0.7074
 4469TIP3    H137602   7.348   6.702   9.788 -1.3384 -0.6691  0.3071
 4469TIP3    H237603   7.425   6.637   9.901 -0.7453 -2.2168 -0.9674
 4470TIP3   OH237604   6.556   1.809   9.591  0.7706 -0.2406 -0.1994
 4470TIP3    H137605   6.644   1.809   9.627  0.2952 -0.2401  1.0160
 4470TIP3    H237606   6.561   1.866   9.514  2.1147 -1.3021 -0.9339
 4471TIP3   OH237607   6.662   0.550   9.516 -0.2335 -0.0279 -0.0052
 4471TIP3    H137608   6.728   0.618   9.531  1.3584 -1.5019  0.0142
 4471TIP3    H237609   6.659   0.502   9.599 -2.4488  0.8657  0.5015
 4472TIP3   OH237610   6.450   6.529   7.729 -0.7258 -0.0653  0.3987
 4472TIP3    H137611   6.395   6.508   7.654  2.4762 -2.1189 -1.5615
 4472TIP3    H237612   6.495   6.610   7.704  0.4390 -0.8203 -0.0051
 4473TIP3   OH237613   4.484   0.430   1.659  0.4152  0.1244 -0.0804
 4473TIP3    H137614   4.487   0.524   1.678  3.0501 -0.1506  1.2883
 4473TIP3    H237615   4.423   0.395   1.723 -0.8499  0.8847 -0.8122
 4474TIP3   OH237616   5.797   3.195   0.269  0.1858  0.0575  0.0704
 4474TIP3    H137617   5.840   3.125   0.318  0.6214  0.6046  0.5008
 4474TIP3    H237618   5.732   3.230   0.330 -0.5183 -0.4340 -0.3980
 4475TIP3   OH237619   1.797   1.923   9.333 -0.5177 -0.1416  1.0820
 4475TIP3    H137620   1.783   1.884   9.419 -0.2242 -0.5363  0.9501
 4475TIP3    H237621   1.756   2.010   9.340  1.1220  0.6099  2.2369
 4476TIP3   OH237622   0.831   3.489   9.948 -0.2799  0.7876  0.5461
 4476TIP3    H137623   0.916   3.477   9.990  0.5135  1.4390 -0.8085
 4476TIP3    H237624   0.781   3.410   9.970  1.6850 -0.9845 -0.9660
 4477TIP3   OH237625   0.300   3.389   8.429  0.4824 -0.5629  0.7891
 4477TIP3    H137626   0.365   3.395   8.500 -0.1884 -1.8083  1.5399
 4477TIP3    H237627   0.300   3.297   8.404  0.7765 -0.1317 -0.9358
 4478TIP3   OH237628   1.112   2.930   2.700 -0.1057 -0.0373  0.4582
 4478TIP3    H137629   1.065   2.874   2.762 -2.1157  0.6097 -0.3923
 4478TIP3    H237630   1.204   2.913   2.717 -0.5950 -0.2758  3.2388
 4479TIP3   OH237631   4.635   0.374   9.129  0.2922 -0.2734 -0.5092
 4479TIP3    H137632   4.547   0.352   9.098  0.3215 -0.3157 -0.5637
 4479TIP3    H237633   4.684   0.392   9.049  0.5985 -1.2218 -0.5535
 4480TIP3   OH237634   6.876   2.627   7.821  0.2328 -0.2288 -0.2099
 4480TIP3    H137635   6.939   2.614   7.750 -0.1039  1.0110 -0.7803
 4480TIP3    H237636   6.926   2.616   7.901  1.1504  0.5380 -0.6532
 4481TIP3   OH237637   1.317   1.797   8.295  0.6804  0.4289 -0.4920
 4481TIP3    H137638   1.286   1.709   8.313  1.8830  0.2044  0.6084
 4481TIP3    H237639   1.393   1.808   8.352 -0.9594  3.1227  1.3790
 4482TIP3   OH237640   2.604   5.146   7.476 -0.5231  0.2558 -0.4234
 4482TIP3    H137641   2.651   5.159   7.559 -0.5521 -0.2187 -0.3256
 4482TIP3    H237642   2.598   5.050   7.467 -2.7144  0.2560  0.3038
 4483TIP3   OH237643   1.022   5.652   2.872  0.4167  0.0134 -0.4499
 4483TIP3    H137644   0.996   5.561   2.866  0.7953 -0.2481  1.4208
 4483TIP3    H237645   1.061   5.661   2.959 -0.5775  2.1909 -0.1548
 4484TIP3   OH237646   1.939   4.871   7.078  0.2691  0.4412  0.0565
 4484TIP3    H137647   1.879   4.939   7.111 -0.3292  0.0509 -0.2031
 4484TIP3    H237648   1.903   4.850   6.991  0.5245 -0.1237  0.0912
 4485TIP3   OH237649   0.494   4.678   0.181 -0.1997 -0.0855  0.0945
 4485TIP3    H137650   0.442   4.747   0.139  2.0560  1.7858  0.1960
 4485TIP3    H237651   0.463   4.677   0.271 -0.8638  0.1385 -0.1174
 4486TIP3   OH237652   5.690   0.135   1.139  0.0340 -0.1690  0.4315
 4486TIP3    H137653   5.652   0.056   1.100 -2.9081  0.4958  1.6232
 4486TIP3    H237654   5.765   0.103   1.190  1.0048 -1.6561 -1.7771
 4487TIP3   OH237655   4.016   0.096   1.225 -0.2096 -0.1584  0.0560
 4487TIP3    H137656   4.030   0.036   1.152  1.2200  0.3198 -0.0995
 4487TIP3    H237657   3.976   0.174   1.186  1.2797  0.4176 -0.3990
 4488TIP3   OH237658   5.799   4.088   8.753 -0.3835  0.1410  0.4091
 4488TIP3    H137659   5.747   4.160   8.789 -0.1399  1.0443 -0.9530
 4488TIP3    H237660   5.875   4.131   8.714 -0.7887 -0.6985 -1.4528
 4489TIP3   OH237661   1.130   0.460   0.970 -0.2798 -0.3468 -0.3548
 4489TIP3    H137662   1.047   0.437   1.013 -1.3930  1.8748 -1.1818
 4489TIP3    H237663   1.137   0.555   0.981  1.4591 -0.2971 -1.5401
 4490TIP3   OH237664   4.380   1.358   1.660 -0.0949 -0.2520  0.3909
 4490TIP3    H137665   4.409   1.324   1.745  0.1401 -0.1839  0.3374
 4490TIP3    H237666   4.430   1.439   1.649 -1.0943  0.4526  0.8095
 4491TIP3   OH237667   1.925   1.731   0.586  0.1556 -0.0598 -0.0488
 4491TIP3    H137668   2.020   1.741   0.573  0.2832  2.1791  1.8522
 4491TIP3    H237669   1.886   1.765   0.506  0.9898  1.2475  0.0602
 4492TIP3   OH237670   0.110   4.610   0.306  0.1928  0.8289 -0.0178
 4492TIP3    H137671   0.145   4.673   0.369 -0.5152  0.0371  1.1926
 4492TIP3    H237672   0.026   4.583   0.343  0.3366 -0.5851 -0.6851
 4493TIP3   OH237673   4.045   0.310   2.645 -0.1147  0.8157 -0.0995
 4493TIP3    H137674   4.131   0.329   2.682 -1.0229 -1.5686  3.8286
 4493TIP3    H237675   3.998   0.393   2.651  1.0208  1.4419  0.5956
 4494TIP3   OH237676   2.253   5.882   8.350  0.1309 -0.4100  0.3600
 4494TIP3    H137677   2.322   5.926   8.301  0.7162 -0.5072  1.0765
 4494TIP3    H237678   2.173   5.901   8.301  0.6033  0.0508 -0.2540
 4495TIP3   OH237679   1.645   3.282   9.846 -0.8023  0.1552 -0.3219
 4495TIP3    H137680   1.558   3.287   9.886 -0.3094 -0.0024  0.8234
 4495TIP3    H237681   1.633   3.317   9.758 -1.7764  1.2965  0.2333
 4496TIP3   OH237682   1.934   1.930   0.868  0.3996 -0.2693  0.5672
 4496TIP3    H137683   1.959   1.840   0.848 -0.5382 -0.3245 -0.4613
 4496TIP3    H237684   1.928   1.973   0.782  0.1829  0.5959  1.0014
 4497TIP3   OH237685   2.617   3.702   2.230  0.0596 -0.9711  0.5716
 4497TIP3    H137686   2.677   3.683   2.303  1.0041  3.0971  1.0779
 4497TIP3    H237687   2.530   3.698   2.270  0.5109  0.3189  1.7930
 4498TIP3   OH237688   2.783   1.412   1.607  0.3227 -0.4006  0.2407
 4498TIP3    H137689   2.719   1.433   1.538 -0.5954  0.5451  1.3482
 4498TIP3    H237690   2.834   1.492   1.619 -0.0096 -0.3104  1.1481
 4499TIP3   OH237691   0.066   6.489   8.464  0.4144  0.9842  0.0364
 4499TIP3    H137692   0.038   6.462   8.377 -0.2789 -1.8874  1.0361
 4499TIP3    H237693  -0.008   6.539   8.500 -1.2223 -1.6226  0.5292
 4500TIP3   OH237694   1.005   3.521   1.713 -0.0845 -0.0796  0.3095
 4500TIP3    H137695   1.086   3.500   1.759 -0.6024  0.7384  1.6505
 4500TIP3    H237696   1.032   3.574   1.638  0.7577 -1.2767 -0.2673
 4501TIP3   OH237697   3.620   0.250   8.608 -0.3245 -0.1925 -0.6757
 4501TIP3    H137698   3.575   0.219   8.530 -0.7936 -0.0986 -0.4433
 4501TIP3    H237699   3.587   0.194   8.679 -0.4314  0.1807 -0.4259
 4502TIP3   OH237700   0.301   4.238   0.890  0.5630  0.7620  0.1614
 4502TIP3    H137701   0.214   4.202   0.875  0.8303  0.7518 -1.5405
 4502TIP3    H237702   0.361   4.173   0.853  1.2514  1.1393  0.5918
 4503TIP3   OH237703   3.137   6.212   2.375  0.0037 -0.1125 -0.2331
 4503TIP3    H137704   3.105   6.195   2.464  0.5224  0.0018 -0.0193
 4503TIP3    H237705   3.094   6.146   2.321  0.0429 -0.4763  0.1755
 4504TIP3   OH237706   6.151   3.015   9.969 -0.4693 -0.4284 -0.5592
 4504TIP3    H137707   6.063   3.003   9.933 -1.2297  2.8701 -0.0815
 4504TIP3    H237708   6.209   2.993   9.896 -1.7729 -0.1142 -1.7582
 4505TIP3   OH237709   7.460   5.887   0.816 -0.0120  0.5944 -0.1502
 4505TIP3    H137710   7.462   5.983   0.812 -2.2044  0.6712 -1.0845
 4505TIP3    H237711   7.492   5.859   0.731 -0.8285  0.5697 -0.4574
 4506TIP3   OH237712   1.980   2.044   9.895 -0.1400  0.5462 -0.1413
 4506TIP3    H137713   2.053   2.004   9.941  1.5265  1.7851 -1.5472
 4506TIP3    H237714   1.986   2.137   9.917 -1.9492  0.5410  0.5247
 4507TIP3   OH237715   2.560   4.647   2.354 -0.2683 -0.0351 -0.0780
 4507TIP3    H137716   2.613   4.694   2.289 -1.5719  1.9765  0.2252
 4507TIP3    H237717   2.546   4.561   2.315  2.8833 -0.5507 -0.3040
 4508TIP3   OH237718   3.391   2.009   7.580 -0.3538 -0.7133  0.4987
 4508TIP3    H137719   3.410   2.049   7.495 -0.3847 -1.6287  0.0484
 4508TIP3    H237720   3.418   2.075   7.644  1.1483 -0.6150 -0.1869
 4509TIP3   OH237721   0.690   6.518   9.830  0.1993 -0.4125 -0.1502
 4509TIP3    H137722   0.749   6.466   9.776  0.7746  1.0741 -1.0116
 4509TIP3    H237723   0.621   6.546   9.770  0.4031  0.5780  0.0569
 4510TIP3   OH237724   1.280   6.611   8.026  0.1706 -0.4732  0.5180
 4510TIP3    H137725   1.311   6.623   8.116  0.6632  1.1943  0.1615
 4510TIP3    H237726   1.196   6.657   8.023  0.3246 -0.2143  0.0459
 4511TIP3   OH237727   1.069   1.811   2.671  0.7788 -0.3870  0.4754
 4511TIP3    H137728   1.108   1.724   2.661  0.0040 -0.5693 -1.4813
 4511TIP3    H237729   1.128   1.870   2.623  0.9107  0.0592  1.1674
 4512TIP3   OH237730   1.169   1.027   7.541  0.0858 -0.2401  0.1586
 4512TIP3    H137731   1.184   0.943   7.497 -0.2533 -0.5679  0.6665
 4512TIP3    H237732   1.185   1.092   7.472 -1.4818 -0.7758 -0.7845
 4513TIP3   OH237733   3.716   1.503   1.760 -0.4517 -0.1586  0.3171
 4513TIP3    H137734   3.731   1.462   1.846  1.0061 -0.3031  0.0252
 4513TIP3    H237735   3.687   1.591   1.780 -0.9267 -0.4561  0.9663
 4514TIP3   OH237736   4.200   0.343   8.625 -0.0940  0.3286  0.0490
 4514TIP3    H137737   4.106   0.347   8.609 -0.2108 -2.3449 -0.4383
 4514TIP3    H237738   4.214   0.258   8.667  2.1505  0.3892 -0.4154
 4515TIP3   OH237739   1.960   4.067   9.083  0.5607 -0.6281 -0.1589
 4515TIP3    H137740   2.027   4.001   9.065  1.7551  0.7548 -0.9586
 4515TIP3    H237741   1.962   4.126   9.008 -1.7574 -0.6608 -0.3318
 4516TIP3   OH237742   2.878   0.686   1.452 -0.1949 -0.3006  0.4473
 4516TIP3    H137743   2.890   0.735   1.370  0.0830  1.4135  1.4697
 4516TIP3    H237744   2.839   0.749   1.512  0.5376 -1.2250  1.9452
 4517TIP3   OH237745   5.834   2.943   8.860  0.1022  0.0473 -0.1251
 4517TIP3    H137746   5.768   2.927   8.928 -1.9715  1.3676 -1.7019
 4517TIP3    H237747   5.833   3.038   8.848  0.5252 -0.1430 -1.8898
 4518TIP3   OH237748   5.251   4.727   0.049  0.5376  0.4100 -0.6353
 4518TIP3    H137749   5.342   4.702   0.066  0.2419  0.2006  0.7864
 4518TIP3    H237750   5.236   4.703  -0.042  0.8510 -3.0500  0.0733
 4519TIP3   OH237751   0.065   2.531   1.328  0.2352 -0.4731 -0.1317
 4519TIP3    H137752   0.150   2.560   1.364  0.4897 -0.1975 -0.9471
 4519TIP3    H237753   0.086   2.454   1.276 -0.1617 -0.9640  0.4155
 4520TIP3   OH237754   0.456   4.352   0.473  0.7209  0.1000 -0.1691
 4520TIP3    H137755   0.456   4.447   0.461 -0.8456  0.0771 -0.5607
 4520TIP3    H237756   0.543   4.324   0.443  0.8718  1.2995 -0.9218
 4521TIP3   OH237757   2.829   3.220   9.612  0.0448 -0.4642 -0.1347
 4521TIP3    H137758   2.867   3.268   9.538 -0.5926  0.6311  0.2262
 4521TIP3    H237759   2.901   3.164   9.643  1.7889  2.2383  1.1406
 4522TIP3   OH237760   0.289   0.204   2.753 -0.1898  0.2542 -0.1112
 4522TIP3    H137761   0.384   0.209   2.753 -0.0544 -1.7124 -0.3256
 4522TIP3    H237762   0.261   0.261   2.681  0.9243 -0.4850 -1.1558
 4523TIP3   OH237763   5.974   7.598   9.797  0.0915 -0.5150  0.2310
 4523TIP3    H137764   5.926   7.570   9.719  1.2641  2.1080 -1.5754
 4523TIP3    H237765   5.910   7.647   9.848 -0.6178 -2.0339  0.8613
 4524TIP3   OH237766   1.173   4.300   8.634 -0.0497  0.5053 -0.0861
 4524TIP3    H137767   1.116   4.355   8.581 -0.6654  1.4768  1.5158
 4524TIP3    H237768   1.255   4.349   8.640  0.9457 -0.7597 -2.1497
 4525TIP3   OH237769   5.526   4.887   0.066  0.0345  0.3088  0.2118
 4525TIP3    H137770   5.562   4.898   0.154  2.3399 -0.1106 -0.5891
 4525TIP3    H237771   5.538   4.972   0.024  1.1234 -0.0999 -0.3689
 4526TIP3   OH237772   5.453   3.781   9.245 -0.2367 -0.5028  0.1750
 4526TIP3    H137773   5.399   3.825   9.310 -1.5398 -1.1902 -0.4008
 4526TIP3    H237774   5.431   3.824   9.162 -0.5549 -1.3364 -0.1899
 4527TIP3   OH237775   2.678   0.778   9.077  0.3234 -0.5271  0.8027
 4527TIP3    H137776   2.722   0.782   8.992 -2.2867  1.8848 -0.5788
 4527TIP3    H237777   2.641   0.689   9.080  1.6138 -1.1234  0.0972
 4528TIP3   OH237778   7.366   5.690   7.258  0.3279  0.3985 -0.5406
 4528TIP3    H137779   7.344   5.758   7.322  1.3693  0.5956 -0.3661
 4528TIP3    H237780   7.343   5.728   7.174 -0.0510  0.5646 -0.3636
 4529TIP3   OH237781   6.219   2.971   9.390  0.4092  0.4712 -0.5272
 4529TIP3    H137782   6.149   3.034   9.371  0.9522  0.8237 -1.3936
 4529TIP3    H237783   6.259   2.953   9.305  1.2610  0.1399 -0.0679
 4530TIP3   OH237784   1.744   2.583   9.263  0.4403 -0.1847  0.1721
 4530TIP3    H137785   1.733   2.516   9.195 -1.2010 -0.2426  0.4596
 4530TIP3    H237786   1.837   2.606   9.259  0.6592 -1.1800 -1.1493
 4531TIP3   OH237787   4.335   0.714   1.330 -0.5689 -0.0974  0.1651
 4531TIP3    H137788   4.325   0.806   1.356  0.2003  0.0214  0.0452
 4531TIP3    H237789   4.250   0.692   1.292 -1.3449  0.0629  1.6936
 4532TIP3   OH237790   2.392   5.092   2.350 -0.0873 -0.0739 -0.0588
 4532TIP3    H137791   2.376   5.127   2.437 -0.8545  0.7535 -0.5131
 4532TIP3    H237792   2.306   5.060   2.321 -0.5076  2.2116 -1.5914
 4533TIP3   OH237793   1.893   0.921   8.931 -0.0041 -0.2951  0.2691
 4533TIP3    H137794   1.911   0.998   8.985 -1.5719  0.5290 -0.3016
 4533TIP3    H237795   1.797   0.921   8.921  0.0679 -1.6619 -0.7130
 4534TIP3   OH237796   4.592   5.339   0.311 -0.8474 -0.1679  0.2670
 4534TIP3    H137797   4.636   5.362   0.230 -0.8741 -0.6708  0.1086
 4534TIP3    H237798   4.589   5.243   0.311 -2.6613 -0.1449 -0.1371
 4535TIP3   OH237799   0.676   6.571   9.396  0.5334 -0.3266 -0.0906
 4535TIP3    H137800   0.743   6.511   9.364  0.6176 -0.3376  0.1033
 4535TIP3    H237801   0.719   6.619   9.467  0.3074 -0.3971  0.0938
 4536TIP3   OH237802   7.395   1.779   0.320 -0.5233 -0.6330 -0.0400
 4536TIP3    H137803   7.328   1.758   0.254  0.2495 -2.8033 -0.1903
 4536TIP3    H237804   7.345   1.794   0.400 -1.3403  0.2904 -0.6843
 4537TIP3   OH237805   0.611   7.647   0.552 -0.1971  0.1585 -0.1366
 4537TIP3    H137806   0.530   7.698   0.564 -0.0727  0.2626  0.2816
 4537TIP3    H237807   0.680   7.705   0.584  0.0003 -0.0875 -0.1189
 4538TIP3   OH237808   7.269   4.810   0.844 -0.2843  0.5474 -0.2230
 4538TIP3    H137809   7.248   4.760   0.765  2.8809  1.8229 -2.1046
 4538TIP3    H237810   7.321   4.751   0.898  0.4571  0.6806 -0.7726
 4539TIP3   OH237811   3.835   0.936   7.741 -0.8385  0.1690 -0.6513
 4539TIP3    H137812   3.811   1.011   7.687  0.2290  0.8748 -0.1820
 4539TIP3    H237813   3.883   0.878   7.681  0.8561  1.2169 -0.4005
 4540TIP3   OH237814   6.975   5.680   0.283  0.0467  0.4373  0.2187
 4540TIP3    H137815   6.919   5.706   0.355 -0.9825  1.8798 -1.0319
 4540TIP3    H237816   6.998   5.762   0.240  0.8853 -0.3542 -0.9036
 4541TIP3   OH237817   3.438   5.216   7.869 -0.4254 -0.5503  0.7165
 4541TIP3    H137818   3.377   5.265   7.813  0.3267  0.0698  0.4156
 4541TIP3    H237819   3.495   5.169   7.808 -0.7547 -1.3226  0.9967
 4542TIP3   OH237820   0.999   5.792   0.401 -0.5730  0.4211  0.1218
 4542TIP3    H137821   1.038   5.721   0.452 -1.1539 -1.0777 -1.4590
 4542TIP3    H237822   1.074   5.842   0.369 -0.1621  0.5823  1.2687
 4543TIP3   OH237823   1.805   2.424   0.119 -0.3644  0.3428  0.6430
 4543TIP3    H137824   1.711   2.418   0.101 -0.2539  0.0349  0.1289
 4543TIP3    H237825   1.817   2.378   0.202 -0.8392  1.4460  1.3304
 4544TIP3   OH237826   1.286   4.953   9.790 -0.0491  0.7684  0.8353
 4544TIP3    H137827   1.229   4.877   9.777  0.0397  0.8153  0.1229
 4544TIP3    H237828   1.240   5.025   9.745  0.9089  0.6495 -0.3799
 4545TIP3   OH237829   4.429   1.201   9.045  0.3519  0.1671  0.0722
 4545TIP3    H137830   4.457   1.193   8.954  0.7421 -0.2441  0.2253
 4545TIP3    H237831   4.334   1.206   9.041  0.4238  1.5149 -0.4565
 4546TIP3   OH237832   2.165   3.301   2.924  0.1639  0.4639  0.0035
 4546TIP3    H137833   2.215   3.237   2.975 -0.3052 -0.0964 -0.2419
 4546TIP3    H237834   2.190   3.385   2.962 -1.0074  0.0022  1.9192
 4547TIP3   OH237835   5.819   0.474   9.137  0.2689  0.2457 -0.1294
 4547TIP3    H137836   5.910   0.464   9.109 -0.1390  0.4776 -1.6255
 4547TIP3    H237837   5.824   0.477   9.232  1.7707 -0.2755 -0.1597
 4548TIP3   OH237838   4.135   0.198   2.422 -0.1556  0.5968 -0.7526
 4548TIP3    H137839   4.048   0.179   2.386 -0.2637  1.0574 -0.7445
 4548TIP3    H237840   4.118   0.245   2.503  0.0996  0.5295 -0.6593
 4549TIP3   OH237841   7.086   5.335   7.939 -0.6761 -0.2353  0.5169
 4549TIP3    H137842   7.000   5.348   7.978 -1.3092  0.2125 -0.9782
 4549TIP3    H237843   7.072   5.340   7.845  1.0906  0.5181  0.2424
 4550TIP3   OH237844   2.919   4.676   6.879 -0.4562 -0.0601  0.0967
 4550TIP3    H137845   2.882   4.592   6.851 -0.3160 -0.3638  0.7960
 4550TIP3    H237846   2.985   4.696   6.813 -1.1853  0.0055 -0.6233
 4551TIP3   OH237847   5.587   4.404   7.780  0.5141  0.0532  0.1272
 4551TIP3    H137848   5.514   4.436   7.833  1.5702  0.4676  1.3677
 4551TIP3    H237849   5.623   4.483   7.739  2.3215  0.3827  2.1796
 4552TIP3   OH237850   3.714   1.698   9.524  0.7235 -0.4129 -0.2206
 4552TIP3    H137851   3.794   1.703   9.577  0.0497 -1.0150  0.9034
 4552TIP3    H237852   3.737   1.638   9.453  0.9273 -1.5788  0.7851
 4553TIP3   OH237853   5.670   2.114   0.370 -0.0710 -0.3280 -0.2309
 4553TIP3    H137854   5.660   2.195   0.320 -1.8135  0.0626  0.6820
 4553TIP3    H237855   5.679   2.142   0.461  0.2516 -1.1232 -0.0098
 4554TIP3   OH237856   5.240   3.922   9.921 -0.2559 -0.7050  0.0040
 4554TIP3    H137857   5.162   3.868   9.906  0.1472 -1.8645  1.7697
 4554TIP3    H237858   5.248   3.927  10.017 -0.0248  2.1897 -0.0681
 4555TIP3   OH237859   5.768   4.970   8.641  0.3651 -0.2455 -0.0700
 4555TIP3    H137860   5.846   5.025   8.644 -0.2502  0.5900  1.6746
 4555TIP3    H237861   5.706   5.019   8.587  0.4281 -0.0687  0.0167
 4556TIP3   OH237862   5.343   5.558   0.926 -0.4251 -0.2844  0.1292
 4556TIP3    H137863   5.351   5.482   0.982  0.8688 -0.1233  0.1909
 4556TIP3    H237864   5.403   5.541   0.853 -2.4878 -0.7693 -1.5854
 4557TIP3   OH237865   1.245   1.259   6.930 -0.0522 -0.2308 -0.0724
 4557TIP3    H137866   1.237   1.346   6.891 -1.1502 -0.4001 -0.2487
 4557TIP3    H237867   1.257   1.200   6.856  2.0585 -0.1234  0.1073
 4558TIP3   OH237868   0.053   4.735   7.411  0.3360  0.0565  0.1425
 4558TIP3    H137869   0.116   4.800   7.442  0.4967 -0.4544  0.9123
 4558TIP3    H237870   0.089   4.651   7.441  0.5887 -0.4906 -1.5813
 4559TIP3   OH237871   5.949   7.606   8.438 -0.6527 -0.2543 -0.3417
 4559TIP3    H137872   6.001   7.598   8.518  0.6863  0.5588 -1.0959
 4559TIP3    H237873   5.929   7.516   8.414 -0.3920 -0.5423  0.4645
 4560TIP3   OH237874   3.092   5.383   0.636 -0.2857 -0.0558 -0.2839
 4560TIP3    H137875   3.078   5.330   0.714  0.7238 -0.7137 -0.5243
 4560TIP3    H237876   3.009   5.378   0.589 -0.5688 -0.5067  0.2460
 4561TIP3   OH237877   4.114   2.847   2.180 -0.0783 -0.0868 -0.3540
 4561TIP3    H137878   4.031   2.886   2.207 -0.2569 -0.3879 -0.4620
 4561TIP3    H237879   4.159   2.826   2.262 -0.3401 -0.4131 -0.2941
 4562TIP3   OH237880   2.748   0.210   6.988 -0.2095 -0.2389 -0.8143
 4562TIP3    H137881   2.653   0.215   6.994 -0.1717  0.3851 -0.6468
 4562TIP3    H237882   2.766   0.120   6.959 -0.7699 -0.8063  0.5552
 4563TIP3   OH237883   4.465   0.725   1.641  0.3354  0.4154  0.2010
 4563TIP3    H137884   4.416   0.720   1.723  1.1110 -0.5958  0.6161
 4563TIP3    H237885   4.419   0.791   1.590 -1.0495 -0.0018  0.8607
 4564TIP3   OH237886   3.678   0.413   0.862  0.4022  0.3681 -0.1339
 4564TIP3    H137887   3.606   0.354   0.841 -1.1005  2.0855 -0.0564
 4564TIP3    H237888   3.723   0.427   0.779 -1.9738  2.5484 -1.2023
 4565TIP3   OH237889   5.364   1.352   7.873 -0.6670  0.1788  0.1730
 4565TIP3    H137890   5.291   1.291   7.873 -0.6465  0.1363 -0.8529
 4565TIP3    H237891   5.372   1.380   7.782 -0.2730  1.2241  0.5108
 4566TIP3   OH237892   6.027   0.456   1.994 -0.0949  0.5660 -0.2674
 4566TIP3    H137893   5.982   0.373   2.012  1.6974 -0.4933 -0.3279
 4566TIP3    H237894   6.024   0.465   1.898 -0.1024  0.4492 -0.2783
 4567TIP3   OH237895   3.290   2.988   9.416  0.6346  0.7119 -0.3886
 4567TIP3    H137896   3.216   2.974   9.357  1.4696 -0.9908 -1.1149
 4567TIP3    H237897   3.300   2.905   9.463  0.2425  1.9069  1.9085
 4568TIP3   OH237898   3.239   4.129   9.417 -0.0525  0.0331 -0.4517
 4568TIP3    H137899   3.300   4.201   9.433 -1.7978  1.3334  0.6194
 4568TIP3    H237900   3.195   4.115   9.500 -0.4356 -1.6651 -0.8961
 4569TIP3   OH237901   6.448   2.039   1.750  0.0552  0.4435 -0.6191
 4569TIP3    H137902   6.383   2.109   1.745 -0.9084 -0.5092 -2.2671
 4569TIP3    H237903   6.400   1.960   1.724  1.3654 -0.6640  0.1950
 4570TIP3   OH237904   6.358   3.772   7.945 -0.0080 -0.2297  0.1385
 4570TIP3    H137905   6.388   3.835   8.010  1.2741  0.6513 -1.2279
 4570TIP3    H237906   6.265   3.760   7.963  0.4475 -0.5772  2.5464
 4571TIP3   OH237907   1.487   7.524   8.241 -0.0730  0.1310  0.2420
 4571TIP3    H137908   1.526   7.609   8.263 -0.6135  0.6247 -0.6559
 4571TIP3    H237909   1.393   7.537   8.253  0.0095 -1.4016  3.5681
 4572TIP3   OH237910   2.702   6.755   1.751  0.2782  0.1070 -0.0221
 4572TIP3    H137911   2.759   6.778   1.825  0.1187  0.2643  0.0517
 4572TIP3    H237912   2.634   6.699   1.790  0.1662  0.2304 -0.0417
 4573TIP3   OH237913   1.909   5.765   0.304 -0.0315 -1.2073 -0.4392
 4573TIP3    H137914   1.875   5.840   0.352 -0.7800 -0.9042 -1.3983
 4573TIP3    H237915   1.926   5.699   0.370 -0.7130 -0.6835  0.2687
 4574TIP3   OH237916   7.075   4.348   1.852 -0.5299 -0.1469 -0.5389
 4574TIP3    H137917   7.136   4.388   1.913 -0.2761 -0.6268 -0.4757
 4574TIP3    H237918   6.989   4.366   1.888 -0.3896 -0.2360 -0.1571
 4575TIP3   OH237919   0.423   6.388   9.563  0.0221  0.6358 -0.4512
 4575TIP3    H137920   0.458   6.475   9.583  2.1739 -0.4585  0.8659
 4575TIP3    H237921   0.389   6.356   9.647  2.2480 -1.0345 -0.1113
 4576TIP3   OH237922   3.214   5.142   1.692  0.1307  0.2183 -0.5616
 4576TIP3    H137923   3.260   5.209   1.742 -2.6689  2.1349 -0.2895
 4576TIP3    H237924   3.234   5.161   1.600  0.3642  0.6289 -0.4237
 4577TIP3   OH237925   3.281   6.175   7.851 -0.6648  0.0397  0.2516
 4577TIP3    H137926   3.293   6.254   7.904 -2.3101  0.7112 -0.3151
 4577TIP3    H237927   3.350   6.181   7.785 -0.2720  0.5842  0.6940
 4578TIP3   OH237928   3.570   0.211   9.415 -0.3581 -0.4081  0.3100
 4578TIP3    H137929   3.479   0.238   9.428 -0.6552 -0.9106 -0.6726
 4578TIP3    H237930   3.620   0.271   9.471 -1.4063 -1.4651  2.5290
 4579TIP3   OH237931   3.102   0.289   9.858 -0.0530  0.9104  0.5485
 4579TIP3    H137932   3.041   0.352   9.897 -1.3427  0.7569 -1.1055
 4579TIP3    H237933   3.047   0.234   9.802  1.4264 -0.0872  0.0062
 4580TIP3   OH237934   2.316   3.871   9.365 -0.4806  0.3461 -0.3750
 4580TIP3    H137935   2.410   3.870   9.377 -0.5260  1.6937  0.2292
 4580TIP3    H237936   2.281   3.832   9.445 -0.4448 -0.4685 -0.7420
 4581TIP3   OH237937   0.377   1.246   1.960  0.7373  0.0346  0.7270
 4581TIP3    H137938   0.411   1.326   1.921 -0.5186  0.1225 -0.2413
 4581TIP3    H237939   0.342   1.273   2.045  0.3741  0.5041  0.4298
 4582TIP3   OH237940   5.009   6.303   9.897  0.2855 -0.7649 -0.9716
 4582TIP3    H137941   4.961   6.385   9.902 -0.9223 -1.5157  0.2382
 4582TIP3    H237942   4.942   6.235   9.905  1.6028 -1.8614  2.4050
 4583TIP3   OH237943   7.427   5.318   8.885  0.0587  0.4431 -0.3241
 4583TIP3    H137944   7.510   5.332   8.930  0.4893  0.0873 -0.9768
 4583TIP3    H237945   7.451   5.266   8.808 -0.9647 -0.8677  0.2139
 4584TIP3   OH237946   2.830   5.082   2.126  0.0863 -0.2027 -0.7008
 4584TIP3    H137947   2.915   5.051   2.095 -0.3947 -2.7830  0.2953
 4584TIP3    H237948   2.768   5.048   2.061 -0.4173 -0.9491  0.1462
 4585TIP3   OH237949   1.882   6.873   2.970  0.2589 -0.0627  0.5600
 4585TIP3    H137950   1.970   6.906   2.951 -0.5319  1.7389 -0.2651
 4585TIP3    H237951   1.830   6.952   2.986 -1.2965 -1.0603  0.6683
 4586TIP3   OH237952   1.207   5.515   7.379 -0.0685 -0.0477 -0.0653
 4586TIP3    H137953   1.128   5.557   7.413  0.6237  0.8686  0.4673
 4586TIP3    H237954   1.188   5.499   7.287 -1.1754 -0.6021  0.2432
 4587TIP3   OH237955   1.901   5.820   3.378 -0.5894 -0.4684 -0.3806
 4587TIP3    H137956   1.852   5.778   3.308 -3.2825 -0.0704  1.1351
 4587TIP3    H237957   1.948   5.749   3.421 -1.1776 -1.1446 -0.8389
 4588TIP3   OH237958   1.358   2.852   9.176  0.4594  0.1805  0.0803
 4588TIP3    H137959   1.273   2.827   9.141  0.3708 -0.0422  0.4494
 4588TIP3    H237960   1.353   2.946   9.190 -0.0088  0.0468  0.8629
 4589TIP3   OH237961   7.622   3.555   1.218 -0.0802 -0.0041  0.5545
 4589TIP3    H137962   7.533   3.519   1.220  0.6096 -1.9141 -0.8293
 4589TIP3    H237963   7.648   3.550   1.126  1.3026  0.9864  0.8656
 4590TIP3   OH237964   3.749   2.058   0.605  0.2412  0.5014  0.5941
 4590TIP3    H137965   3.841   2.053   0.631  0.7750  0.0119 -1.1901
 4590TIP3    H237966   3.700   2.066   0.687  1.8911  1.1359  1.5565
 4591TIP3   OH237967   7.645   3.709   2.434 -0.2046 -0.7733  0.2703
 4591TIP3    H137968   7.740   3.719   2.441 -0.1917  0.0091 -0.7312
 4591TIP3    H237969   7.615   3.695   2.524  0.8263 -0.7410  0.6266
 4592TIP3   OH237970   5.749   5.042   9.371 -0.1169  0.1694 -0.0622
 4592TIP3    H137971   5.841   5.013   9.373  0.2244  1.2109  0.0783
 4592TIP3    H237972   5.705   4.985   9.434  1.2487  2.2003  3.0161
 4593TIP3   OH237973   1.585   2.103   2.939 -0.3698 -0.1849  0.4635
 4593TIP3    H137974   1.654   2.038   2.928 -0.3190 -0.2050  0.8857
 4593TIP3    H237975   1.542   2.107   2.854 -2.8353 -3.5218  1.3536
 4594TIP3   OH237976   1.236   4.662   9.592  0.0801 -0.1556 -0.3063
 4594TIP3    H137977   1.282   4.744   9.573 -2.0902  0.8210 -1.8380
 4594TIP3    H237978   1.267   4.601   9.526  1.3464 -0.4734  0.5415
 4595TIP3   OH237979   6.590   5.012   9.840 -0.2551  0.8870 -0.4557
 4595TIP3    H137980   6.608   5.042   9.929  0.5195 -0.7211 -0.0379
 4595TIP3    H237981   6.580   5.093   9.789 -1.0978  1.8389  1.1422
 4596TIP3   OH237982   5.079   1.064   9.124  0.0484  0.4758  0.3594
 4596TIP3    H137983   5.141   1.135   9.137 -0.7846  1.2134  0.3930
 4596TIP3    H237984   5.080   1.047   9.030  1.6603 -0.7987  0.5544
 4597TIP3   OH237985   6.687   6.282   0.063  0.3707 -0.2137 -0.7700
 4597TIP3    H137986   6.704   6.241  -0.022  0.2695 -0.7442 -0.5447
 4597TIP3    H237987   6.773   6.296   0.101  0.3993 -0.6562 -0.6563
 4598TIP3   OH237988   3.028   1.402   0.064  0.2244 -0.2067 -0.2070
 4598TIP3    H137989   3.046   1.422  -0.028  0.2564 -0.4635 -0.2564
 4598TIP3    H237990   2.962   1.466   0.090  0.0771 -0.2525 -0.4637
 4599TIP3   OH237991   3.384   2.612   0.905  0.4579 -0.3943  0.0837
 4599TIP3    H137992   3.326   2.587   0.976  0.1196 -2.2729 -0.7975
 4599TIP3    H237993   3.457   2.551   0.910  0.5124 -0.4550 -1.0459
 4600TIP3   OH237994   4.179   1.933   0.495  0.0983 -0.2505  0.5344
 4600TIP3    H137995   4.125   1.860   0.465 -0.0841 -1.3457  3.2727
 4600TIP3    H237996   4.118   1.991   0.540  0.3485  1.3931 -1.0986
 4601TIP3   OH237997   5.571   1.561   9.268 -0.6281 -0.2353 -0.0327
 4601TIP3    H137998   5.614   1.635   9.227 -1.6929  2.1466  2.7923
 4601TIP3    H237999   5.493   1.546   9.215 -0.8849  1.3499 -0.1531
 4602TIP3   OH238000   1.946   4.556   7.696  0.3562 -0.4551 -0.4382
 4602TIP3    H138001   1.873   4.600   7.740 -0.9346 -1.5017 -1.4106
 4602TIP3    H238002   1.940   4.586   7.605  0.7177 -1.0661 -0.6678
 4603TIP3   OH238003   4.783   0.799   6.903  0.3400  0.7455  0.4195
 4603TIP3    H138004   4.709   0.853   6.876  0.5636  0.2367 -1.3466
 4603TIP3    H238005   4.850   0.861   6.930 -0.1073  1.2682  0.3344
 4604TIP3   OH238006   0.972   1.709   9.178 -0.1860 -0.0313 -0.2921
 4604TIP3    H138007   0.954   1.664   9.096  0.9712  0.4362 -0.8258
 4604TIP3    H238008   1.067   1.722   9.178 -0.3173  1.0890  0.5355
 4605TIP3   OH238009   7.084   1.494   8.323  0.1068 -0.1678  0.6483
 4605TIP3    H138010   6.992   1.477   8.340 -0.3081  0.9593 -0.3050
 4605TIP3    H238011   7.131   1.427   8.372 -1.2191 -0.7878  1.1030
 4606TIP3   OH238012   6.081   7.077   9.954 -0.5096  0.1788  0.2379
 4606TIP3    H138013   6.126   7.139  10.012  0.0567 -1.5386  1.7248
 4606TIP3    H238014   5.992   7.111   9.947 -0.6199  0.4094  2.2099
 4607TIP3   OH238015   7.336   7.140   7.262 -0.0863 -0.7183 -1.0342
 4607TIP3    H138016   7.404   7.077   7.241  0.7017 -0.4108  0.4420
 4607TIP3    H238017   7.293   7.105   7.340  1.0298  0.9772  0.4412
 4608TIP3   OH238018   5.258   4.008   9.673  0.3685 -0.0943 -0.3142
 4608TIP3    H138019   5.204   4.079   9.706 -1.4318 -0.9800 -1.2284
 4608TIP3    H238020   5.289   3.964   9.753 -2.7024 -1.3045  0.3750
 4609TIP3   OH238021   2.730   5.651   2.510 -0.3300 -0.1068  0.5880
 4609TIP3    H138022   2.781   5.595   2.452 -0.2202 -0.4683  1.0298
 4609TIP3    H238023   2.639   5.629   2.490 -0.2759 -1.0431  1.3372
 4610TIP3   OH238024   3.740   3.965   9.195  0.1999  0.3101 -0.0674
 4610TIP3    H138025   3.711   3.983   9.105 -1.0627 -0.4490  0.1631
 4610TIP3    H238026   3.715   3.874   9.210 -1.2835  0.9446  1.6654
 4611TIP3   OH238027   1.541   2.353   1.850 -0.9371 -0.1077 -0.4640
 4611TIP3    H138028   1.586   2.436   1.832 -0.5343 -0.4652 -1.1969
 4611TIP3    H238029   1.609   2.287   1.837 -1.4551 -0.5997 -0.6911
 4612TIP3   OH238030   3.657   2.755   9.005  0.2537 -0.5095  0.0698
 4612TIP3    H138031   3.747   2.723   9.002  0.8026  0.9347  0.4580
 4612TIP3    H238032   3.641   2.774   9.098  1.1626  3.4644 -0.4054
 4613TIP3   OH238033   3.967   1.733   7.751  0.1302 -0.8373 -0.0901
 4613TIP3    H138034   3.959   1.709   7.659 -0.4741  0.5428 -0.4160
 4613TIP3    H238035   4.012   1.817   7.750 -0.9154 -0.2438  0.8075
 4614TIP3   OH238036   6.888   1.119   0.581 -0.0596 -0.3749  0.3403
 4614TIP3    H138037   6.820   1.183   0.559 -0.8764 -0.8411  1.3640
 4614TIP3    H238038   6.887   1.116   0.677  2.0936  0.3049  0.4249
 4615TIP3   OH238039   0.234   0.397   2.549  0.4062 -0.1711 -0.3258
 4615TIP3    H138040   0.229   0.358   2.461  0.2514  2.6478 -1.7082
 4615TIP3    H238041   0.326   0.424   2.558  0.7360 -1.6073  0.9987
 4616TIP3   OH238042   4.399   1.409   8.123  0.2024  0.0545 -0.2750
 4616TIP3    H138043   4.491   1.434   8.114  0.1825  0.1788 -0.1517
 4616TIP3    H238044   4.400   1.314   8.125  0.2792  0.0399 -0.7975
 4617TIP3   OH238045   5.480   2.687   1.339 -0.3098 -0.5147  0.4096
 4617TIP3    H138046   5.448   2.737   1.415  1.8247  2.1046 -0.2411
 4617TIP3    H238047   5.415   2.703   1.271 -0.8084 -0.4996  0.8824
 4618TIP3   OH238048   5.012   3.129   8.619 -0.3453  0.0990 -0.4001
 4618TIP3    H138049   5.093   3.163   8.656 -1.6926  0.5249  2.3816
 4618TIP3    H238050   5.012   3.036   8.642 -0.6566  0.1055 -0.3634
 4619TIP3   OH238051   4.784   3.734   2.540 -0.5583  0.1561 -0.0766
 4619TIP3    H138052   4.857   3.691   2.495  0.0258 -1.9130  2.5857
 4619TIP3    H238053   4.790   3.826   2.513  1.2959 -0.4743 -2.1112
 4620TIP3   OH238054   4.625   2.090   8.752  0.4058 -0.2049  0.1988
 4620TIP3    H138055   4.629   2.080   8.847  0.6678 -0.7802  0.1247
 4620TIP3    H238056   4.535   2.119   8.736 -0.1329 -1.6555  0.4805
 4621TIP3   OH238057   3.643   2.661   2.722  0.5612 -0.2237  0.5573
 4621TIP3    H138058   3.642   2.659   2.627  0.5199 -0.9419  0.5663
 4621TIP3    H238059   3.723   2.709   2.744  0.1477  0.6591  0.1646
 4622TIP3   OH238060   6.087   1.809   0.012 -0.5346 -0.8235 -0.0520
 4622TIP3    H138061   6.057   1.740   0.072 -0.2345 -1.1449 -0.2652
 4622TIP3    H238062   6.006   1.845  -0.025 -0.7020 -0.9338  0.2017
 4623TIP3   OH238063   7.181   3.696   1.496  0.0130 -0.1140  0.6877
 4623TIP3    H138064   7.243   3.724   1.563  0.2164  1.3324 -0.0603
 4623TIP3    H238065   7.117   3.766   1.491 -0.0688 -0.2478 -0.5255
 4624TIP3   OH238066   5.661   0.916   8.029  0.2599  0.0882  0.0516
 4624TIP3    H138067   5.630   0.876   8.110 -1.5168 -0.6699 -0.9476
 4624TIP3    H238068   5.660   0.845   7.965  1.0115  0.8139 -0.7964
 4625TIP3   OH238069   2.100   0.283   9.124 -0.1970  0.5490 -0.2102
 4625TIP3    H138070   2.031   0.349   9.126 -0.6343  0.0923  1.5303
 4625TIP3    H238071   2.059   0.203   9.157  1.4154  0.5913  2.1977
 4626TIP3   OH238072   7.666   3.947   0.717 -0.1183 -0.1872  0.5376
 4626TIP3    H138073   7.719   3.922   0.642  0.7557  0.0060  1.0851
 4626TIP3    H238074   7.596   3.881   0.719  0.8507 -1.2407  0.6025
 4627TIP3   OH238075   0.357   0.879   0.545  0.5511 -1.4043  0.3089
 4627TIP3    H138076   0.261   0.876   0.548  0.4355  0.0912  3.6815
 4627TIP3    H238077   0.381   0.918   0.630  4.1870 -2.5837 -0.0385
 4628TIP3   OH238078   7.394   1.755   9.161  0.4568 -0.0019 -0.6949
 4628TIP3    H138079   7.309   1.713   9.175  0.0506  0.8742 -0.4957
 4628TIP3    H238080   7.439   1.747   9.245 -0.4536  1.7973  0.0241
 4629TIP3   OH238081   5.383   2.761   7.785 -0.1447  0.5253  0.2024
 4629TIP3    H138082   5.453   2.805   7.834  1.0779 -1.3371  0.2152
 4629TIP3    H238083   5.400   2.783   7.694  1.1582 -0.7839  0.0986
 4630TIP3   OH238084   0.650   0.210   0.904 -0.1371 -0.0260  0.6584
 4630TIP3    H138085   0.601   0.251   0.832  0.1500  0.0430  0.5013
 4630TIP3    H238086   0.601   0.233   0.983  0.1140  0.7668  0.5913
 4631TIP3   OH238087   7.449   1.728   7.304 -0.4708  0.6043 -0.3788
 4631TIP3    H138088   7.518   1.789   7.275  0.6094 -0.2846  0.2350
 4631TIP3    H238089   7.395   1.715   7.227 -1.7678  3.6141 -0.1469
 4632TIP3   OH238090   6.866   2.893   8.020  0.1415  0.0642 -0.2567
 4632TIP3    H138091   6.840   2.945   7.944 -0.2659  1.0294  0.5140
 4632TIP3    H238092   6.915   2.819   7.983 -0.0344  0.5143 -1.4455
 4633TIP3   OH238093   6.210   3.797   1.490  0.1741 -0.0565 -0.5429
 4633TIP3    H138094   6.282   3.745   1.453  0.0263  0.0269 -0.9532
 4633TIP3    H238095   6.132   3.763   1.447 -0.2325 -1.1677  0.9877
 4634TIP3   OH238096   0.884   1.137   1.235 -0.2612 -0.0286 -0.2305
 4634TIP3    H138097   0.933   1.213   1.263 -2.2839  0.6405  1.8447
 4634TIP3    H238098   0.860   1.155   1.144 -0.6228  1.7963  0.1906
 4635TIP3   OH238099   5.741   2.944   2.085 -0.4935  0.2787 -0.1047
 4635TIP3    H138100   5.746   3.036   2.059 -0.0974  0.9848  2.2000
 4635TIP3    H238101   5.818   2.903   2.044 -0.0588  1.2261 -0.2558
 4636TIP3   OH238102   2.092   4.383   9.723  0.4941  0.2280 -0.3441
 4636TIP3    H138103   2.114   4.303   9.675 -0.3996  2.0565 -4.1376
 4636TIP3    H238104   2.155   4.448   9.693 -0.7342  1.7554  0.2136
 4637TIP3   OH238105   5.593   2.812   2.281  0.3262  0.3539  0.1557
 4637TIP3    H138106   5.650   2.843   2.211 -0.4539  0.0536 -0.6222
 4637TIP3    H238107   5.533   2.885   2.298  0.4187  0.3720  0.4052
 4638TIP3   OH238108   2.491   3.379   8.253 -0.0220  0.0674 -0.4902
 4638TIP3    H138109   2.547   3.316   8.207  1.4980  1.5104 -0.7074
 4638TIP3    H238110   2.544   3.410   8.326 -0.8961  0.7878 -0.1451
 4639TIP3   OH238111   3.474   2.276   8.037  0.5104 -0.1081  0.7776
 4639TIP3    H138112   3.467   2.201   8.096 -0.7462  1.6777  3.0359
 4639TIP3    H238113   3.476   2.352   8.094 -2.0056  1.8400 -1.4576
 4640TIP3   OH238114   3.078   6.401   6.508  0.3400 -0.0278  0.8773
 4640TIP3    H138115   3.048   6.398   6.417  0.8647 -0.2787  0.7100
 4640TIP3    H238116   3.037   6.325   6.549 -2.0896  1.5437  1.5534
 4641TIP3   OH238117   1.295   4.489   9.790  0.6992  0.0506 -0.1933
 4641TIP3    H138118   1.258   4.535   9.715  1.2309  0.6055 -0.1218
 4641TIP3    H238119   1.249   4.405   9.791 -0.7513  0.8096  0.0638
 4642TIP3   OH238120   7.248   3.907   9.923  0.2504 -0.5736  0.4917
 4642TIP3    H138121   7.164   3.869   9.896 -0.1097 -0.2318  1.1200
 4642TIP3    H238122   7.313   3.845   9.889 -0.0232  0.7892 -2.9685
 4643TIP3   OH238123   3.249   1.394   1.764  0.5200 -0.4613  0.1794
 4643TIP3    H138124   3.310   1.326   1.733  1.2518 -1.1048  2.7504
 4643TIP3    H238125   3.305   1.457   1.810 -0.5541 -0.1032  1.0388
 4644TIP3   OH238126   5.039   5.814   9.985 -0.1546  0.3554 -0.2646
 4644TIP3    H138127   5.127   5.844   9.961 -0.3246  1.7507  0.7288
 4644TIP3    H238128   4.998   5.791   9.901  0.6414  1.1605 -0.8974
 4645TIP3   OH238129   3.465   1.571   8.370 -0.2495  0.1571  0.1143
 4645TIP3    H138130   3.400   1.587   8.438 -0.6280  0.7481 -0.3793
 4645TIP3    H238131   3.455   1.479   8.348  0.4341 -0.2673  1.4251
 4646TIP3   OH238132   7.277   1.925   8.939 -0.5608 -0.3444 -0.0252
 4646TIP3    H138133   7.316   1.900   9.022  0.4220 -0.5970 -0.5513
 4646TIP3    H238134   7.292   1.850   8.882 -0.7078  0.0570 -0.6038
 4647TIP3   OH238135   5.963   5.351   0.609 -0.4998 -0.0931 -0.4448
 4647TIP3    H138136   6.027   5.282   0.596 -1.8240 -0.8694 -3.8082
 4647TIP3    H238137   6.013   5.432   0.605  0.7354 -0.7399  1.0844
 4648TIP3   OH238138   0.670   6.336   7.689  0.1843 -0.4075 -0.0280
 4648TIP3    H138139   0.673   6.319   7.783 -0.1944  0.8202  0.2250
 4648TIP3    H238140   0.602   6.402   7.679 -0.0221 -0.7711 -1.2172
 4649TIP3   OH238141   2.535   6.230   9.922 -0.7016 -0.3656  0.0788
 4649TIP3    H138142   2.557   6.317   9.888  0.1733 -0.7257 -0.3202
 4649TIP3    H238143   2.479   6.246   9.997 -0.7659  0.5351 -0.1540
 4650TIP3   OH238144   0.588   3.029   7.503  0.0024  0.1593 -0.2752
 4650TIP3    H138145   0.515   2.983   7.462 -0.5610  0.4527  0.3909
 4650TIP3    H238146   0.612   3.097   7.440 -0.1744 -0.0498 -0.5742
 4651TIP3   OH238147   0.514   2.650   2.249  0.5937 -0.2460  0.5385
 4651TIP3    H138148   0.459   2.621   2.176 -0.0777 -1.3857  1.4696
 4651TIP3    H238149   0.471   2.615   2.327  0.8175  1.6727  1.5746
 4652TIP3   OH238150   0.642   7.069   0.900 -0.1120  1.1387 -0.1535
 4652TIP3    H138151   0.597   7.106   0.824 -0.1407 -0.5172 -0.9839
 4652TIP3    H238152   0.730   7.047   0.868 -0.4331 -0.4883 -0.0236
 4653TIP3   OH238153   3.494   2.166   8.977  0.1932  0.0125 -0.3147
 4653TIP3    H138154   3.552   2.138   8.907  0.6013  0.9339 -0.3556
 4653TIP3    H238155   3.514   2.107   9.050  1.2970  0.4150 -0.2726
 4654TIP3   OH238156   1.255   5.997   9.335  0.6174  0.5939  0.1717
 4654TIP3    H138157   1.243   5.924   9.396 -2.8757  0.4549 -0.4852
 4654TIP3    H238158   1.207   6.070   9.375 -0.6752  0.8656 -1.7173
 4655TIP3   OH238159   3.923   6.306   7.464  0.2410 -0.3336  0.1647
 4655TIP3    H138160   3.929   6.401   7.451 -0.4588 -0.5696 -2.3252
 4655TIP3    H238161   3.830   6.289   7.477  0.4040 -0.6806  0.9901
 4656TIP3   OH238162   6.264   1.041   8.574  0.2859 -0.1665  0.1977
 4656TIP3    H138163   6.302   0.994   8.500  1.0988  0.8607 -0.0601
 4656TIP3    H238164   6.293   0.991   8.651 -0.8886 -1.4618 -0.1710
 4657TIP3   OH238165   4.357   3.876   9.987  0.2562  0.1563 -0.0670
 4657TIP3    H138166   4.268   3.905   9.967  0.9702  3.1356  0.5738
 4657TIP3    H238167   4.354   3.851  10.079  0.0527  0.2269 -0.0547
 4658TIP3   OH238168   6.569   6.265   0.923 -0.2159  0.5145 -0.5718
 4658TIP3    H138169   6.482   6.227   0.931 -0.5087  1.0186 -1.1598
 4658TIP3    H238170   6.628   6.191   0.911 -0.5864  0.1782 -0.3001
 4659TIP3   OH238171   4.072   3.280   2.261  0.5337  0.1992  0.3531
 4659TIP3    H138172   4.006   3.211   2.257  0.2746  0.4261  0.6808
 4659TIP3    H238173   4.130   3.255   2.332  1.1594 -0.3093 -0.3193
 4660TIP3   OH238174   2.619   7.410   1.892 -0.2209  0.2699  0.0418
 4660TIP3    H138175   2.615   7.500   1.858 -0.1724  0.7945  1.3397
 4660TIP3    H238176   2.709   7.383   1.877 -0.5145  0.0074 -1.3608
 4661TIP3   OH238177   0.763   5.500   2.100 -0.2562 -0.6028 -0.2290
 4661TIP3    H138178   0.824   5.439   2.059  1.8971  0.8258  0.6694
 4661TIP3    H238179   0.677   5.471   2.071  0.7882 -2.9984 -1.1889
 4662TIP3   OH238180   1.468   2.996   0.857  0.0628  0.7170 -0.3979
 4662TIP3    H138181   1.372   2.992   0.863  0.1325 -1.5007 -0.0934
 4662TIP3    H238182   1.495   3.027   0.944 -0.3563  1.0683 -0.3873
 4663TIP3   OH238183   1.309   2.327   9.335 -0.1005  0.6218  0.2773
 4663TIP3    H138184   1.301   2.417   9.368 -0.8541  0.8948 -0.5754
 4663TIP3    H238185   1.328   2.274   9.412 -2.6395  1.0994  1.3265
 4664TIP3   OH238186   2.112   2.468   7.737  0.2729  0.1956 -0.0178
 4664TIP3    H138187   2.026   2.462   7.695 -0.7706  0.2598  1.9991
 4664TIP3    H238188   2.131   2.562   7.739 -0.8782  0.4344  1.8613
 4665TIP3   OH238189   5.791   3.062   9.459  0.1149  0.2014  0.5285
 4665TIP3    H138190   5.808   3.128   9.527  1.9376 -0.5254  0.8556
 4665TIP3    H238191   5.861   3.075   9.395 -0.7520 -0.0536 -0.4957
 4666TIP3   OH238192   1.804   6.723   2.221  0.3094  0.2149 -0.2205
 4666TIP3    H138193   1.862   6.652   2.193 -0.4982 -0.3700 -0.4532
 4666TIP3    H238194   1.792   6.708   2.315 -2.1548 -1.7472 -0.7320
 4667TIP3   OH238195   1.642   3.025   1.089  0.0015 -1.1032 -0.1004
 4667TIP3    H138196   1.674   3.099   1.140 -2.0420 -0.7332  0.7527
 4667TIP3    H238197   1.718   2.996   1.038  0.7621  1.8288 -0.8128
 4668TIP3   OH238198   7.281   7.493   9.203 -0.1257 -0.2430 -0.2486
 4668TIP3    H138199   7.325   7.565   9.249 -0.5086 -0.5133  0.5465
 4668TIP3    H238200   7.235   7.445   9.271  1.0155 -1.9165 -0.6004
 4669TIP3   OH238201   4.124   3.761   8.559  0.8818 -0.4235 -0.0026
 4669TIP3    H138202   4.033   3.767   8.589  1.0868  0.9725  0.4148
 4669TIP3    H238203   4.163   3.693   8.613  0.2919 -0.4417  0.4073
 4670TIP3   OH238204   3.206   5.131   0.314  0.0340 -0.1963 -0.0562
 4670TIP3    H138205   3.169   5.095   0.395 -0.1595 -1.2178 -0.5850
 4670TIP3    H238206   3.236   5.054   0.266  0.6233  0.4458 -0.7271
 4671TIP3   OH238207   3.550   1.374   7.683  0.1300 -0.0992  0.2881
 4671TIP3    H138208   3.478   1.437   7.676 -0.4666 -0.7542  0.4513
 4671TIP3    H238209   3.570   1.351   7.592  0.8606  0.8787  0.1838
 4672TIP3   OH238210   1.996   5.283   0.840  0.2484 -0.1251 -0.4456
 4672TIP3    H138211   1.995   5.332   0.922  0.7799 -2.6638  1.1693
 4672TIP3    H238212   2.088   5.287   0.811 -0.2705  2.5262 -2.1881
 4673TIP3   OH238213   4.265   5.805   1.498 -0.2738 -0.1820  1.1714
 4673TIP3    H138214   4.318   5.879   1.527 -0.9836  0.7961  0.0848
 4673TIP3    H238215   4.175   5.838   1.500 -0.5227 -0.6686 -0.2455
 4674TIP3   OH238216   2.360   2.344   9.255  0.3621  0.6510 -0.0684
 4674TIP3    H138217   2.396   2.313   9.172 -0.0263  0.2679 -0.0964
 4674TIP3    H238218   2.400   2.430   9.268  1.2610  0.2514 -0.1183
 4675TIP3   OH238219   5.182   3.043   9.873 -0.2231  0.2170  0.4440
 4675TIP3    H138220   5.263   3.035   9.924 -0.0366 -0.7546  0.0069
 4675TIP3    H238221   5.160   3.136   9.879  1.8276  0.8555 -0.8253
 4676TIP3   OH238222   5.390   6.926   9.350 -0.3538 -0.5553  0.0561
 4676TIP3    H138223   5.347   6.866   9.291 -0.5183 -0.6796  0.2996
 4676TIP3    H238224   5.417   7.000   9.295 -0.8753 -0.4750 -0.0949
 4677TIP3   OH238225   1.726   7.387   3.123  0.4730  0.2472 -0.3220
 4677TIP3    H138226   1.753   7.307   3.077  0.8708 -0.1153  0.5196
 4677TIP3    H238227   1.636   7.370   3.150  0.9389 -0.4198  0.8968
 4678TIP3   OH238228   7.110   1.959   9.529  0.3926  0.3566  0.2005
 4678TIP3    H138229   7.174   1.897   9.493  0.4230  0.3800  0.2143
 4678TIP3    H238230   7.159   2.040   9.540  0.5716  0.1535  0.9674
 4679TIP3   OH238231   3.077   4.541   9.989  0.0452 -0.3315 -0.2279
 4679TIP3    H138232   3.023   4.581  10.058 -0.2992 -0.5530 -0.3684
 4679TIP3    H238233   3.052   4.449   9.990  1.6648 -0.8173  0.8869
 4680TIP3   OH238234   4.850   7.078   0.863  0.5237  0.0741 -0.4406
 4680TIP3    H138235   4.817   7.060   0.775  2.6152  1.4429 -1.6005
 4680TIP3    H238236   4.892   7.164   0.856  0.5670  0.3284  1.9677
 4681TIP3   OH238237   3.914   0.599   1.457 -0.5156 -0.2394 -0.3812
 4681TIP3    H138238   3.959   0.645   1.386  2.0002 -0.2533  1.0942
 4681TIP3    H238239   3.888   0.515   1.419 -1.0817  0.5457 -1.8204
 4682TIP3   OH238240   3.099   5.416   9.858 -0.5519 -0.2251  0.4940
 4682TIP3    H138241   3.166   5.397   9.924  0.1105  0.4984  0.0467
 4682TIP3    H238242   3.077   5.331   9.820 -1.4937 -0.7619  2.1431
 4683TIP3   OH238243   4.817   3.971   1.052  0.1150 -0.4126 -0.2065
 4683TIP3    H138244   4.825   4.053   1.100  0.0956 -1.0129  0.8355
 4683TIP3    H238245   4.781   3.996   0.967  1.6102  0.8535 -0.5102
 4684TIP3   OH238246   6.656   1.008   9.553  0.9771  0.7400 -0.3464
 4684TIP3    H138247   6.608   1.018   9.635 -0.6899  0.4112 -1.2242
 4684TIP3    H238248   6.703   0.925   9.563  0.2935  0.3874  0.0673
 4685TIP3   OH238249   6.669   3.812   0.397  0.4803  0.0767 -0.0754
 4685TIP3    H138250   6.620   3.885   0.359 -0.4795  0.6590  2.0723
 4685TIP3    H238251   6.755   3.849   0.416  0.1162  0.5868  0.6624
 4686TIP3   OH238252   7.144   0.937   9.119 -0.2083 -0.1847  0.1465
 4686TIP3    H138253   7.174   0.862   9.169  1.9646  0.4045 -0.1647
 4686TIP3    H238254   7.129   0.902   9.031 -1.2090 -0.6196  0.4642
 4687TIP3   OH238255   0.445   5.136   8.290  0.7673  0.1580  0.0862
 4687TIP3    H138256   0.434   5.046   8.322 -0.3574  0.5328  0.8088
 4687TIP3    H238257   0.442   5.190   8.368 -0.8372  1.0008 -0.5174
 4688TIP3   OH238258   2.519   3.863   2.899  0.2811 -0.3996 -0.1564
 4688TIP3    H138259   2.518   3.811   2.980 -1.5366  0.7470  0.6112
 4688TIP3    H238260   2.431   3.854   2.864  0.1514  1.5109 -0.4121
 4689TIP3   OH238261   1.354   4.707   9.286 -0.1165 -0.1754  0.3035
 4689TIP3    H138262   1.428   4.678   9.339 -1.0918 -3.0985  0.2373
 4689TIP3    H238263   1.353   4.646   9.212 -2.9523 -0.6842  0.6589
 4690TIP3   OH238264   1.437   7.412   9.229 -0.1731  0.4822 -0.3223
 4690TIP3    H138265   1.372   7.465   9.183  0.1471  1.2805  0.1412
 4690TIP3    H238266   1.515   7.467   9.234  0.2773 -0.1576 -0.1368
 4691TIP3   OH238267   2.148   3.446   0.886  0.3322 -0.2569 -0.2137
 4691TIP3    H138268   2.222   3.406   0.841 -1.4412 -1.9290 -1.8877
 4691TIP3    H238269   2.088   3.471   0.815 -0.8232  0.7899  1.0658
 4692TIP3   OH238270   1.297   4.998   1.182  0.4434  0.0608 -0.0755
 4692TIP3    H138271   1.304   5.089   1.212 -1.5073  0.5655 -1.0190
 4692TIP3    H238272   1.352   4.949   1.244 -0.9105  1.4477  2.4155
 4693TIP3   OH238273   6.148   7.017   1.129 -0.2296  0.7826 -0.1868
 4693TIP3    H138274   6.078   6.956   1.153 -1.1845  0.5796 -3.1081
 4693TIP3    H238275   6.119   7.101   1.164 -0.6553  0.2317  0.8326
 4694TIP3   OH238276   3.605   2.580   1.380 -0.3753  0.5590 -0.3192
 4694TIP3    H138277   3.543   2.642   1.420 -0.1471  0.8894 -0.4726
 4694TIP3    H238278   3.607   2.605   1.288 -0.4685  0.1628 -0.4303
 4695TIP3   OH238279   1.237   0.912   1.448  0.3556 -0.0093 -0.2827
 4695TIP3    H138280   1.193   0.840   1.492 -0.6588  0.1572 -0.9965
 4695TIP3    H238281   1.255   0.976   1.517 -0.3145 -0.1852  0.0566
 4696TIP3   OH238282   1.744   6.513   7.432  0.5592  0.1133 -0.0538
 4696TIP3    H138283   1.690   6.450   7.481  0.1942 -0.2942 -0.9498
 4696TIP3    H238284   1.698   6.523   7.349  2.3857 -1.0051 -1.2530
 4697TIP3   OH238285   2.330   5.805   1.331 -0.1244 -0.2425  0.1694
 4697TIP3    H138286   2.395   5.763   1.274 -0.9006  0.0304 -0.9655
 4697TIP3    H238287   2.326   5.895   1.298 -0.3142  0.0289  0.9270
 4698TIP3   OH238288   0.119   0.346   2.107  0.1023  0.1687  0.4003
 4698TIP3    H138289   0.141   0.308   2.192  0.1730 -0.3644  0.1465
 4698TIP3    H238290   0.024   0.359   2.112  0.0819 -0.0051  0.5062
 4699TIP3   OH238291   0.419   5.464   0.719  0.0037  0.0778 -0.0929
 4699TIP3    H138292   0.330   5.499   0.709 -0.3609 -1.1164 -1.3041
 4699TIP3    H238293   0.419   5.427   0.807 -0.0389  1.8091  0.6798
 4700TIP3   OH238294   1.335   0.456   8.016  0.3606  0.2256 -0.4981
 4700TIP3    H138295   1.418   0.414   8.038  0.7534 -0.2571 -2.6740
 4700TIP3    H238296   1.292   0.469   8.100  1.4978 -1.9051  0.4889
 4701TIP3   OH238297   5.593   5.723   2.253  0.1097 -0.3409 -0.5683
 4701TIP3    H138298   5.598   5.795   2.189 -0.4611 -1.5786 -2.0791
 4701TIP3    H238299   5.508   5.734   2.295 -0.6239 -0.8909 -1.8207
 4702TIP3   OH238300   0.812   6.047   1.507  0.0461  0.3432  0.2020
 4702TIP3    H138301   0.792   6.098   1.429  1.7921  1.0342  0.1625
 4702TIP3    H238302   0.745   5.979   1.509 -0.5287  0.8168 -1.4306
 4703TIP3   OH238303   4.069   2.411   8.331 -0.0861  0.4164  0.0086
 4703TIP3    H138304   4.063   2.427   8.425  0.1618 -3.0190  0.7293
 4703TIP3    H238305   3.978   2.404   8.301 -0.2391 -2.4397  0.8926
 4704TIP3   OH238306   3.489   1.014   7.105  0.4492  0.2285 -0.3277
 4704TIP3    H138307   3.512   0.923   7.087  1.4668  0.3927  0.0899
 4704TIP3    H238308   3.552   1.042   7.171 -1.5312  0.4328  1.5698
 4705TIP3   OH238309   1.933   2.612   8.398 -0.0435 -0.2858  0.5564
 4705TIP3    H138310   1.881   2.533   8.414  0.6294 -0.9101 -0.1987
 4705TIP3    H238311   1.869   2.682   8.390 -0.6204 -0.6327  1.8581
 4706TIP3   OH238312   1.698   3.704   6.455  0.4496  0.2609  0.4661
 4706TIP3    H138313   1.768   3.770   6.460  0.0347  0.8034 -0.6737
 4706TIP3    H238314   1.627   3.747   6.408  0.4810 -1.2651 -1.0744
 4707TIP3   OH238315   1.216   6.980   1.995 -0.7499  0.1284  0.1235
 4707TIP3    H138316   1.212   7.012   1.905 -0.4107  0.9623  0.3960
 4707TIP3    H238317   1.146   6.915   2.001 -0.7751  0.0663 -0.7376
 4708TIP3   OH238318   5.828   7.241   2.253 -0.3163 -0.2882  0.2950
 4708TIP3    H138319   5.804   7.333   2.261 -1.1198 -0.1847 -2.2699
 4708TIP3    H238320   5.755   7.202   2.204  0.3854 -2.1171  0.6319
 4709TIP3   OH238321   4.160   5.411   1.447  0.3736 -0.7034 -0.5588
 4709TIP3    H138322   4.125   5.401   1.358 -0.3375  2.8941 -0.8458
 4709TIP3    H238323   4.205   5.496   1.445  0.4597 -0.5675  2.4840
 4710TIP3   OH238324   4.690   6.053   7.973  0.4547 -0.2568 -0.0342
 4710TIP3    H138325   4.678   6.096   7.888  2.2020 -1.3649 -0.8969
 4710TIP3    H238326   4.629   5.979   7.971  0.6181 -0.3844 -0.4168
 4711TIP3   OH238327   2.197   1.703   0.636 -0.6621  0.4167 -0.1917
 4711TIP3    H138328   2.291   1.692   0.655 -0.8062 -0.5724 -0.0289
 4711TIP3    H238329   2.155   1.696   0.722 -0.8714  1.0838 -0.2368
 4712TIP3   OH238330   6.245   6.678   9.094 -0.0118  0.2128 -0.0135
 4712TIP3    H138331   6.192   6.599   9.084 -1.2984  0.8396  1.4133
 4712TIP3    H238332   6.281   6.671   9.183 -2.1370  2.3116  1.1179
 4713TIP3   OH238333   1.547   6.043   7.675  0.0155  0.3774  0.2450
 4713TIP3    H138334   1.594   5.960   7.674  1.0919  0.9511 -2.1320
 4713TIP3    H238335   1.592   6.095   7.742  0.0070 -0.5577  0.9987
 4714TIP3   OH238336   5.514   5.856   9.935  0.4066 -0.2204 -0.4390
 4714TIP3    H138337   5.580   5.841  10.002  0.7126  0.8339 -0.5015
 4714TIP3    H238338   5.474   5.940   9.957 -0.5600 -0.5901 -0.7028
 4715TIP3   OH238339   1.463   0.732   1.632  0.1814 -0.2904 -0.8333
 4715TIP3    H138340   1.439   0.648   1.669  1.2695 -0.7132 -1.0461
 4715TIP3    H238341   1.557   0.725   1.614  0.1418  0.6953 -1.5543
 4716TIP3   OH238342   5.124   4.127   7.715 -0.3990 -0.0745 -0.1013
 4716TIP3    H138343   5.177   4.192   7.667 -0.7476  0.1868 -0.1364
 4716TIP3    H238344   5.167   4.043   7.697  0.0682  0.1477 -0.0385
 4717TIP3   OH238345   6.096   2.970   8.749  0.0856  0.2779  0.2309
 4717TIP3    H138346   6.059   3.038   8.692 -2.6268 -3.0022 -2.4094
 4717TIP3    H238347   6.020   2.934   8.795  0.8561 -2.6409 -0.5627
 4718TIP3   OH238348   3.327   4.534   1.341 -0.4256 -0.1964  0.3442
 4718TIP3    H138349   3.403   4.547   1.397 -0.4054 -0.1660  0.3099
 4718TIP3    H238350   3.273   4.470   1.387 -0.5891  0.1124  0.5828
 4719TIP3   OH238351   2.417   3.848   7.671 -0.3093 -0.3255 -0.5071
 4719TIP3    H138352   2.390   3.934   7.705 -1.4156 -0.9510  0.2854
 4719TIP3    H238353   2.508   3.860   7.645 -0.1845  0.8762  0.3766
 4720TIP3   OH238354   3.780   4.492   9.086 -0.1074 -0.3988 -0.3624
 4720TIP3    H138355   3.724   4.524   9.015 -1.8107 -2.6661 -0.1809
 4720TIP3    H238356   3.838   4.565   9.107 -3.9445  2.7377  0.4437
 4721TIP3   OH238357   3.496   1.237   1.673  0.5311 -0.1021 -0.8105
 4721TIP3    H138358   3.560   1.309   1.676 -1.1884  1.4855  1.0757
 4721TIP3    H238359   3.535   1.168   1.726  1.1918  0.3672 -0.6664
 4722TIP3   OH238360   5.331   6.172   8.097 -0.0132  0.6503  0.5645
 4722TIP3    H138361   5.257   6.111   8.089  0.5852  0.0882 -1.0044
 4722TIP3    H238362   5.351   6.172   8.190 -3.3512  2.4881  1.4603
 4723TIP3   OH238363   2.956   2.115   8.655 -0.8778  0.4362  0.5629
 4723TIP3    H138364   3.039   2.137   8.697 -0.8418 -0.6084  1.0661
 4723TIP3    H238365   2.896   2.097   8.728  0.0232 -4.7030  0.4057
 4724TIP3   OH238366   1.480   4.786   7.270  0.7831  0.1586  0.1589
 4724TIP3    H138367   1.553   4.730   7.246  2.2631  1.7933  0.6340
 4724TIP3    H238368   1.474   4.850   7.199 -0.6969 -0.4087 -0.2539
 4725TIP3   OH238369   5.589   1.846   1.802 -0.0412  0.2226  0.3839
 4725TIP3    H138370   5.560   1.934   1.778  0.2365  0.1698 -0.1666
 4725TIP3    H238371   5.684   1.850   1.798 -0.0087  0.0624  0.9678
 4726TIP3   OH238372   4.220   3.810   8.053 -0.0706  0.4759 -0.8739
 4726TIP3    H138373   4.241   3.815   8.146  1.3635 -0.5779 -1.1044
 4726TIP3    H238374   4.174   3.892   8.034  0.1413  0.9659  0.6229
 4727TIP3   OH238375   0.773   1.869   6.878  0.0814 -0.2938 -0.1054
 4727TIP3    H138376   0.714   1.862   6.953 -0.1102  0.8001 -0.1331
 4727TIP3    H238377   0.721   1.841   6.803 -0.2991  0.3590 -0.0840
 4728TIP3   OH238378   2.626   1.439   1.386 -0.1430 -0.0034  0.7859
 4728TIP3    H138379   2.648   1.501   1.316  0.2639 -0.9524  0.0459
 4728TIP3    H238380   2.531   1.445   1.394  0.0334  2.1513  2.1188
 4729TIP3   OH238381   0.253   5.975   9.135 -0.3126  0.3017  0.2219
 4729TIP3    H138382   0.295   6.060   9.149  1.5412 -0.6992  1.1992
 4729TIP3    H238383   0.261   5.958   9.041  0.4797  0.6511  0.2200
 4730TIP3   OH238384   4.270   0.176   8.156 -0.2413 -0.0190  0.4705
 4730TIP3    H138385   4.189   0.221   8.134 -0.7394 -0.5992  1.0995
 4730TIP3    H238386   4.293   0.209   8.243 -2.0011 -2.8008  2.1326
 4731TIP3   OH238387   3.619   7.672   0.239 -0.0682 -0.3847 -0.7426
 4731TIP3    H138388   3.600   7.761   0.212 -1.7839 -0.2440  0.7443
 4731TIP3    H238389   3.618   7.621   0.157  2.4826  1.1163 -1.8219
 4732TIP3   OH238390   2.939   2.368   9.100 -0.5079  0.0850 -0.6387
 4732TIP3    H138391   2.998   2.293   9.114 -0.3873  0.1528 -0.7881
 4732TIP3    H238392   2.969   2.407   9.018 -0.9351 -0.0443 -0.8554
 4733TIP3   OH238393   1.358   4.123   7.819  0.1899 -0.1001 -0.3933
 4733TIP3    H138394   1.286   4.060   7.815  0.5318 -0.6671  1.3827
 4733TIP3    H238395   1.343   4.171   7.900  2.1643 -0.7058  0.3812
 4734TIP3   OH238396   2.146   4.909   9.707  0.0034  0.1954  0.0370
 4734TIP3    H138397   2.150   5.004   9.723 -0.7151 -0.1240  2.6489
 4734TIP3    H238398   2.221   4.873   9.754 -0.1745 -0.6056 -0.2703
 4735TIP3   OH238399   4.522   5.049   8.423 -0.5964 -0.0463 -0.2594
 4735TIP3    H138400   4.548   5.009   8.506 -0.0110  0.2885 -0.2790
 4735TIP3    H238401   4.426   5.043   8.423 -0.6370  0.4112  0.6781
 4736TIP3   OH238402   5.238   3.200   0.331  0.0178  0.2105  0.4015
 4736TIP3    H138403   5.185   3.151   0.395  0.0213 -1.2320 -0.6445
 4736TIP3    H238404   5.192   3.283   0.321 -1.5624 -0.6260  0.2278
 4737TIP3   OH238405   6.629   5.328   0.776 -0.0499 -0.4036 -0.1080
 4737TIP3    H138406   6.692   5.366   0.837  1.6058 -2.2190 -0.5780
 4737TIP3    H238407   6.681   5.271   0.719 -1.7935 -0.1905 -2.0609
 4738TIP3   OH238408   4.741   5.214   9.223 -0.1974  0.0165  0.1866
 4738TIP3    H138409   4.674   5.281   9.210  0.6102  0.6556 -0.8137
 4738TIP3    H238410   4.710   5.138   9.173 -0.6393 -0.0275  0.5233
 4739TIP3   OH238411   0.250   4.496   8.635 -0.3141  0.7922 -0.2700
 4739TIP3    H138412   0.257   4.492   8.540  2.6957  1.2702 -0.1582
 4739TIP3    H238413   0.193   4.422   8.658  2.6254 -2.3683 -2.2190
 4740TIP3   OH238414   1.415   6.732   1.132  0.3991 -0.0921 -0.2854
 4740TIP3    H138415   1.339   6.766   1.178 -1.3047 -1.4086 -1.9791
 4740TIP3    H238416   1.404   6.637   1.133  1.5426 -0.2672 -1.3561
 4741TIP3   OH238417   3.940   2.817   8.432 -0.0516 -0.4424 -0.1642
 4741TIP3    H138418   3.937   2.776   8.345  1.4910 -1.3449  0.1578
 4741TIP3    H238419   3.882   2.763   8.486 -1.0153  0.1211 -0.6164
 4742TIP3   OH238420   0.886   2.790   9.586 -0.1253  0.4753  0.4208
 4742TIP3    H138421   0.835   2.736   9.647  0.6085 -0.4801  0.2240
 4742TIP3    H238422   0.825   2.809   9.515 -0.6025  0.4854  0.8293
 4743TIP3   OH238423   2.196   7.366   0.201 -0.3663  0.6370 -0.2205
 4743TIP3    H138424   2.182   7.405   0.116  1.3083  3.3000  0.6130
 4743TIP3    H238425   2.215   7.439   0.259  2.3639 -1.3157  1.6228
 4744TIP3   OH238426   0.832   6.660   8.898  0.5699 -0.5828  0.9198
 4744TIP3    H138427   0.755   6.668   8.842 -0.5538 -0.0028  2.4797
 4744TIP3    H238428   0.906   6.674   8.839 -0.5977  1.7582 -0.1323
 4745TIP3   OH238429   6.091   1.524   0.398  0.2347 -0.0239 -0.2270
 4745TIP3    H138430   6.064   1.475   0.475 -0.0213 -0.9624 -0.9081
 4745TIP3    H238431   6.169   1.478   0.366  0.3696  0.3906 -0.5068
 4746TIP3   OH238432   6.800   1.865   0.363  0.1081 -0.6846  0.4348
 4746TIP3    H138433   6.866   1.869   0.293  0.0019  0.2536  0.3730
 4746TIP3    H238434   6.717   1.855   0.316 -0.0067  0.3469  0.3774
 4747TIP3   OH238435   6.833   1.478   7.910 -0.9190 -0.4744  0.7492
 4747TIP3    H138436   6.863   1.569   7.908 -0.6713 -0.5550  0.7009
 4747TIP3    H238437   6.810   1.458   7.819 -0.7018 -0.5472  0.7091
 4748TIP3   OH238438   0.979   3.431   7.007  0.2136 -0.0072  0.1881
 4748TIP3    H138439   0.952   3.500   6.947 -0.3852 -1.6014 -1.4831
 4748TIP3    H238440   0.908   3.424   7.070  1.5757  2.7968  2.2246
 4749TIP3   OH238441   5.521   5.791   8.169 -0.2835 -0.0975 -0.0154
 4749TIP3    H138442   5.522   5.872   8.219  0.2579 -0.0057 -0.1695
 4749TIP3    H238443   5.459   5.807   8.097 -2.9067 -1.0213  1.8834
 4750TIP3   OH238444   7.465   2.977   0.148 -0.0963 -0.8043  0.2879
 4750TIP3    H138445   7.479   2.983   0.243 -0.0050  0.5331  0.2175
 4750TIP3    H238446   7.545   3.013   0.110 -0.9684  0.6881 -0.2345
 4751TIP3   OH238447   0.781   3.996   0.077 -0.1493 -0.4228  0.2966
 4751TIP3    H138448   0.796   4.006  -0.017 -0.6636  0.0336  0.2548
 4751TIP3    H238449   0.764   3.903   0.089  0.6696 -0.6138  0.0539
 4752TIP3   OH238450   0.011   5.048   8.836  0.0003 -0.3368  0.3200
 4752TIP3    H138451   0.088   5.089   8.875 -1.0775  1.7999  0.3381
 4752TIP3    H238452  -0.029   5.000   8.908 -1.2202  2.4506  1.6322
 4753TIP3   OH238453   6.866   0.965   8.882 -0.1160  0.4834  0.0031
 4753TIP3    H138454   6.877   1.012   8.965 -1.1048  0.2797  0.2610
 4753TIP3    H238455   6.945   0.912   8.874 -0.6335 -0.6002  1.5457
 4754TIP3   OH238456   1.698   3.622   0.194 -0.1704  0.5307 -0.1165
 4754TIP3    H138457   1.632   3.672   0.241 -0.9113  0.6202 -1.2359
 4754TIP3    H238458   1.781   3.658   0.225 -0.6721  2.1896 -0.5850
 4755TIP3   OH238459   1.062   4.490   0.691 -0.3738  0.2795 -0.5235
 4755TIP3    H138460   1.017   4.556   0.743 -0.8337  0.2723 -0.9011
 4755TIP3    H238461   1.046   4.408   0.738 -0.1704  0.3734 -0.2884
 4756TIP3   OH238462   3.831   0.926   0.201  0.6894 -0.0162  0.5432
 4756TIP3    H138463   3.897   0.962   0.141 -0.9154  0.4979 -1.0406
 4756TIP3    H238464   3.845   0.832   0.199  1.0309  0.0391 -0.2445
 4757TIP3   OH238465   3.520   3.163   9.922  0.0579 -0.5263 -0.1068
 4757TIP3    H138466   3.450   3.101   9.900  0.0348 -0.6927  0.4204
 4757TIP3    H238467   3.576   3.164   9.844 -0.9176  0.1644 -0.8297
 4758TIP3   OH238468   5.510   6.193   8.675  0.2953 -0.2093  0.0819
 4758TIP3    H138469   5.537   6.239   8.595  0.7008  1.6696  1.2518
 4758TIP3    H238470   5.417   6.212   8.683  0.2105 -0.5659 -0.0392
 4759TIP3   OH238471   3.345   4.409   9.464 -0.4304 -0.0651  0.4248
 4759TIP3    H138472   3.342   4.420   9.559  0.9869 -0.2511  0.5095
 4759TIP3    H238473   3.430   4.444   9.438 -1.3001  1.1667 -0.9561
 4760TIP3   OH238474   5.789   1.917   0.245  0.0847  0.4477 -0.0170
 4760TIP3    H138475   5.760   1.994   0.294 -0.5569 -0.1662  0.5915
 4760TIP3    H238476   5.871   1.892   0.286 -0.0737  0.3824  0.2650
 4761TIP3   OH238477   1.636   1.503   0.122 -0.1692 -0.2470 -0.6649
 4761TIP3    H138478   1.731   1.512   0.126 -0.0376  0.0885 -3.0417
 4761TIP3    H238479   1.622   1.417   0.082 -0.9722 -1.2446  1.5839
 4762TIP3   OH238480   2.987   7.125   9.566 -0.1656 -0.6395  0.1237
 4762TIP3    H138481   2.972   7.183   9.641 -1.3635  0.0335 -0.5932
 4762TIP3    H238482   3.038   7.178   9.505  0.6517 -1.1261  0.3658
 4763TIP3   OH238483   6.084   3.584   1.719 -0.1279  0.0678 -0.2187
 4763TIP3    H138484   6.074   3.539   1.804  0.6937  0.1027 -0.0911
 4763TIP3    H238485   6.025   3.659   1.724  0.0435  0.1665  0.3979
 4764TIP3   OH238486   0.119   2.240   8.595  0.0741  0.5217  0.0380
 4764TIP3    H138487   0.121   2.192   8.512 -0.5059  0.4616  0.0505
 4764TIP3    H238488   0.074   2.321   8.574  0.0395  0.5601  0.2666
 4765TIP3   OH238489   4.587   6.660   1.546  0.1394  0.1049 -0.2988
 4765TIP3    H138490   4.506   6.617   1.571  0.3819  0.4162  1.1600
 4765TIP3    H238491   4.646   6.589   1.522 -0.1405 -0.2264 -0.0160
 4766TIP3   OH238492   0.431   6.361   8.541  0.4369  0.0923 -0.1805
 4766TIP3    H138493   0.403   6.296   8.477 -0.1333 -0.0465  0.2041
 4766TIP3    H238494   0.393   6.332   8.623  1.4151  0.0965  0.2952
 4767TIP3   OH238495   6.682   4.504   1.599 -0.5680 -0.0409 -0.0715
 4767TIP3    H138496   6.673   4.415   1.634 -1.9646 -0.2120 -0.8015
 4767TIP3    H238497   6.722   4.492   1.513  0.3091  0.1455  0.3033
 4768TIP3   OH238498   2.985   0.744   0.568  0.2250 -0.1870  0.0437
 4768TIP3    H138499   2.968   0.680   0.498  3.3457 -1.8393  0.5898
 4768TIP3    H238500   3.045   0.807   0.529 -0.1595  0.4802  0.5028
 4769TIP3   OH238501   5.208   4.202   9.055  0.3033 -0.7403  0.7058
 4769TIP3    H138502   5.232   4.248   8.975  0.4656  0.9492  1.6551
 4769TIP3    H238503   5.113   4.195   9.052  0.3026 -0.5917  0.3983
 4770TIP3   OH238504   1.156   1.043   9.855  0.2093 -0.0247 -0.6728
 4770TIP3    H138505   1.110   0.985   9.917  1.2854 -0.0301  0.1447
 4770TIP3    H238506   1.096   1.049   9.780 -0.5646 -1.0386 -0.1729
 4771TIP3   OH238507   4.969   6.843   7.487 -0.2392  0.4334 -0.1207
 4771TIP3    H138508   4.984   6.926   7.442 -2.0397  0.1562 -1.3010
 4771TIP3    H238509   4.920   6.866   7.566  1.3204  0.7125  0.8074
 4772TIP3   OH238510   0.601   1.013   1.630 -0.3881  0.1123 -0.4816
 4772TIP3    H138511   0.676   0.959   1.656 -1.0542 -1.3946 -1.5292
 4772TIP3    H238512   0.557   1.034   1.712  0.7604  0.3870  0.0827
 4773TIP3   OH238513   6.606   4.291   9.958 -0.0288 -0.4869  0.1809
 4773TIP3    H138514   6.553   4.303   9.879  0.3251 -0.6130 -0.0757
 4773TIP3    H238515   6.653   4.373   9.969 -0.6489 -0.1961  0.6872
 4774TIP3   OH238516   4.241   5.059   8.363  0.0515 -0.0298 -0.5811
 4774TIP3    H138517   4.163   5.004   8.363 -0.7169  1.0319 -0.2348
 4774TIP3    H238518   4.214   5.138   8.409  1.1446  0.6204 -1.0375
 4775TIP3   OH238519   2.953   7.061   7.112  0.4454 -0.4125 -0.0713
 4775TIP3    H138520   3.023   7.018   7.161  0.0263 -0.6967  0.2935
 4775TIP3    H238521   2.877   7.003   7.124 -0.3700  0.8697  1.1733
 4776TIP3   OH238522   7.343   7.342   1.382 -0.0290  0.4526 -0.2711
 4776TIP3    H138523   7.365   7.262   1.430 -0.2239  0.7593  0.3271
 4776TIP3    H238524   7.335   7.313   1.291  3.1586  0.3601 -0.6331
 4777TIP3   OH238525   0.697   5.414   9.359  0.0187 -0.0248  0.0316
 4777TIP3    H138526   0.686   5.363   9.439  1.4296  2.0781  1.6762
 4777TIP3    H238527   0.655   5.498   9.378 -1.0639 -0.0034 -2.0916
 4778TIP3   OH238528   1.507   0.648   0.899  0.1504 -0.2397 -0.8503
 4778TIP3    H138529   1.529   0.677   0.987 -1.2137 -1.6416  0.0068
 4778TIP3    H238530   1.522   0.554   0.900 -1.8801 -0.6218 -1.4150
 4779TIP3   OH238531   1.484   2.626   8.961 -0.0578  0.5744 -0.0621
 4779TIP3    H138532   1.518   2.542   8.993  0.7588  0.6946 -0.5973
 4779TIP3    H238533   1.390   2.621   8.978 -0.1873 -0.8848 -1.0085
 4780TIP3   OH238534   6.543   4.555   0.258 -0.0341 -0.5618 -0.2558
 4780TIP3    H138535   6.527   4.528   0.167 -2.3069 -2.1447  0.5270
 4780TIP3    H238536   6.482   4.628   0.271 -0.3746 -0.9341  0.2504
 4781TIP3   OH238537   0.194   0.493   7.493 -0.0333  0.4832 -0.4574
 4781TIP3    H138538   0.285   0.525   7.492  0.0604  0.2822  0.4748
 4781TIP3    H238539   0.187   0.444   7.575 -1.5080  2.0265  0.4018
 4782TIP3   OH238540   2.920   4.676   7.373 -0.4111 -0.0419  0.3258
 4782TIP3    H138541   2.908   4.718   7.288  1.2547 -0.5941 -0.2358
 4782TIP3    H238542   2.842   4.621   7.384 -0.2377 -0.6649 -1.2873
 4783TIP3   OH238543   2.476   3.587   1.561 -0.4058  0.1382 -0.4823
 4783TIP3    H138544   2.388   3.604   1.596 -0.4545  1.2041 -1.0594
 4783TIP3    H238545   2.464   3.590   1.466  0.0926 -0.6399 -0.5745
 4784TIP3   OH238546   2.748   5.342   2.170 -0.6733 -0.0535 -0.0734
 4784TIP3    H138547   2.690   5.364   2.097 -0.8918  0.2550  0.1863
 4784TIP3    H238548   2.776   5.253   2.153 -0.1382  0.2693 -0.9125
 4785TIP3   OH238549   2.262   4.661   8.612 -0.2160 -0.2312  0.3182
 4785TIP3    H138550   2.177   4.662   8.656  0.5932 -0.5796  1.9615
 4785TIP3    H238551   2.293   4.571   8.621  0.1003 -0.2369 -0.7297
 4786TIP3   OH238552   7.364   3.829   9.361  0.1627 -0.0718 -0.1122
 4786TIP3    H138553   7.398   3.766   9.425 -0.3906  1.6334  1.9543
 4786TIP3    H238554   7.271   3.809   9.354 -0.3993  1.5463  1.9173
 4787TIP3   OH238555   3.943   7.374   1.576 -0.9748  0.7739  0.0394
 4787TIP3    H138556   3.939   7.310   1.505  0.2183  0.0036  0.6356
 4787TIP3    H238557   3.945   7.322   1.656  1.1516  1.4671  0.4968
 4788TIP3   OH238558   6.310   4.868   1.006  0.0767  0.2475 -0.5089
 4788TIP3    H138559   6.283   4.958   1.024 -0.8257 -0.4565  2.0855
 4788TIP3    H238560   6.382   4.852   1.068  0.4832 -0.7121 -1.2098
 4789TIP3   OH238561   1.339   0.251   2.230 -0.1020  0.1047  0.2291
 4789TIP3    H138562   1.385   0.296   2.301 -0.9788  2.2114 -0.4637
 4789TIP3    H238563   1.379   0.285   2.150 -2.9129  2.2797 -0.4179
 4790TIP3   OH238564   0.765   3.098   6.962  0.0464 -0.7606  0.1107
 4790TIP3    H138565   0.685   3.050   6.941  0.3211 -1.2200  0.1117
 4790TIP3    H238566   0.760   3.113   7.056  1.0793 -2.8763  0.5615
 4791TIP3   OH238567   0.906   7.352   1.815 -0.3042 -0.3788  0.7065
 4791TIP3    H138568   0.894   7.325   1.906 -0.7899  3.3392  1.9178
 4791TIP3    H238569   0.832   7.410   1.797  0.5031  0.0507 -1.6261
 4792TIP3   OH238570   3.722   0.298   2.234 -0.4964 -0.2885  0.0521
 4792TIP3    H138571   3.797   0.354   2.215  0.7780 -1.8083  0.3504
 4792TIP3    H238572   3.668   0.302   2.155  0.6131 -0.2368 -0.7354
 4793TIP3   OH238573   6.310   1.213   8.886  0.7426  0.5303  0.1893
 4793TIP3    H138574   6.381   1.189   8.827 -0.6080 -0.0865 -1.2793
 4793TIP3    H238575   6.238   1.154   8.862 -0.4312  1.4633  1.2486
 4794TIP3   OH238576   0.730   6.472   9.089  0.9645  0.2339  0.1626
 4794TIP3    H138577   0.758   6.387   9.055  0.9490  0.6679 -0.9574
 4794TIP3    H238578   0.756   6.535   9.022 -2.7402  0.6903 -1.1049
 4795TIP3   OH238579   0.035   4.135   0.904 -0.3682 -0.8538  0.0196
 4795TIP3    H138580   0.024   4.078   0.828  0.6222  0.3918 -1.1152
 4795TIP3    H238581  -0.030   4.204   0.892 -0.1430 -0.6003  0.2439
 4796TIP3   OH238582   0.214   5.198   1.443  0.1428 -0.5511 -0.5454
 4796TIP3    H138583   0.243   5.162   1.527  0.7263  1.7932  0.3310
 4796TIP3    H238584   0.158   5.272   1.467  0.7320  0.4856 -2.2186
 4797TIP3   OH238585   6.654   3.657   0.969 -0.1107  0.5328  0.1157
 4797TIP3    H138586   6.574   3.664   0.916 -0.3640  0.3007  0.4666
 4797TIP3    H238587   6.709   3.595   0.921  0.0224  0.9875 -0.3276
 4798TIP3   OH238588   0.190   4.974   8.061  0.3759  0.1264 -0.6275
 4798TIP3    H138589   0.109   5.013   8.028 -0.3327 -0.2883  0.5653
 4798TIP3    H238590   0.244   4.962   7.983 -0.1795  1.6217 -1.2712
 4799TIP3   OH238591   2.636   3.096   8.691 -0.1048 -0.1139  0.3028
 4799TIP3    H138592   2.562   3.147   8.725 -1.4826 -2.2024  0.5874
 4799TIP3    H238593   2.611   3.005   8.704  0.9511 -0.9958 -2.9375
 4800TIP3   OH238594   3.049   6.201   0.272 -0.7689  0.3116  0.1545
 4800TIP3    H138595   3.081   6.129   0.327 -1.9848 -0.8648 -0.6260
 4800TIP3    H238596   3.123   6.261   0.267  0.3362 -0.9387  0.7269
 4801TIP3   OH238597   1.534   1.228   6.888  0.2843  0.1603  0.6279
 4801TIP3    H138598   1.560   1.304   6.836  1.8877  0.4262  1.7267
 4801TIP3    H238599   1.447   1.250   6.921 -1.1986 -0.4131 -2.5720
 4802TIP3   OH238600   2.940   0.156   0.782 -0.0886  0.0734  0.0468
 4802TIP3    H138601   2.899   0.234   0.746  0.4375  0.3037 -0.0613
 4802TIP3    H238602   2.980   0.186   0.864 -1.6741 -0.5423  1.0849
 4803TIP3   OH238603   0.419   2.159   9.758  0.6776 -0.0351 -0.3701
 4803TIP3    H138604   0.328   2.185   9.742  0.7865  0.1186 -0.7466
 4803TIP3    H238605   0.424   2.146   9.852  0.2155 -0.2262 -0.3690
 4804TIP3   OH238606   1.185   1.504   8.735 -0.2942  0.5391 -0.0631
 4804TIP3    H138607   1.245   1.578   8.739 -0.9746  1.2393 -1.7952
 4804TIP3    H238608   1.156   1.501   8.643 -1.9919 -0.4975  0.4587
 4805TIP3   OH238609   4.279   1.702   9.366 -0.2163 -0.0937 -0.1587
 4805TIP3    H138610   4.289   1.642   9.439 -0.8468  0.1012  0.0991
 4805TIP3    H238611   4.355   1.686   9.310  0.7412  0.3931  0.9841
 4806TIP3   OH238612   0.049   7.470   0.261  0.0772  0.1505  0.2332
 4806TIP3    H138613   0.065   7.384   0.220  0.6926  1.2049 -1.8774
 4806TIP3    H238614   0.133   7.495   0.298  0.6954  1.0414 -1.6477
 4807TIP3   OH238615   3.279   6.193   9.454  0.0950 -0.0822  0.6970
 4807TIP3    H138616   3.340   6.262   9.429 -0.9784  0.2388 -1.2431
 4807TIP3    H238617   3.332   6.114   9.458  0.8858  0.4272  0.4461
 4808TIP3   OH238618   0.760   5.325   0.093  0.6514  0.2369 -0.2060
 4808TIP3    H138619   0.842   5.276   0.095  0.0899 -0.7858 -1.1348
 4808TIP3    H238620   0.761   5.377   0.173  1.6578 -0.6587  0.3905
 4809TIP3   OH238621   3.084   6.198   6.286  0.6170 -0.5393  0.1418
 4809TIP3    H138622   3.161   6.231   6.334  1.0347 -1.7085  0.3042
 4809TIP3    H238623   3.074   6.108   6.316 -0.8247 -0.4119  0.1054
 4810TIP3   OH238624   5.596   7.419   8.599  0.1751  0.1415  0.2064
 4810TIP3    H138625   5.542   7.498   8.600 -3.2698 -1.9551  1.8078
 4810TIP3    H238626   5.551   7.361   8.537  2.2102 -0.8153 -0.4364
 4811TIP3   OH238627   0.861   5.260   0.440  0.6830 -0.1529  0.1271
 4811TIP3    H138628   0.824   5.179   0.406  0.4790 -0.8765  1.9755
 4811TIP3    H238629   0.807   5.329   0.401  1.9131 -0.7273 -2.8157
 4812TIP3   OH238630   1.665   0.420   8.454  0.0799  0.0133 -0.1960
 4812TIP3    H138631   1.655   0.513   8.433 -1.5896  0.4098  2.0134
 4812TIP3    H238632   1.677   0.378   8.369  0.8009  2.2174 -1.2641
 4813TIP3   OH238633   1.028   2.006   8.396  0.6888  0.4717 -0.1322
 4813TIP3    H138634   1.057   1.916   8.409  2.3653  1.0525  0.3658
 4813TIP3    H238635   1.063   2.054   8.471 -0.5241  1.4804 -0.1730
 4814TIP3   OH238636   0.001   7.094   8.189  0.0837  0.7803 -0.0695
 4814TIP3    H138637  -0.072   7.077   8.128  0.2853  1.0713 -0.3931
 4814TIP3    H238638  -0.036   7.076   8.275 -0.6539  1.8011 -0.1514
 4815TIP3   OH238639   5.450   1.056   0.332  0.2042 -0.0123  0.0294
 4815TIP3    H138640   5.525   1.069   0.274  0.2449  0.3669  0.1663
 4815TIP3    H238641   5.478   0.988   0.392  0.3884  0.0278 -0.0095
 4816TIP3   OH238642   5.316   1.310   1.878  0.2476  0.6385  0.4568
 4816TIP3    H138643   5.284   1.401   1.874  1.3306  1.0191 -2.9086
 4816TIP3    H238644   5.411   1.318   1.885  0.2593 -0.3050  1.6384
 4817TIP3   OH238645   1.690   6.765   1.564 -0.7246 -0.7775 -0.3170
 4817TIP3    H138646   1.749   6.694   1.591 -1.7242 -1.2620  0.6953
 4817TIP3    H238647   1.719   6.788   1.476  0.9604 -0.9974  0.1468
 4818TIP3   OH238648   0.133   4.693   0.803 -0.4177  0.1027 -0.1923
 4818TIP3    H138649   0.063   4.722   0.744 -0.8803  1.4415  0.9706
 4818TIP3    H238650   0.093   4.693   0.890  0.6330 -0.5265  0.3121
 4819TIP3   OH238651   6.359   2.603   1.939  0.2713  0.1512  0.2836
 4819TIP3    H138652   6.294   2.673   1.946 -0.6323 -0.5759 -0.5437
 4819TIP3    H238653   6.319   2.528   1.982  1.6080  0.3557  1.9739
 4820TIP3   OH238654   2.501   5.535   6.307  0.1381  0.2688 -0.4014
 4820TIP3    H138655   2.450   5.602   6.261 -0.1530  0.2840 -0.0531
 4820TIP3    H238656   2.436   5.475   6.342  0.4390 -1.2081 -2.2143
 4821TIP3   OH238657   1.723   7.192   7.175  0.2525  0.3389  0.0129
 4821TIP3    H138658   1.760   7.174   7.261  0.5164 -0.4431 -0.2562
 4821TIP3    H238659   1.704   7.105   7.139 -2.9342  0.6540  0.6048
 4822TIP3   OH238660   6.895   1.757   2.623  0.2605  0.4275 -0.4700
 4822TIP3    H138661   6.836   1.716   2.559 -0.1203  0.9675 -0.4774
 4822TIP3    H238662   6.901   1.693   2.694 -3.0889  1.6699  1.1413
 4823TIP3   OH238663   4.327   6.045   1.593 -0.2588  0.1826 -0.0100
 4823TIP3    H138664   4.415   6.008   1.596  0.3091  1.5389  1.3215
 4823TIP3    H238665   4.341   6.139   1.584 -1.5086  0.5960  1.8647
 4824TIP3   OH238666   3.775   0.364   8.115  0.2711  0.4463 -0.0770
 4824TIP3    H138667   3.695   0.367   8.167 -1.7276  1.0176 -2.9383
 4824TIP3    H238668   3.788   0.454   8.085  0.9663  0.0336 -1.0878
 4825TIP3   OH238669   2.835   7.564   2.184  0.1510  0.4729 -0.2722
 4825TIP3    H138670   2.864   7.621   2.113  0.2025 -1.7059 -2.1349
 4825TIP3    H238671   2.741   7.552   2.168 -0.0959  0.8728  0.7644
 4826TIP3   OH238672   3.487   2.116   7.811 -0.4659  0.0401 -0.0711
 4826TIP3    H138673   3.510   2.028   7.840 -1.0604 -0.4414 -0.9823
 4826TIP3    H238674   3.515   2.173   7.882  0.6960 -0.7981  0.1744
 4827TIP3   OH238675   7.223   5.881   2.376 -0.1337 -0.5069 -0.1288
 4827TIP3    H138676   7.294   5.898   2.437 -0.4647 -1.1770  0.4663
 4827TIP3    H238677   7.262   5.826   2.308 -0.0574 -0.7916  0.1448
 4828TIP3   OH238678   0.902   4.103   1.927  0.2079 -0.1268  0.3371
 4828TIP3    H138679   0.996   4.089   1.936  0.4457  0.7937 -0.5572
 4828TIP3    H238680   0.882   4.174   1.989  0.6204  1.5346 -1.3458
 4829TIP3   OH238681   7.222   4.731   9.887 -0.2048 -0.4506 -0.5330
 4829TIP3    H138682   7.217   4.802   9.951  0.3187  0.0766 -1.0578
 4829TIP3    H238683   7.304   4.747   9.840 -0.0204 -1.4788 -0.5818
 4830TIP3   OH238684   0.235   5.499   7.786  0.0638  0.5139  0.2369
 4830TIP3    H138685   0.189   5.489   7.703  0.3985  0.3811  0.0654
 4830TIP3    H238686   0.326   5.512   7.761  0.0485  1.2868  0.5501
 4831TIP3   OH238687   3.953   5.372   0.477  0.5935 -0.0475 -0.5505
 4831TIP3    H138688   4.007   5.450   0.467  1.3870 -0.6340 -0.8992
 4831TIP3    H238689   3.981   5.333   0.559 -1.1161  1.0174  0.6145
 4832TIP3   OH238690   1.721   2.644   0.506  0.0677  0.1759  0.7196
 4832TIP3    H138691   1.682   2.563   0.471 -0.8612 -0.2814  2.6736
 4832TIP3    H238692   1.702   2.710   0.439 -3.0185 -0.3151  0.9799
 4833TIP3   OH238693   1.541   1.756   2.749 -0.6029 -0.6128  0.3011
 4833TIP3    H138694   1.490   1.766   2.829  0.7197  1.0806  0.9975
 4833TIP3    H238695   1.522   1.835   2.698  1.0622 -0.0726  0.4618
 4834TIP3   OH238696   4.763   0.941   0.793 -0.1459  0.1024 -0.4152
 4834TIP3    H138697   4.806   0.996   0.859 -1.3702 -0.9277  1.3325
 4834TIP3    H238698   4.724   0.870   0.843  1.0487 -2.2205 -2.5360
 4835TIP3   OH238699   5.335   1.086   9.776 -0.0655  0.3864 -0.2283
 4835TIP3    H138700   5.380   1.169   9.760 -0.1729  0.1818 -1.7185
 4835TIP3    H238701   5.243   1.105   9.755 -0.0059 -0.2343 -1.0920
 4836TIP3   OH238702   7.367   5.883   1.360  0.0957  0.4276 -0.7956
 4836TIP3    H138703   7.436   5.846   1.416 -0.0476 -0.3262 -1.1045
 4836TIP3    H238704   7.286   5.843   1.391 -0.3506  1.9456  0.1200
 4837TIP3   OH238705   3.992   2.517   1.452 -0.0627  0.8134  0.2660
 4837TIP3    H138706   3.974   2.561   1.369  0.1559 -1.2294 -0.9508
 4837TIP3    H238707   4.083   2.489   1.446 -0.1908  0.1912  0.9609
 4838TIP3   OH238708   5.985   5.013   7.769 -0.1987 -0.0203  0.0131
 4838TIP3    H138709   6.048   5.084   7.756  1.0731 -0.7850  1.6620
 4838TIP3    H238710   5.999   4.955   7.694  0.9473 -0.0775  0.2470
 4839TIP3   OH238711   2.506   5.806   1.605 -0.0327 -0.4470  0.4758
 4839TIP3    H138712   2.535   5.886   1.649 -0.4126 -0.3983  0.6410
 4839TIP3    H238713   2.553   5.807   1.522 -0.5226  0.2867  0.1935
 4840TIP3   OH238714   3.655   3.520   0.692  0.2910 -0.0140  0.2929
 4840TIP3    H138715   3.596   3.522   0.616 -0.1752 -1.7717  0.5721
 4840TIP3    H238716   3.606   3.472   0.759  1.5170 -0.3263  0.9932
 4841TIP3   OH238717   6.832   0.769   9.535  0.2871 -0.0105 -0.3098
 4841TIP3    H138718   6.875   0.798   9.455  0.8299  2.5578  0.8065
 4841TIP3    H238719   6.904   0.740   9.591 -0.1370 -2.3914 -0.8813
 4842TIP3   OH238720   1.921   1.418   8.706  0.0888 -0.0482 -0.0637
 4842TIP3    H138721   1.873   1.336   8.699 -0.6676  0.3932 -0.1812
 4842TIP3    H238722   1.900   1.451   8.793 -1.5532  1.1774 -0.8732
 4843TIP3   OH238723   4.367   5.426   7.491  0.3337  0.0387 -0.0188
 4843TIP3    H138724   4.460   5.436   7.471  0.4815 -0.0347  0.6107
 4843TIP3    H238725   4.327   5.400   7.409  1.2239 -2.2013  0.2071
 4844TIP3   OH238726   3.399   3.318   1.055  0.1350  0.1565  0.0978
 4844TIP3    H138727   3.455   3.392   1.035  0.0601 -0.0163 -0.8054
 4844TIP3    H238728   3.310   3.353   1.053  0.1143  0.0952 -0.0918
 4845TIP3   OH238729   1.625   5.280   7.425  0.3572 -0.1825  0.0302
 4845TIP3    H138730   1.554   5.289   7.362  0.7221  0.8876 -0.2522
 4845TIP3    H238731   1.619   5.359   7.479  0.8322 -0.4704  0.5092
 4846TIP3   OH238732   7.283   5.317   0.897  0.8853 -0.8057  0.0620
 4846TIP3    H138733   7.271   5.234   0.941 -0.7264 -0.4054  0.4490
 4846TIP3    H238734   7.211   5.322   0.834 -0.6184  1.3763  1.8108
 4847TIP3   OH238735   3.076   3.232   8.001  0.5407 -1.0139  0.4875
 4847TIP3    H138736   3.063   3.221   8.095  0.8707 -0.5933  0.5824
 4847TIP3    H238737   3.166   3.261   7.992 -0.0100  0.7308  0.1950
 4848TIP3   OH238738   1.395   4.692   1.852 -0.0826 -0.3078 -0.2427
 4848TIP3    H138739   1.350   4.612   1.878 -1.4501  0.5126  0.0153
 4848TIP3    H238740   1.372   4.756   1.921  2.5058 -0.1610  0.5939
 4849TIP3   OH238741   5.213   1.695   8.597  0.0493  0.2343 -0.0532
 4849TIP3    H138742   5.151   1.622   8.598  0.2690  0.0524  0.0813
 4849TIP3    H238743   5.271   1.677   8.523 -1.1297  1.2966 -1.2992
 4850TIP3   OH238744   2.368   6.622   8.570  0.0471 -0.1620 -0.2865
 4850TIP3    H138745   2.312   6.585   8.502 -0.6928  0.5485 -0.0910
 4850TIP3    H238746   2.314   6.618   8.649  0.0453  1.0549 -0.2065
 4851TIP3   OH238747   0.814   2.395   2.636 -0.3928 -0.7496  0.7444
 4851TIP3    H138748   0.897   2.422   2.675 -0.0510 -1.9062  0.8414
 4851TIP3    H238749   0.759   2.474   2.639  0.9636  0.2615 -0.0608
 4852TIP3   OH238750   1.597   3.701   2.757  0.3240 -0.3392 -0.0379
 4852TIP3    H138751   1.649   3.635   2.803 -0.5762 -0.8678  0.2308
 4852TIP3    H238752   1.661   3.747   2.702  1.1288 -0.7789  0.5109
 4853TIP3   OH238753   5.929   1.086   2.021  0.2506  0.4482 -0.4892
 4853TIP3    H138754   5.900   1.103   2.111 -0.1052  0.2688 -0.5678
 4853TIP3    H238755   5.903   1.163   1.972 -0.8169 -0.0337 -0.7207
 4854TIP3   OH238756   2.735   0.216   7.544 -0.0068  0.4647 -0.1586
 4854TIP3    H138757   2.799   0.228   7.615 -0.6082  1.5762  0.2190
 4854TIP3    H238758   2.787   0.227   7.464 -0.0748  4.0914  0.1106
 4855TIP3   OH238759   0.803   1.546   7.499  0.5076  0.3500 -0.0530
 4855TIP3    H138760   0.882   1.526   7.550  0.0064 -0.5380  0.3869
 4855TIP3    H238761   0.830   1.619   7.442  1.4294  0.5496  0.6071
 4856TIP3   OH238762   6.412   0.567   9.962 -0.2792 -0.1471 -0.4362
 4856TIP3    H138763   6.425   0.494  10.021 -0.8439  0.2881  0.2532
 4856TIP3    H238764   6.323   0.598   9.981  0.5850  1.8973  0.6648
 4857TIP3   OH238765   7.104   0.380   1.604  0.6041  0.1609 -0.3008
 4857TIP3    H138766   7.071   0.433   1.676  1.1886  0.5765 -0.3319
 4857TIP3    H238767   7.048   0.402   1.530 -1.6357 -2.0981  0.5715
 4858TIP3   OH238768   5.222   5.484   9.605  0.3187 -0.2442  0.3621
 4858TIP3    H138769   5.197   5.527   9.523  0.6233  2.4135  1.5710
 4858TIP3    H238770   5.280   5.546   9.648 -1.0569 -0.8477  3.3124
 4859TIP3   OH238771   6.800   6.945   8.416 -0.4946 -0.5242 -0.8844
 4859TIP3    H138772   6.711   6.978   8.408 -0.6298 -0.5400  0.3918
 4859TIP3    H238773   6.851   7.020   8.446 -0.8087 -1.3695  2.0552
 4860TIP3   OH238774   2.249   2.453   0.015 -0.0243  1.1340  0.3736
 4860TIP3    H138775   2.213   2.501  -0.060  1.5208  1.2968 -0.3116
 4860TIP3    H238776   2.337   2.427  -0.013 -0.0173 -0.2362  1.5374
 4861TIP3   OH238777   3.400   1.520   1.402  0.0207 -0.0090  0.3369
 4861TIP3    H138778   3.319   1.478   1.429  0.3230 -0.3981  0.6671
 4861TIP3    H238779   3.386   1.613   1.415 -0.8226  0.0485 -0.8126
 4862TIP3   OH238780   4.521   5.936   9.665  0.4944 -0.4760  0.3817
 4862TIP3    H138781   4.505   5.978   9.749 -0.1898 -3.0493  1.6252
 4862TIP3    H238782   4.616   5.930   9.659  0.6750  1.8950 -0.2548
 4863TIP3   OH238783   1.635   2.826   9.148 -0.1358  0.0330 -0.3242
 4863TIP3    H138784   1.699   2.759   9.176 -0.4899  0.4866  1.7331
 4863TIP3    H238785   1.550   2.782   9.156 -0.2872  0.3713 -0.0471
 4864TIP3   OH238786   0.115   4.257   0.642 -0.3056 -0.0329  0.1489
 4864TIP3    H138787   0.182   4.196   0.610 -0.2268  0.5911 -0.9209
 4864TIP3    H238788   0.162   4.340   0.652 -0.5413 -0.0007  1.0586
 4865TIP3   OH238789   2.046   2.449   8.636 -0.3095 -0.5438  0.0863
 4865TIP3    H138790   1.993   2.373   8.659  0.8997 -1.3837  0.2229
 4865TIP3    H238791   1.984   2.520   8.626 -1.2125 -0.5909  3.8481
 4866TIP3   OH238792   5.460   2.403   8.566  0.4718 -0.2625  0.0975
 4866TIP3    H138793   5.475   2.330   8.506  0.5624 -1.0236  1.0215
 4866TIP3    H238794   5.448   2.479   8.509  1.4465 -0.7998 -0.8488
 4867TIP3   OH238795   6.213   0.948   0.557 -0.2033  0.5433  0.3941
 4867TIP3    H138796   6.145   0.882   0.550 -0.7229  1.0762  0.3225
 4867TIP3    H238797   6.174   1.027   0.520  0.4357  0.8716  0.3985
 4868TIP3   OH238798   1.551   6.734   0.652  0.4242  0.3065 -0.0648
 4868TIP3    H138799   1.541   6.640   0.668  0.4718  0.1973 -0.6722
 4868TIP3    H238800   1.526   6.775   0.735  0.8907 -0.2612  0.3622
 4869TIP3   OH238801   0.924   7.328   8.071 -0.2272 -0.2760 -0.8018
 4869TIP3    H138802   1.014   7.307   8.047 -0.0891  0.9954 -1.4930
 4869TIP3    H238803   0.927   7.339   8.166 -0.0687 -2.0528 -0.5638
 4870TIP3   OH238804   1.521   6.297   8.722 -0.1555 -0.6902  0.2972
 4870TIP3    H138805   1.481   6.384   8.731 -0.7249 -0.8405 -0.6741
 4870TIP3    H238806   1.483   6.261   8.642  1.7269 -0.9575 -0.5250
 4871TIP3   OH238807   1.350   2.204   0.599  0.6087 -0.2947 -0.5748
 4871TIP3    H138808   1.362   2.123   0.549 -0.9312  0.1938 -1.8054
 4871TIP3    H238809   1.364   2.178   0.690 -1.9728 -2.5025 -0.6710
 4872TIP3   OH238810   1.386   2.165   1.528 -0.2471  0.5674  0.1793
 4872TIP3    H138811   1.474   2.133   1.508 -1.4074 -2.6868 -0.3019
 4872TIP3    H238812   1.367   2.228   1.458  0.7145 -0.6837 -1.2699
 4873TIP3   OH238813   4.942   6.232   0.268 -0.3556  0.5030  0.3156
 4873TIP3    H138814   4.887   6.166   0.227  0.4631 -0.0053  0.0029
 4873TIP3    H238815   4.914   6.315   0.229 -1.5577  0.3993  0.8934
 4874TIP3   OH238816   2.662   0.473   9.785 -0.6122  0.2201 -0.2874
 4874TIP3    H138817   2.699   0.561   9.796  0.2336 -0.2243  0.6321
 4874TIP3    H238818   2.612   0.458   9.864  1.3195 -1.0627  0.7796
 4875TIP3   OH238819   7.142   2.537   0.320 -0.3415 -0.2628 -0.7262
 4875TIP3    H138820   7.134   2.513   0.228 -1.1867  0.1868 -0.7840
 4875TIP3    H238821   7.122   2.630   0.322 -0.4469 -0.2948 -0.0720
 4876TIP3   OH238822   7.615   6.236   8.591  0.3780  0.0126 -0.0098
 4876TIP3    H138823   7.657   6.190   8.663  1.4441  0.9699 -0.0024
 4876TIP3    H238824   7.522   6.215   8.600  0.6421 -0.7990  0.9561
 4877TIP3   OH238825   7.225   6.226   0.609 -0.3988  0.7135 -0.1298
 4877TIP3    H138826   7.279   6.305   0.622 -0.2026  0.8490 -1.6141
 4877TIP3    H238827   7.229   6.181   0.693  0.2531  1.8174  0.4654
 4878TIP3   OH238828   6.413   2.229   9.097 -0.0087  0.1897  0.0530
 4878TIP3    H138829   6.331   2.182   9.085  0.6005 -0.6355 -1.1230
 4878TIP3    H238830   6.480   2.160   9.102  0.6422  0.8494  0.7786
 4879TIP3   OH238831   3.961   7.179   1.796 -0.0907  0.2286 -0.4812
 4879TIP3    H138832   3.882   7.126   1.783 -0.0858  0.1668 -0.2732
 4879TIP3    H238833   3.996   7.148   1.880  0.8497 -0.6445 -1.1741
 4880TIP3   OH238834   0.704   0.526   1.259 -0.0501  0.2535  0.1711
 4880TIP3    H138835   0.635   0.501   1.198  1.2538 -2.2964 -0.3990
 4880TIP3    H238836   0.671   0.606   1.301 -1.3870  1.6706 -3.1900
 4881TIP3   OH238837   5.971   4.097   9.175  0.6956 -0.1284 -0.2475
 4881TIP3    H138838   5.993   4.163   9.109 -2.1849 -0.9619 -2.2252
 4881TIP3    H238839   5.908   4.140   9.232  0.5259 -0.4768 -0.1712
 4882TIP3   OH238840   3.101   0.411   7.923 -0.3609 -0.3171 -0.2242
 4882TIP3    H138841   3.125   0.503   7.928  1.3603 -0.7483  0.2200
 4882TIP3    H238842   3.183   0.364   7.940 -0.8409 -1.9262 -1.9622
 4883TIP3   OH238843   0.303   6.503   8.267  0.0738 -0.7935 -0.0996
 4883TIP3    H138844   0.259   6.536   8.346  1.7099  0.8852  0.1858
 4883TIP3    H238845   0.342   6.420   8.294 -1.1967 -1.3017  0.2127
 4884TIP3   OH238846   6.818   1.357   7.459  0.1474  0.2720 -0.5808
 4884TIP3    H138847   6.870   1.416   7.405  1.4058  0.9919  1.3001
 4884TIP3    H238848   6.850   1.269   7.438  1.9139  0.6772  0.2630
 4885TIP3   OH238849   0.929   4.167   8.496  0.3657  0.2655 -0.2514
 4885TIP3    H138850   0.961   4.234   8.435 -1.1241  1.0739 -0.1978
 4885TIP3    H238851   0.898   4.217   8.572  0.6673 -0.6102  0.4595
 4886TIP3   OH238852   3.856   4.344   0.735 -0.3528 -0.7536  0.3483
 4886TIP3    H138853   3.918   4.274   0.750  1.0975 -0.0648 -1.8892
 4886TIP3    H238854   3.906   4.425   0.749 -1.3077 -0.1740  0.5175
 4887TIP3   OH238855   7.625   6.992   7.143 -0.3380  0.2160  0.4678
 4887TIP3    H138856   7.655   6.903   7.163  0.0127  0.2738  0.2156
 4887TIP3    H238857   7.636   7.000   7.048 -0.8630  0.3505  0.4144
 4888TIP3   OH238858   2.272   7.352   8.255 -0.1769 -0.1634 -0.3966
 4888TIP3    H138859   2.219   7.338   8.333  0.0765 -0.9994 -0.3627
 4888TIP3    H238860   2.357   7.383   8.288 -0.1704 -0.2222 -0.3579
 4889TIP3   OH238861   1.979   7.181   8.487  0.1161 -0.2234  0.0695
 4889TIP3    H138862   2.012   7.132   8.412 -1.5075  0.0689 -0.8814
 4889TIP3    H238863   2.051   7.238   8.512  1.8492 -2.6093  0.8307
 4890TIP3   OH238864   5.691   5.506   8.552 -0.0889 -0.5118 -0.5771
 4890TIP3    H138865   5.765   5.471   8.503  0.7351  1.1347 -0.5978
 4890TIP3    H238866   5.628   5.532   8.486 -1.2782 -2.9908 -0.5282
 4891TIP3   OH238867   1.883   0.303   1.833  0.2465  0.0541  0.0409
 4891TIP3    H138868   1.882   0.335   1.743  0.8953 -0.9010 -0.3180
 4891TIP3    H238869   1.947   0.233   1.833 -1.1963 -1.3309  0.7708
 4892TIP3   OH238870   7.357   7.093   8.241  0.2554 -0.1670 -0.5495
 4892TIP3    H138871   7.398   7.179   8.237  0.9357 -0.5022 -0.9619
 4892TIP3    H238872   7.375   7.054   8.155  0.6974 -1.0434 -0.0705
 4893TIP3   OH238873   1.384   0.541   7.524  0.4240  0.3861  0.1347
 4893TIP3    H138874   1.456   0.496   7.479 -1.0392 -0.6064 -1.2962
 4893TIP3    H238875   1.355   0.480   7.591 -1.6626 -1.0142 -1.9060
 4894TIP3   OH238876   2.708   2.896   7.972 -0.5734  0.4792 -0.0950
 4894TIP3    H138877   2.790   2.862   8.008 -0.2876 -0.9226 -1.9016
 4894TIP3    H238878   2.644   2.881   8.041  0.3378 -0.1800  0.6415
 4895TIP3   OH238879   7.288   4.051   0.138  0.4736 -0.2921  0.1695
 4895TIP3    H138880   7.378   4.079   0.121  0.8128 -1.5383 -0.1245
 4895TIP3    H238881   7.262   4.002   0.060 -0.0442 -0.9557  0.7477
 4896TIP3   OH238882   2.024   6.123   6.413  0.4874  0.1680 -0.4542
 4896TIP3    H138883   2.050   6.093   6.326  1.0044 -1.6128  0.2699
 4896TIP3    H238884   2.102   6.168   6.447  1.1745 -1.3011  0.0057
 4897TIP3   OH238885   1.135   3.254   0.583  0.2074 -0.6051  0.6828
 4897TIP3    H138886   1.111   3.210   0.501 -2.4627 -0.7139  1.4172
 4897TIP3    H238887   1.194   3.324   0.556 -0.3291 -0.8474 -1.3013
 4898TIP3   OH238888   3.576   7.034   0.477  0.0021  0.5911  0.0208
 4898TIP3    H138889   3.662   6.991   0.479  0.2573  1.0864 -0.1334
 4898TIP3    H238890   3.555   7.048   0.569 -0.1885 -0.0564  0.0851
 4899TIP3   OH238891   6.640   0.244   2.090 -0.5087  0.2157  0.2956
 4899TIP3    H138892   6.549   0.228   2.063 -0.3112  0.4082 -0.5047
 4899TIP3    H238893   6.632   0.296   2.170 -1.1096  1.4961 -0.5662
 4900TIP3   OH238894   1.428   3.528   8.730  0.1672 -0.1991 -0.0688
 4900TIP3    H138895   1.433   3.485   8.816  1.0127  0.1158  0.0582
 4900TIP3    H238896   1.359   3.482   8.684 -0.3551 -0.3300  0.8109
 4901TIP3   OH238897   0.275   6.811   9.260  0.0267  0.0618  0.4283
 4901TIP3    H138898   0.339   6.845   9.322 -0.7943  1.6380  0.4780
 4901TIP3    H238899   0.315   6.826   9.174  0.8955 -1.5537  0.5084
 4902TIP3   OH238900   0.350   1.502   7.758 -0.4012  0.3316 -0.1707
 4902TIP3    H138901   0.295   1.573   7.722 -0.1329  0.8498  0.4226
 4902TIP3    H238902   0.431   1.508   7.707 -0.3992  0.4161 -0.1592
 4903TIP3   OH238903   2.881   4.900   2.718  0.1357 -0.0378  0.2707
 4903TIP3    H138904   2.968   4.871   2.689 -0.8216 -2.5336 -0.3802
 4903TIP3    H238905   2.870   4.986   2.677  1.9071 -0.0764 -0.3987
 4904TIP3   OH238906   0.120   1.649   7.666 -0.2369 -0.4159 -0.6517
 4904TIP3    H138907   0.053   1.705   7.705  2.1173  1.6444  0.6982
 4904TIP3    H238908   0.124   1.677   7.574  0.3186  1.0950 -0.1914
 4905TIP3   OH238909   6.341   3.928   2.217  0.3798 -0.2324  0.3499
 4905TIP3    H138910   6.401   3.969   2.279  1.1856  0.1919 -0.6903
 4905TIP3    H238911   6.256   3.931   2.261  1.0319 -0.4750  1.6685
 4906TIP3   OH238912   3.150   2.431   7.886  0.5683  0.0391  0.1999
 4906TIP3    H138913   3.173   2.361   7.947  0.1959  0.5184  0.9107
 4906TIP3    H238914   3.109   2.498   7.941  2.1564  1.4371 -0.2329
 4907TIP3   OH238915   1.581   1.145   1.359 -0.2161  0.0192 -0.0825
 4907TIP3    H138916   1.675   1.154   1.339  0.1002  0.7020  1.5933
 4907TIP3    H238917   1.574   1.168   1.451 -2.0434 -0.1052 -0.1679
 4908TIP3   OH238918   5.156   2.781   7.939  0.2526 -0.4438  0.2861
 4908TIP3    H138919   5.237   2.766   7.889  0.1716 -0.0283  0.0229
 4908TIP3    H238920   5.096   2.820   7.875  1.0476  2.8065  1.3475
 4909TIP3   OH238921   6.476   7.328   0.572 -0.2633  0.2785  0.0385
 4909TIP3    H138922   6.423   7.382   0.514 -0.8190 -1.1786 -0.8754
 4909TIP3    H238923   6.433   7.335   0.657 -1.7295 -0.5414 -0.5975
 4910TIP3   OH238924   3.223   0.179   7.447 -0.3255 -0.2535 -0.8403
 4910TIP3    H138925   3.213   0.203   7.540  1.4450 -1.2741 -0.3270
 4910TIP3    H238926   3.191   0.089   7.442 -0.2297 -0.2709 -1.1627
 4911TIP3   OH238927   2.859   3.925   8.986  0.2768 -0.0222  0.0968
 4911TIP3    H138928   2.919   3.994   9.016  1.2724 -1.0701  0.5704
 4911TIP3    H238929   2.851   3.866   9.060 -0.2497 -0.6292 -0.4318
 4912TIP3   OH238930   0.838   3.072   7.676  0.3033  0.8337 -0.0490
 4912TIP3    H138931   0.756   3.102   7.636  1.1243 -0.0510 -2.6305
 4912TIP3    H238932   0.844   2.980   7.652  2.4196  1.0736 -0.7025
 4913TIP3   OH238933   5.779   2.580   9.673 -0.4522 -0.3215  0.5861
 4913TIP3    H138934   5.786   2.659   9.620 -0.9349  0.4706  1.6703
 4913TIP3    H238935   5.808   2.607   9.760 -0.2030 -1.4606  0.8725
 4914TIP3   OH238936   6.654   5.327   0.033  0.0003 -1.3326  0.0401
 4914TIP3    H138937   6.733   5.287   0.069  0.1564 -1.2535 -0.2157
 4914TIP3    H238938   6.680   5.358  -0.054 -0.0180 -0.3252  0.3840
 4915TIP3   OH238939   0.967   4.281   0.812 -0.4328  0.1049  0.4599
 4915TIP3    H138940   1.011   4.267   0.896 -0.3057  0.5795  0.4802
 4915TIP3    H238941   0.982   4.201   0.762 -1.8405 -0.8240  1.4581
 4916TIP3   OH238942   1.996   1.657   9.500  0.1030 -0.2897  0.1505
 4916TIP3    H138943   1.949   1.601   9.561 -1.6562  0.5762 -0.3559
 4916TIP3    H238944   2.052   1.712   9.555  2.1199 -2.6592  0.6444
 4917TIP3   OH238945   5.176   0.621   2.102  0.6171 -0.3340  0.5829
 4917TIP3    H138946   5.122   0.666   2.037  1.6308  1.3741  0.8431
 4917TIP3    H238947   5.115   0.602   2.174 -0.2950 -1.3425 -0.4232
 4918TIP3   OH238948   0.344   3.473   2.230  0.4668 -0.0773  0.5034
 4918TIP3    H138949   0.379   3.553   2.191  0.8269  0.6514  2.2023
 4918TIP3    H238950   0.252   3.472   2.205  0.6258  0.4845 -0.1327
 4919TIP3   OH238951   4.904   6.247   1.053 -0.0207 -0.0519 -0.0209
 4919TIP3    H138952   4.870   6.164   1.018  0.2976 -0.2419  0.1083
 4919TIP3    H238953   4.974   6.271   0.992  0.3664 -0.2535  0.3380
 4920TIP3   OH238954   0.241   1.598   1.138 -0.0409  0.3644 -0.1245
 4920TIP3    H138955   0.156   1.556   1.147  0.5156 -0.7154  0.2850
 4920TIP3    H238956   0.302   1.539   1.183  1.0418  0.7184 -1.0646
 4921TIP3   OH238957   0.684   4.794   7.711 -0.0443 -0.0243 -0.1870
 4921TIP3    H138958   0.758   4.809   7.653 -0.2876 -1.3011 -0.8619
 4921TIP3    H238959   0.637   4.720   7.672 -1.6845  0.7520  0.2157
 4922TIP3   OH238960   6.000   1.775   0.361  0.1257 -0.7176  0.5995
 4922TIP3    H138961   6.021   1.683   0.375  0.0572 -0.5581  1.8911
 4922TIP3    H238962   6.085   1.819   0.359  0.1418 -0.7579  0.3491
 4923TIP3   OH238963   1.925   4.356   9.217 -0.3584  0.4516  0.2531
 4923TIP3    H138964   2.020   4.355   9.225 -0.4497  0.1144  1.3734
 4923TIP3    H238965   1.892   4.336   9.304 -1.4784  2.0511  0.2528
 4924TIP3   OH238966   1.209   6.804   9.426 -0.4389  0.1982 -0.2478
 4924TIP3    H138967   1.270   6.740   9.389 -0.1138  0.8219 -0.8104
 4924TIP3    H238968   1.257   6.842   9.500 -1.0937 -1.0572  0.8551
 4925TIP3   OH238969   2.544   0.964   8.226 -0.3400 -0.5639 -0.1417
 4925TIP3    H138970   2.464   1.004   8.192  0.2164  1.1117  0.4476
 4925TIP3    H238971   2.615   1.007   8.178  0.2515 -1.8901 -0.5199
 4926TIP3   OH238972   0.306   3.188   2.280  0.0568 -0.2082 -0.0159
 4926TIP3    H138973   0.329   3.278   2.257 -0.3377 -0.1088 -0.0258
 4926TIP3    H238974   0.211   3.190   2.294  0.0992 -0.5442  0.3463
 4927TIP3   OH238975   3.163   3.076   8.897 -0.0608  0.0053  0.3400
 4927TIP3    H138976   3.126   3.164   8.909 -1.7710 -0.2591 -2.2031
 4927TIP3    H238977   3.114   3.021   8.958 -0.0425  0.5519  0.8590
 4928TIP3   OH238978   0.851   6.775   1.366 -0.2887 -0.5652  0.0464
 4928TIP3    H138979   0.769   6.773   1.415  0.0372 -1.4056  0.5806
 4928TIP3    H238980   0.919   6.762   1.432  0.3811  1.2927 -0.2220
 4929TIP3   OH238981   3.668   6.695   7.276 -0.2595  0.3378  0.2053
 4929TIP3    H138982   3.621   6.775   7.252  0.0717  0.5070  0.1226
 4929TIP3    H238983   3.623   6.626   7.227  0.6192  0.7248 -1.1844
 4930TIP3   OH238984   3.864   4.184   1.348 -0.5342 -0.6658  0.2065
 4930TIP3    H138985   3.800   4.201   1.417  0.5793  1.1990  0.8486
 4930TIP3    H238986   3.920   4.262   1.347  0.0394 -1.0309 -2.2066
 4931TIP3   OH238987   5.433   7.170   0.294  0.9214  0.4462  0.6529
 4931TIP3    H138988   5.375   7.241   0.266 -0.1039 -0.5672  0.1513
 4931TIP3    H238989   5.424   7.169   0.389  0.6145  0.7192  0.6316
 4932TIP3   OH238990   2.754   1.437   2.479 -0.5987  0.2137  0.0871
 4932TIP3    H138991   2.743   1.513   2.535 -1.2326  0.6167 -0.5652
 4932TIP3    H238992   2.681   1.379   2.501 -0.6255  0.1955 -0.0443
 4933TIP3   OH238993   2.502   3.224   7.243 -0.1071  0.0694 -0.1457
 4933TIP3    H138994   2.435   3.165   7.277  0.1337  0.1822  0.5529
 4933TIP3    H238995   2.505   3.296   7.306  1.4328 -0.4831  0.4607
 4934TIP3   OH238996   7.295   7.247   1.132  0.4525  0.2891 -0.1495
 4934TIP3    H138997   7.199   7.253   1.130  0.1654 -2.8163 -0.5056
 4934TIP3    H238998   7.321   7.244   1.040  0.4329 -2.8672 -0.1390
 4935TIP3   OH238999   5.559   4.478   1.268  0.1068 -0.6928  0.0473
 4935TIP3    H139000   5.655   4.482   1.265  0.0338  0.2657 -1.5591
 4935TIP3    H239001   5.537   4.517   1.353  1.1242 -0.9691  0.4640
 4936TIP3   OH239002   5.533   0.503   7.703  0.7077  0.4172  0.0245
 4936TIP3    H139003   5.512   0.507   7.796 -0.9026 -0.2961 -0.2797
 4936TIP3    H239004   5.589   0.426   7.694  0.2412  0.0479  0.2880
 4937TIP3   OH239005   5.653   6.136   0.291  0.0042 -0.1930  0.2917
 4937TIP3    H139006   5.591   6.065   0.277 -0.4063 -0.2960  2.3042
 4937TIP3    H239007   5.711   6.104   0.361  0.6502  0.9384  0.3041
 4938TIP3   OH239008   1.453   5.611   7.852 -0.1954 -0.2524 -0.1315
 4938TIP3    H139009   1.384   5.628   7.789  0.4948 -1.7892 -1.3668
 4938TIP3    H239010   1.436   5.673   7.924 -2.5390 -0.2745 -0.6014
 4939TIP3   OH239011   5.010   3.815   8.141 -0.1168 -0.2406  0.2592
 4939TIP3    H139012   5.057   3.881   8.090 -0.8821 -0.5241 -0.8543
 4939TIP3    H239013   5.061   3.734   8.129 -0.7624 -0.5090 -0.8084
 4940TIP3   OH239014   0.725   1.998   1.052 -0.2628  0.6793 -0.0201
 4940TIP3    H139015   0.765   1.987   1.138  0.0946  3.3451  0.2333
 4940TIP3    H239016   0.633   2.017   1.072 -0.4800 -0.0142 -0.3260
 4941TIP3   OH239017   2.040   0.427   2.277  0.3533 -0.3488 -0.0902
 4941TIP3    H139018   2.099   0.353   2.294 -0.0175 -0.4460  0.8245
 4941TIP3    H239019   1.957   0.385   2.255  0.3411 -0.2027 -0.3230
 4942TIP3   OH239020   6.623   1.841   8.068  0.3659  0.2210  0.1352
 4942TIP3    H139021   6.643   1.748   8.063 -1.4968 -0.2584  1.0272
 4942TIP3    H239022   6.547   1.847   8.125 -0.5834  2.1499 -1.2230
 4943TIP3   OH239023   0.655   1.889   1.619 -0.0660 -0.3441  0.3093
 4943TIP3    H139024   0.650   1.809   1.566 -1.8668  1.0459 -1.7636
 4943TIP3    H239025   0.567   1.901   1.653 -0.1526  1.4424 -0.4789
 4944TIP3   OH239026   0.755   2.029   2.977 -0.5344 -0.0628 -0.0695
 4944TIP3    H139027   0.664   2.056   2.960 -0.5597  0.3007  0.5920
 4944TIP3    H239028   0.759   1.938   2.948 -1.0305  0.0096 -0.3828
 4945TIP3   OH239029   5.076   2.823   1.900  0.0137  0.2855 -0.5225
 4945TIP3    H139030   4.996   2.806   1.950  0.4771 -0.8776 -0.1348
 4945TIP3    H239031   5.133   2.749   1.921  1.0036  0.8416 -1.1827
 4946TIP3   OH239032   2.172   1.754   7.047  0.1030 -0.2621 -0.3121
 4946TIP3    H139033   2.210   1.673   7.015  1.6401  0.2164  0.2419
 4946TIP3    H239034   2.193   1.756   7.141  1.3120  1.3871 -0.5624
 4947TIP3   OH239035   1.853   1.253   1.606 -0.7266 -0.1336 -0.1148
 4947TIP3    H139036   1.873   1.331   1.657  0.4484 -1.0731  0.9254
 4947TIP3    H239037   1.805   1.196   1.667 -0.7793 -0.5895 -0.5738
 4948TIP3   OH239038   5.481   1.443   8.825 -0.9690 -0.0931  0.0556
 4948TIP3    H139039   5.559   1.440   8.770 -2.4217  0.5080 -2.1930
 4948TIP3    H239040   5.454   1.535   8.823 -0.0557  0.3531  3.4191
 4949TIP3   OH239041   3.920   0.290   0.104 -0.0717 -0.1719  0.4131
 4949TIP3    H139042   3.917   0.210   0.156  1.9481 -0.0475  0.8037
 4949TIP3    H239043   3.999   0.335   0.134  0.3110  0.6630 -1.6843
 4950TIP3   OH239044   4.141   2.325   9.659 -0.4790 -0.2299  0.3968
 4950TIP3    H139045   4.234   2.322   9.681 -0.3581  0.9876  0.1066
 4950TIP3    H239046   4.140   2.350   9.566 -1.1161  2.4136  1.0396
 4951TIP3   OH239047   0.545   2.121   7.570  0.1161 -0.1188  0.7306
 4951TIP3    H139048   0.505   2.203   7.601  0.1450  0.3936 -0.5390
 4951TIP3    H239049   0.616   2.149   7.512  0.7474 -1.0460  1.0352
 4952TIP3   OH239050   7.433   2.581   1.019 -0.4307 -0.0027  0.0717
 4952TIP3    H139051   7.409   2.557   0.930  0.0792 -0.5400  0.0681
 4952TIP3    H239052   7.399   2.510   1.073  0.9739 -0.7241  0.0765
 4953TIP3   OH239053   3.071   0.072   0.569 -0.5878  0.0539  0.4555
 4953TIP3    H139054   3.160   0.097   0.544 -0.3771 -0.7957  0.3337
 4953TIP3    H239055   3.050   0.130   0.642 -0.5580  1.3847 -0.5494
 4954TIP3   OH239056   2.560   5.591   8.563 -0.1044  0.7628  0.3234
 4954TIP3    H139057   2.494   5.605   8.632 -0.0801  0.3194  0.4366
 4954TIP3    H239058   2.644   5.599   8.608 -0.0392 -2.1621  0.9495
 4955TIP3   OH239059   0.372   2.813   0.688 -0.0925 -0.2622  0.0204
 4955TIP3    H139060   0.286   2.813   0.730 -0.0028 -0.6679  0.2085
 4955TIP3    H239061   0.417   2.737   0.725 -0.0673 -0.7228 -0.9330
 4956TIP3   OH239062   1.752   3.951   1.597 -0.2883 -0.1321 -0.4646
 4956TIP3    H139063   1.658   3.944   1.581 -0.1690  0.5781 -1.6438
 4956TIP3    H239064   1.792   3.932   1.512  0.6737 -0.9781  0.1521
 4957TIP3   OH239065   4.872   2.047   8.882  0.3731 -0.1442 -0.3919
 4957TIP3    H139066   4.833   2.134   8.875  0.0276 -0.3169 -0.6418
 4957TIP3    H239067   4.919   2.048   8.965  0.7576  0.4387 -0.6101
 4958TIP3   OH239068   2.498   4.763   8.389  0.3895  0.1814  0.0062
 4958TIP3    H139069   2.434   4.691   8.383 -0.1919  0.4260  2.3735
 4958TIP3    H239070   2.485   4.813   8.308 -1.1957 -0.7716 -0.3859
 4959TIP3   OH239071   2.034   6.935   8.839  0.7016  0.0318  0.1699
 4959TIP3    H139072   1.957   6.987   8.819  0.1016 -0.9394 -0.1154
 4959TIP3    H239073   2.104   6.999   8.853 -0.3188  0.9603  1.1776
 4960TIP3   OH239074   6.357   2.479   0.725  0.3293 -0.1644  0.1862
 4960TIP3    H139075   6.399   2.549   0.775 -0.3353  0.2341  0.1962
 4960TIP3    H239076   6.368   2.401   0.779  2.2386 -0.3842 -0.4115
 4961TIP3   OH239077   6.597   1.110   8.813 -0.5364 -1.0120  0.4988
 4961TIP3    H139078   6.637   1.077   8.893 -0.6768 -1.0917  0.5376
 4961TIP3    H239079   6.556   1.032   8.773 -0.7545 -0.9110  0.5239
 4962TIP3   OH239080   4.207   6.602   1.302  0.1229 -0.2338 -0.0559
 4962TIP3    H139081   4.130   6.576   1.251  0.5505 -0.4033 -0.6234
 4962TIP3    H239082   4.172   6.629   1.387 -0.6904  0.7854 -0.6888
 4963TIP3   OH239083   0.740   7.059   1.196  0.3006  0.4596 -0.7326
 4963TIP3    H139084   0.711   7.029   1.109 -1.9539  1.0345 -0.2356
 4963TIP3    H239085   0.778   6.981   1.236  0.0825 -0.1773 -1.7149
 4964TIP3   OH239086   1.849   1.213   8.393  0.3403  0.5081 -0.1839
 4964TIP3    H139087   1.872   1.235   8.302 -1.1765  1.2515 -0.4249
 4964TIP3    H239088   1.777   1.272   8.414 -0.1224 -0.4736  1.1165
 4965TIP3   OH239089   0.871   7.588   9.426 -0.0855 -0.1700 -0.5315
 4965TIP3    H139090   0.801   7.524   9.416  0.7418 -1.5884  1.8963
 4965TIP3    H239091   0.829   7.662   9.469 -0.1646 -0.9701  0.8170
 4966TIP3   OH239092   0.988   7.564   6.446 -0.3671  0.5558 -0.4410
 4966TIP3    H139093   0.909   7.531   6.403 -1.2123  0.7617  0.8976
 4966TIP3    H239094   1.049   7.490   6.445 -1.1174 -0.0749 -0.2208
 4967TIP3   OH239095   1.859   3.898   0.552 -0.1609 -0.0872 -0.4176
 4967TIP3    H139096   1.836   3.988   0.527  1.2053  0.4980  0.3170
 4967TIP3    H239097   1.952   3.891   0.531 -0.1092 -1.1185  0.1255
 4968TIP3   OH239098   3.598   0.790   2.140  0.3428 -0.1812 -0.0856
 4968TIP3    H139099   3.681   0.837   2.131  0.1146  0.2002 -0.2215
 4968TIP3    H239100   3.609   0.737   2.219  0.4101  0.5029  0.3731
 4969TIP3   OH239101   0.672   6.324   8.686 -0.1046  0.1161 -0.0450
 4969TIP3    H139102   0.640   6.287   8.603  0.5234  2.7550 -1.6043
 4969TIP3    H239103   0.603   6.385   8.713  0.5997  0.7977  0.2449
 4970TIP3   OH239104   4.584   0.310   0.117 -0.0097 -0.3064 -0.0770
 4970TIP3    H139105   4.508   0.264   0.081 -1.1789  0.3791  1.4231
 4970TIP3    H239106   4.633   0.242   0.163  0.1026 -0.6794 -0.7347
 4971TIP3   OH239107   6.232   1.993   1.511  0.2390  0.1146 -0.5183
 4971TIP3    H139108   6.314   1.988   1.462 -0.6241  0.6009 -2.0892
 4971TIP3    H239109   6.177   1.924   1.473 -0.1295 -0.1344  0.4348
 4972TIP3   OH239110   4.227   0.126   1.919  0.0270 -0.0259 -0.5307
 4972TIP3    H139111   4.249   0.064   1.988 -2.7103  2.1707  2.6537
 4972TIP3    H239112   4.152   0.087   1.875 -0.5632  0.1470  0.2866
 4973TIP3   OH239113   4.422   3.326   1.577  0.7608 -0.5762 -0.0699
 4973TIP3    H139114   4.364   3.254   1.551  0.6731 -1.2515  1.8117
 4973TIP3    H239115   4.497   3.319   1.518 -0.1920 -0.8779 -1.2974
 4974TIP3   OH239116   6.169   3.599   7.428  0.5610 -0.0695  0.1863
 4974TIP3    H139117   6.159   3.505   7.413 -1.7109  0.4511 -2.1900
 4974TIP3    H239118   6.163   3.608   7.523 -2.0029 -2.1228  0.3414
 4975TIP3   OH239119   2.226   1.316   1.779  0.1334  0.2453 -0.3355
 4975TIP3    H139120   2.294   1.380   1.799  0.3067 -0.1380  0.2979
 4975TIP3    H239121   2.171   1.360   1.713  0.6152  0.7987 -0.3724
 4976TIP3   OH239122   1.859   6.361   3.191  0.1325  0.4035 -0.3104
 4976TIP3    H139123   1.903   6.291   3.239  0.5191 -1.0380 -2.6189
 4976TIP3    H239124   1.930   6.418   3.160  0.5531 -1.7013 -3.6909
 4977TIP3   OH239125   1.979   6.397   7.643 -0.1130 -0.0586  0.1147
 4977TIP3    H139126   1.905   6.439   7.687  0.3043 -1.5691  2.3839
 4977TIP3    H239127   1.948   6.309   7.622 -0.0196  0.3460 -2.0452
 4978TIP3   OH239128   7.384   3.507   9.452 -0.5534 -0.2448  0.3479
 4978TIP3    H139129   7.374   3.420   9.412  0.9866 -0.7598  1.0087
 4978TIP3    H239130   7.397   3.489   9.545  3.1646  0.3879  0.0821
 4979TIP3   OH239131   4.456   1.360   8.409 -0.0786  0.2038 -0.2608
 4979TIP3    H139132   4.540   1.389   8.445 -0.1113  0.6057 -0.5006
 4979TIP3    H239133   4.474   1.274   8.372 -0.0747 -0.2798  0.8287
 4980TIP3   OH239134   4.713   2.615   0.401  0.1879 -0.1036 -0.4253
 4980TIP3    H139135   4.762   2.600   0.321  2.7274  0.3132  0.9585
 4980TIP3    H239136   4.689   2.708   0.397  1.6722  0.3281 -0.0575
 4981TIP3   OH239137   0.048   6.627   9.314 -0.7566 -0.3988  0.1148
 4981TIP3    H139138   0.100   6.706   9.296  0.3066 -0.9446  0.6741
 4981TIP3    H239139   0.030   6.631   9.408 -0.5040 -0.9347  0.1874
 4982TIP3   OH239140   5.492   2.461   9.778  0.4147 -0.1850  0.1343
 4982TIP3    H139141   5.550   2.427   9.846  2.1625 -1.6160 -1.9425
 4982TIP3    H239142   5.525   2.549   9.760  1.0777 -0.4776 -0.0938
 4983TIP3   OH239143   4.711   1.275   8.551  0.3611 -0.0047 -0.3407
 4983TIP3    H139144   4.731   1.328   8.628  1.4155  0.2401 -0.7633
 4983TIP3    H239145   4.692   1.188   8.585 -0.6001  0.4353  0.2969
 4984TIP3   OH239146   1.752   1.293   6.634  0.7378 -0.2789  0.1699
 4984TIP3    H139147   1.825   1.289   6.573 -0.1758  0.0961 -0.9978
 4984TIP3    H239148   1.744   1.385   6.656  0.6439 -0.3238  0.3267
 4985TIP3   OH239149   6.375   1.617   8.977 -0.0167 -0.5382  0.0613
 4985TIP3    H139150   6.457   1.576   8.950 -0.9322 -1.3344 -1.6320
 4985TIP3    H239151   6.401   1.677   9.047  1.9220 -1.1669 -0.0536
 4986TIP3   OH239152   7.032   0.081   8.718 -0.5414 -0.0207  0.1947
 4986TIP3    H139153   6.962   0.141   8.742  0.0566  0.4980  0.6850
 4986TIP3    H239154   7.068   0.118   8.637 -0.3683  0.1213  0.3351
 4987TIP3   OH239155   1.527   2.897   7.737 -0.6120  0.2943  0.6446
 4987TIP3    H139156   1.535   2.896   7.642 -0.8530 -1.1114  0.6042
 4987TIP3    H239157   1.451   2.840   7.754 -0.1459 -0.0344  1.6960
 4988TIP3   OH239158   3.257   6.244   0.528  0.4998 -0.3569 -0.0995
 4988TIP3    H139159   3.232   6.323   0.480 -1.6243 -1.3446 -0.7329
 4988TIP3    H239160   3.353   6.249   0.534  0.4467  2.1113 -0.3222
 4989TIP3   OH239161   2.171   4.573   2.789  0.1044  0.6512 -0.7899
 4989TIP3    H139162   2.265   4.577   2.774  0.1436  0.2142 -0.6749
 4989TIP3    H239163   2.152   4.480   2.799 -0.0851  0.8305  0.8232
 4990TIP3   OH239164   2.043   6.871   0.656 -0.0043  0.1421 -0.3418
 4990TIP3    H139165   1.999   6.947   0.619 -0.1638 -0.4593 -1.3974
 4990TIP3    H239166   1.987   6.797   0.634  0.1939 -0.3038  0.6036
 4991TIP3   OH239167   2.421   0.910   7.474 -0.1852 -0.4381 -0.0901
 4991TIP3    H139168   2.378   0.861   7.403  0.4404  1.1315 -1.6423
 4991TIP3    H239169   2.508   0.929   7.440 -0.0337  0.7772  0.9185
 4992TIP3   OH239170   4.152   0.612   0.589 -0.0417 -0.3337 -0.0688
 4992TIP3    H139171   4.173   0.666   0.665  3.7185 -0.6104 -0.7084
 4992TIP3    H239172   4.141   0.674   0.517  0.8487 -0.2370 -0.1313
 4993TIP3   OH239173   0.495   2.185   0.635  0.0297 -0.2100 -0.0453
 4993TIP3    H139174   0.516   2.113   0.694  4.7789 -0.1009 -1.1972
 4993TIP3    H239175   0.550   2.257   0.665 -1.1523  1.4753 -1.6824
 4994TIP3   OH239176   6.376   2.564   9.380  0.4657 -0.9288  0.3777
 4994TIP3    H139177   6.331   2.546   9.298  1.5565  1.9374 -0.9719
 4994TIP3    H239178   6.357   2.488   9.435 -3.0960 -1.4176 -1.2798
 4995TIP3   OH239179   6.987   4.989   9.714  0.4383  0.1896 -0.4613
 4995TIP3    H139180   6.946   4.931   9.778  1.5369 -1.2259 -0.9883
 4995TIP3    H239181   6.965   4.949   9.629  1.9272  0.0244 -0.7947
 4996TIP3   OH239182   4.969   4.123   8.689  0.9046  0.2513  0.7036
 4996TIP3    H139183   4.918   4.130   8.608 -1.2520  1.4262  2.0721
 4996TIP3    H239184   4.999   4.212   8.707  0.6002  0.1861  1.6179
 4997TIP3   OH239185   7.122   6.360   0.391 -0.3900  0.0398 -0.0144
 4997TIP3    H139186   7.161   6.313   0.465  0.2735 -0.5802 -0.7316
 4997TIP3    H239187   7.073   6.292   0.343 -0.0734  0.2347 -0.6289
 4998TIP3   OH239188   5.066   6.549   9.737  0.3007 -0.8027  0.2295
 4998TIP3    H139189   5.071   6.604   9.815  1.9828  0.7106 -0.8786
 4998TIP3    H239190   5.036   6.608   9.668 -0.9905 -2.0784 -0.3606
 4999TIP3   OH239191   1.584   1.785   0.942  0.8161  0.2061 -0.0580
 4999TIP3    H139192   1.637   1.734   0.880 -0.5898 -1.2850 -0.0948
 4999TIP3    H239193   1.574   1.728   1.018 -0.7595  0.4127 -0.0767
 5000TIP3   OH239194   6.249   6.194   9.531 -0.4307 -0.4052 -0.3590
 5000TIP3    H139195   6.263   6.215   9.623 -0.2159 -0.8888 -0.2759
 5000TIP3    H239196   6.315   6.128   9.511 -1.5425 -1.5547 -0.3895
 5001TIP3   OH239197   5.003   5.178   9.608 -0.4504 -0.0183 -0.1591
 5001TIP3    H139198   5.056   5.207   9.534 -2.4588 -0.5863 -1.9079
 5001TIP3    H239199   4.926   5.236   9.607 -0.4357  0.1020  1.6401
 5002TIP3   OH239200   3.957   3.092   8.365 -0.3465 -0.5792 -0.1229
 5002TIP3    H139201   3.905   3.120   8.290  1.8718 -0.8708 -1.8915
 5002TIP3    H239202   3.931   3.001   8.380 -3.0717  0.3504  1.6292
 5003TIP3   OH239203   5.015   4.823   2.273  0.2964 -0.0366 -0.1333
 5003TIP3    H139204   4.941   4.873   2.307 -1.6061 -2.3792 -0.5117
 5003TIP3    H239205   5.069   4.887   2.227 -0.9230  1.9418  1.0973
 5004TIP3   OH239206   3.477   4.292   9.155  0.1410  0.3363 -0.3106
 5004TIP3    H139207   3.477   4.385   9.179 -3.3819  0.4541 -0.2552
 5004TIP3    H239208   3.449   4.291   9.063  1.1367 -0.6481 -0.6191
 5005TIP3   OH239209   2.709   6.678   9.294 -0.2193  0.9826  0.0891
 5005TIP3    H139210   2.801   6.701   9.289 -0.3935  1.5661 -0.4175
 5005TIP3    H239211   2.686   6.646   9.207  0.4531 -2.8752  1.1507
 5006TIP3   OH239212   2.229   4.783   1.293 -0.3472  0.4932 -0.1963
 5006TIP3    H139213   2.318   4.750   1.280 -0.2482  0.8628 -0.4729
 5006TIP3    H239214   2.173   4.722   1.246 -0.3472 -0.3543  0.8591
 5007TIP3   OH239215   5.228   7.188   9.021 -0.0129  0.2601 -0.5096
 5007TIP3    H139216   5.317   7.181   8.986  0.0595 -0.4232 -0.2090
 5007TIP3    H239217   5.180   7.117   8.978 -0.0357 -0.3102  0.4291
 5008TIP3   OH239218   2.702   0.413   8.407  0.3217 -0.5115 -0.6194
 5008TIP3    H139219   2.670   0.444   8.322  1.9488 -0.6126 -1.3089
 5008TIP3    H239220   2.663   0.472   8.471 -0.6166 -0.1895 -1.4691
 5009TIP3   OH239221   4.523   6.589   8.733  0.2013 -0.1224  0.1178
 5009TIP3    H139222   4.556   6.653   8.670  0.3418  0.8267  1.1348
 5009TIP3    H239223   4.504   6.511   8.680 -3.5527  1.8817 -1.9149
 5010TIP3   OH239224   6.987   1.474   9.966  0.0231 -0.1774 -0.5755
 5010TIP3    H139225   7.075   1.444   9.986  0.3222 -0.8471 -2.6332
 5010TIP3    H239226   6.931   1.399   9.986 -0.0865  0.1766  0.5268
 5011TIP3   OH239227   7.589   4.776   7.999 -0.3797 -0.3628  0.0773
 5011TIP3    H139228   7.652   4.729   7.944 -0.7356  0.4600 -1.0789
 5011TIP3    H239229   7.591   4.730   8.083  1.2192 -0.8075 -0.1597
 5012TIP3   OH239230   0.674   2.386   0.154 -0.0899  0.0611 -0.4324
 5012TIP3    H139231   0.659   2.435   0.235  1.3794  1.1026 -0.7451
 5012TIP3    H239232   0.750   2.429   0.114  0.2919 -1.5332 -1.5000
 5013TIP3   OH239233   6.732   5.473   1.396 -0.1068  0.5615 -0.2362
 5013TIP3    H139234   6.781   5.393   1.417 -1.5136 -0.2386  0.1908
 5013TIP3    H239235   6.648   5.440   1.364 -1.1076  1.8832  0.9451
 5014TIP3   OH239236   5.928   6.241   1.050  0.8302 -0.5669 -0.7447
 5014TIP3    H139237   5.935   6.264   0.957  0.1397 -1.4981 -1.0503
 5014TIP3    H239238   5.854   6.293   1.082  2.0501  0.9374 -0.3055
 5015TIP3   OH239239   2.305   4.524   1.439 -0.6615 -0.7246  0.6495
 5015TIP3    H139240   2.387   4.572   1.448  0.7494 -3.1311  1.6569
 5015TIP3    H239241   2.241   4.577   1.485  1.1729 -0.5532  3.2319
 5016TIP3   OH239242   2.150   7.434   9.425  0.0061 -0.3923 -0.7506
 5016TIP3    H139243   2.076   7.483   9.391 -0.0894  0.2259  0.3239
 5016TIP3    H239244   2.218   7.500   9.441 -0.2785 -0.5032  1.1343
 5017TIP3   OH239245   5.371   6.755   0.534  0.7923  0.1742 -0.3015
 5017TIP3    H139246   5.446   6.813   0.551  2.2286 -1.0842 -1.9498
 5017TIP3    H239247   5.407   6.686   0.479 -1.4180 -0.9863 -0.3754
 5018TIP3   OH239248   3.464   4.718   1.948 -0.4902 -0.3786 -0.0086
 5018TIP3    H139249   3.548   4.763   1.955 -0.1883 -0.7288 -1.1146
 5018TIP3    H239250   3.402   4.786   1.922 -0.4400 -0.2314  0.2494
 5019TIP3   OH239251   0.014   1.797   2.277 -0.3208 -0.3353  0.3614
 5019TIP3    H139252   0.011   1.774   2.184  2.1769  0.2078  0.0597
 5019TIP3    H239253   0.076   1.870   2.281 -0.6270 -0.1312  2.4294
 5020TIP3   OH239254   4.541   3.203   8.163  0.1028 -0.7655 -0.0685
 5020TIP3    H139255   4.491   3.176   8.086 -3.6538  0.2257  1.7568
 5020TIP3    H239256   4.563   3.121   8.207  0.0403 -1.2555 -0.9220
 5021TIP3   OH239257   6.897   1.167   9.688 -0.0767 -0.1643 -0.2976
 5021TIP3    H139258   6.904   1.127   9.602  1.2964 -3.9139  1.3424
 5021TIP3    H239259   6.832   1.114   9.734 -0.7331  1.7080  1.0366
 5022TIP3   OH239260   5.323   3.687   1.001 -0.7354  0.3902 -0.4022
 5022TIP3    H139261   5.320   3.594   1.026 -1.2532  0.0496 -1.6692
 5022TIP3    H239262   5.286   3.733   1.077 -0.9196 -0.4813  0.0510
 5023TIP3   OH239263   0.960   0.172   0.420 -0.5843 -0.2358  0.4833
 5023TIP3    H139264   0.981   0.193   0.512 -0.3151 -1.0835  0.6230
 5023TIP3    H239265   0.962   0.076   0.417 -3.7308 -0.3845  0.3352
 5024TIP3   OH239266   2.871   5.348   8.719  0.2790  0.0972 -0.2797
 5024TIP3    H139267   2.892   5.441   8.716 -1.4469  0.5498  0.5063
 5024TIP3    H239268   2.832   5.330   8.633 -2.2869  0.9123  0.6167
 5025TIP3   OH239269   3.543   3.867   8.623 -0.0707 -0.7035 -0.0051
 5025TIP3    H139270   3.507   3.914   8.548 -0.6019 -1.3669 -0.1765
 5025TIP3    H239271   3.637   3.863   8.606 -0.3832 -2.4750 -1.5864
 5026TIP3   OH239272   0.768   1.670   2.396  0.6583  0.4449  0.7540
 5026TIP3    H139273   0.774   1.608   2.469  1.5346  1.5434  1.6641
 5026TIP3    H239274   0.682   1.655   2.358  0.2546 -0.2855  1.9205
 5027TIP3   OH239275   3.319   7.379   1.761  0.6341 -0.2502  0.3837
 5027TIP3    H139276   3.371   7.300   1.776 -0.1499 -0.6231  1.2252
 5027TIP3    H239277   3.262   7.385   1.837 -0.4082  0.2637 -0.4079
 5028TIP3   OH239278   0.249   0.234   2.323 -0.6510  0.1103 -0.1284
 5028TIP3    H139279   0.220   0.154   2.366  1.0294  0.1200  1.1440
 5028TIP3    H239280   0.342   0.217   2.303  0.3474  2.4508  2.0585
 5029TIP3   OH239281   3.646   0.437   9.799  0.7889  0.4304  0.7529
 5029TIP3    H139282   3.554   0.413   9.803  1.3080 -2.1796 -0.5352
 5029TIP3    H239283   3.675   0.438   9.890  0.3349 -2.9046  1.0819
 5030TIP3   OH239284   6.275   2.479   9.114 -0.5511  0.1986  0.1194
 5030TIP3    H139285   6.318   2.393   9.118 -1.4637 -0.2330  1.5587
 5030TIP3    H239286   6.215   2.472   9.040 -1.1558 -0.7002  0.6640
 5031TIP3   OH239287   1.185   1.031   7.869 -0.5547  0.1162  0.2595
 5031TIP3    H139288   1.228   0.951   7.839  0.0908  0.9061 -1.0433
 5031TIP3    H239289   1.112   1.043   7.808 -0.6850  0.4721  0.4844
 5032TIP3   OH239290   1.406   4.454   8.652 -0.4311  0.1761  0.3599
 5032TIP3    H139291   1.487   4.459   8.602 -0.7585 -0.3917 -0.2338
 5032TIP3    H239292   1.387   4.545   8.675 -0.3090  0.4590 -0.6059
 5033TIP3   OH239293   6.985   3.517   1.606  0.2293  0.3283  0.2423
 5033TIP3    H139294   7.021   3.428   1.611  1.9977  1.0619  3.3663
 5033TIP3    H239295   7.055   3.570   1.569  0.3989  0.8965  1.3353
 5034TIP3   OH239296   0.979   0.138   0.070 -0.4973  0.0508  0.1468
 5034TIP3    H139297   1.014   0.216   0.113 -0.5975 -0.0160  0.3567
 5034TIP3    H239298   1.019   0.065   0.117  0.3968 -0.0279 -0.7255
 5035TIP3   OH239299   4.578   3.801   2.728  0.4238  0.0470  0.2415
 5035TIP3    H139300   4.666   3.809   2.691  0.6743  1.6029  1.0976
 5035TIP3    H239301   4.592   3.791   2.822 -0.2897 -1.1107  0.2394
 5036TIP3   OH239302   7.059   4.535   0.878  0.1584  0.5499  0.6903
 5036TIP3    H139303   7.149   4.518   0.851  0.3104 -0.0713  1.5508
 5036TIP3    H239304   7.059   4.521   0.972 -0.6539  1.3890  0.8262
 5037TIP3   OH239305   1.239   0.941   2.739 -0.3002 -0.0306 -0.2875
 5037TIP3    H139306   1.151   0.958   2.706 -1.0560  2.3722  2.5574
 5037TIP3    H239307   1.225   0.888   2.818  0.7693  0.6288  0.3666
 5038TIP3   OH239308   0.571   6.772   0.767  0.0623  0.0335 -0.2050
 5038TIP3    H139309   0.515   6.740   0.697 -0.3995  0.3502  0.0143
 5038TIP3    H239310   0.566   6.868   0.761  1.4123  0.0860 -0.8425
 5039TIP3   OH239311   6.330   0.544   8.958 -0.1778  0.2729  0.2959
 5039TIP3    H139312   6.330   0.535   8.863  2.2738 -2.6104  0.4526
 5039TIP3    H239313   6.343   0.638   8.972 -0.1618  0.7225 -2.2065
 5040TIP3   OH239314   5.190   1.542   7.385  0.4168 -0.6194  0.0069
 5040TIP3    H139315   5.149   1.629   7.389 -2.1403 -1.7940  2.6924
 5040TIP3    H239316   5.140   1.495   7.319 -0.4489 -1.0146  0.9133
 5041TIP3   OH239317   7.397   6.629   9.384 -0.1957 -0.3000 -0.7987
 5041TIP3    H139318   7.460   6.578   9.435  0.4083  1.7496  0.6192
 5041TIP3    H239319   7.327   6.650   9.446  0.3441  1.8792 -0.8330
 5042TIP3   OH239320   0.800   2.356   1.049  0.4739 -0.6659  0.0950
 5042TIP3    H139321   0.718   2.374   1.094  0.2037 -0.8056 -0.3280
 5042TIP3    H239322   0.858   2.321   1.116 -0.5092 -2.6040  0.0068
 5043TIP3   OH239323   2.646   6.027   0.953  0.3413  0.0174 -0.2910
 5043TIP3    H139324   2.586   6.099   0.971  0.7814  0.5876 -1.0348
 5043TIP3    H239325   2.714   6.066   0.898  0.0721 -1.1840 -1.5360
 5044TIP3   OH239326   2.597   6.585   9.041 -0.3759  0.0684 -0.0128
 5044TIP3    H139327   2.627   6.547   8.958  2.2429  1.2865  0.2743
 5044TIP3    H239328   2.588   6.678   9.023 -3.1171 -0.0480  0.2701
 5045TIP3   OH239329   1.002   7.352   9.590 -0.1818  0.1004 -0.2138
 5045TIP3    H139330   0.994   7.312   9.677  2.0118 -0.9005 -0.3891
 5045TIP3    H239331   0.920   7.399   9.578 -1.7427 -2.0186  1.2228
 5046TIP3   OH239332   4.812   6.788   0.912  0.4253  0.4955 -0.0471
 5046TIP3    H139333   4.822   6.878   0.881  2.0076  0.4471  0.2195
 5046TIP3    H239334   4.786   6.797   1.003 -0.1228  0.6698 -0.2172
 5047TIP3   OH239335   1.665   6.933   2.099  0.1549  0.4101 -0.2973
 5047TIP3    H139336   1.697   6.930   2.009 -2.0371 -0.3181 -1.1292
 5047TIP3    H239337   1.720   6.870   2.146 -0.0059 -0.8054 -1.6534
 5048TIP3   OH239338   4.931   5.878   0.418  0.5160 -0.4342 -0.3622
 5048TIP3    H139339   4.947   5.938   0.491  1.7599 -2.5685  1.2168
 5048TIP3    H239340   4.943   5.791   0.455 -2.9107 -1.8537 -2.1105
 5049TIP3   OH239341   3.563   7.651   9.311  0.3922 -0.0429  0.0687
 5049TIP3    H139342   3.471   7.623   9.313 -0.0825  1.1110 -1.9891
 5049TIP3    H239343   3.562   7.737   9.352  0.6522 -0.2537  0.5155
 5050TIP3   OH239344   2.223   4.790   7.927 -0.4801 -0.0949  0.3227
 5050TIP3    H139345   2.199   4.699   7.908  0.6141 -0.1012 -1.1886
 5050TIP3    H239346   2.154   4.822   7.984 -0.2603 -2.2511  1.9051
 5051TIP3   OH239347   5.862   3.516   1.461  0.3184  0.3863  0.4394
 5051TIP3    H139348   5.880   3.508   1.367  2.2573 -0.0958  0.8002
 5051TIP3    H239349   5.937   3.474   1.503 -1.2263 -0.7639  2.2145
 5052TIP3   OH239350   2.083   1.366   8.271 -0.4282 -0.3508  0.0935
 5052TIP3    H139351   2.031   1.382   8.192 -0.7091  0.5815  0.4530
 5052TIP3    H239352   2.097   1.272   8.272 -1.3806 -0.5107 -0.4739
 5053TIP3   OH239353   6.146   1.612   0.734  0.3251  0.4018 -0.4765
 5053TIP3    H139354   6.206   1.614   0.659 -0.7858 -0.3352 -1.4234
 5053TIP3    H239355   6.140   1.703   0.762  1.9689  0.4783 -0.2674
 5054TIP3   OH239356   5.113   1.165   2.374  0.0528  0.0481 -0.1010
 5054TIP3    H139357   5.148   1.244   2.416  0.8244 -0.7371  0.7761
 5054TIP3    H239358   5.021   1.186   2.357  0.1474  1.0034  0.4532
 5055TIP3   OH239359   1.094   3.852   8.019 -0.0781  0.3421  0.6041
 5055TIP3    H139360   1.140   3.923   8.063  1.3625  1.1962 -2.0565
 5055TIP3    H239361   1.001   3.871   8.034  0.3281  0.9859  2.5355
 5056TIP3   OH239362   5.344   6.630   8.276 -0.0843 -0.1959 -0.2941
 5056TIP3    H139363   5.397   6.557   8.244  0.6665  0.4711 -0.6212
 5056TIP3    H239364   5.362   6.702   8.214 -0.3422  0.4388  0.3493
 5057TIP3   OH239365   6.863   5.083   1.903  0.2668 -0.4860 -0.4787
 5057TIP3    H139366   6.817   5.005   1.934 -0.4173 -0.1533 -0.6308
 5057TIP3    H239367   6.879   5.067   1.810  0.3050 -0.5294 -0.4644
 5058TIP3   OH239368   4.673   6.145   7.721  0.1141  0.3480  0.0440
 5058TIP3    H139369   4.765   6.163   7.700  0.1145  0.4794  0.1581
 5058TIP3    H239370   4.637   6.109   7.641  0.9030 -2.0998  0.6901
 5059TIP3   OH239371   3.024   4.986   9.603 -0.0021  0.2245  0.2735
 5059TIP3    H139372   3.063   5.007   9.518  1.3427 -1.5083  0.3966
 5059TIP3    H239373   2.932   4.967   9.584  0.1682  0.3713 -0.7189
 5060TIP3   OH239374   5.152   6.610   1.665  0.0762  0.3255 -0.3766
 5060TIP3    H139375   5.063   6.618   1.699  0.5364 -0.3216  1.0569
 5060TIP3    H239376   5.163   6.516   1.646  0.6015  0.3220 -0.0877
 5061TIP3   OH239377   6.221   1.542   8.715 -0.4894  0.0447  0.2187
 5061TIP3    H139378   6.238   1.587   8.797  0.3730  0.4973 -0.1951
 5061TIP3    H239379   6.238   1.608   8.647  0.4929 -0.7856 -0.3875
 5062TIP3   OH239380   5.775   7.553   9.973 -0.1935 -0.0040  0.2250
 5062TIP3    H139381   5.859   7.510   9.990  0.8087  1.1915 -1.2926
 5062TIP3    H239382   5.716   7.519  10.039 -0.0331 -4.9761 -1.7633
 5063TIP3   OH239383   5.040   3.661   9.919 -0.0450  0.1725 -0.8728
 5063TIP3    H139384   5.009   3.645   9.830  0.4434  1.6429 -1.3301
 5063TIP3    H239385   5.067   3.574   9.951 -2.7437 -0.8369 -1.1418
 5064TIP3   OH239386   6.849   6.772   9.686  0.6564  0.2174 -0.6616
 5064TIP3    H139387   6.755   6.757   9.688  0.8823 -1.8226 -1.9021
 5064TIP3    H239388   6.865   6.822   9.606  0.7069 -0.2905 -0.9734
 5065TIP3   OH239389   2.539   0.207   1.221 -0.0921  0.2795 -0.1354
 5065TIP3    H139390   2.455   0.184   1.180  0.3323 -0.2325 -0.7262
 5065TIP3    H239391   2.539   0.302   1.222 -1.4334  0.3239  1.4287
 5066TIP3   OH239392   5.354   6.874   1.308  0.0647 -0.1557  0.2486
 5066TIP3    H139393   5.283   6.816   1.334 -0.3384 -0.9993 -2.4254
 5066TIP3    H239394   5.402   6.892   1.389 -0.7454 -2.9175  1.4417
 5067TIP3   OH239395   2.154   5.032   7.124  0.1962 -0.9471  0.7813
 5067TIP3    H139396   2.118   5.024   7.212 -0.2095  0.9081  0.8323
 5067TIP3    H239397   2.126   4.953   7.079 -0.2329 -1.5663  2.0880
 5068TIP3   OH239398   3.077   7.615   7.447 -0.6652 -0.4936 -0.0614
 5068TIP3    H139399   3.090   7.520   7.442 -0.7630 -0.5174  0.1354
 5068TIP3    H239400   3.001   7.632   7.392 -0.6668 -0.5315 -0.0708
 5069TIP3   OH239401   2.715   4.607   9.787  0.3208  0.3388  0.0927
 5069TIP3    H139402   2.637   4.621   9.733  0.4687  0.9788  0.0284
 5069TIP3    H239403   2.762   4.536   9.744  1.1734  1.7792 -1.5160
 5070TIP3   OH239404   2.930   1.280   8.219 -0.3353 -0.0005 -0.0082
 5070TIP3    H139405   3.016   1.302   8.256 -0.9775  2.2492  0.3040
 5070TIP3    H239406   2.873   1.272   8.296 -0.6187 -0.5932 -0.2714
 5071TIP3   OH239407   6.313   1.403   0.264 -0.0282  0.1458  0.0998
 5071TIP3    H139408   6.358   1.439   0.187 -0.0534  0.5344  0.2623
 5071TIP3    H239409   6.376   1.415   0.335 -0.3247  0.5476  0.2985
 5072TIP3   OH239410   4.254   5.984   7.306 -0.2237 -0.2145  0.0175
 5072TIP3    H139411   4.291   5.921   7.368  0.4583  0.5961  0.4476
 5072TIP3    H239412   4.161   5.986   7.327 -0.0862 -0.3487  0.6699
 5073TIP3   OH239413   0.843   6.898   8.586  0.2010  0.0095  0.1069
 5073TIP3    H139414   0.797   6.818   8.560  0.4999 -0.1205 -0.0266
 5073TIP3    H239415   0.879   6.932   8.504 -0.3264  0.5406  0.0898
 5074TIP3   OH239416   3.915   4.687   1.248 -0.1298 -0.6831 -0.5628
 5074TIP3    H139417   3.883   4.740   1.321  0.3040 -1.0638 -0.0924
 5074TIP3    H239418   3.979   4.744   1.204 -0.3478 -0.4767 -0.6186
 5075TIP3   OH239419   5.189   7.145   7.439  0.2833 -0.3066  0.3432
 5075TIP3    H139420   5.208   7.238   7.438 -0.6308 -0.0935  1.2651
 5075TIP3    H239421   5.244   7.109   7.508 -1.0679 -0.0297  1.6115
 5076TIP3   OH239422   4.627   4.278   1.183 -0.7039 -0.1243 -0.2950
 5076TIP3    H139423   4.713   4.292   1.145 -1.0261  1.1820 -0.6154
 5076TIP3    H239424   4.585   4.213   1.125  0.0526 -0.7839 -0.1184
 5077TIP3   OH239425   6.533   2.055   2.008  0.1851  0.7127  0.1266
 5077TIP3    H139426   6.505   2.066   1.917  0.1959 -0.4937 -0.0410
 5077TIP3    H239427   6.625   2.079   2.008 -0.2732  2.5917  0.2334
 5078TIP3   OH239428   2.435   2.063   8.688 -0.1103 -0.1295 -0.3387
 5078TIP3    H139429   2.388   2.137   8.725  0.5975  0.7857 -1.2098
 5078TIP3    H239430   2.465   2.094   8.602 -0.1987 -1.5801 -0.9257
 5079TIP3   OH239431   1.890   6.610   9.120  0.4595  0.3239  0.0011
 5079TIP3    H139432   1.835   6.535   9.143  0.9475  0.0661  0.3444
 5079TIP3    H239433   1.839   6.658   9.054  0.0039 -0.1301  0.0173
 5080TIP3   OH239434   4.174   7.127   2.287 -0.0698 -0.2889  0.0754
 5080TIP3    H139435   4.258   7.122   2.334 -0.6378  0.2341  1.1996
 5080TIP3    H239436   4.130   7.044   2.307 -0.3963  0.0175  0.6489
 5081TIP3   OH239437   4.196   1.250   1.244 -0.1142  0.3539  0.3630
 5081TIP3    H139438   4.108   1.276   1.217 -0.1395  1.3227  1.3115
 5081TIP3    H239439   4.189   1.240   1.339  0.0235 -2.7209  0.1450
 5082TIP3   OH239440   2.161   3.872   8.974  0.4162 -0.2502 -0.6501
 5082TIP3    H139441   2.242   3.844   8.930  0.7388 -0.8861  0.3124
 5082TIP3    H239442   2.140   3.800   9.034 -1.1772 -0.3324 -1.2631
 5083TIP3   OH239443   6.199   3.432   1.515  0.3217 -0.4004  0.4625
 5083TIP3    H139444   6.249   3.489   1.457  0.7768 -0.6951  0.5610
 5083TIP3    H239445   6.161   3.491   1.581  1.0094 -0.2460  0.7209
 5084TIP3   OH239446   1.066   7.183   8.699  0.0087 -0.0938 -0.0932
 5084TIP3    H139447   1.083   7.277   8.704  1.8864 -0.4432  1.7906
 5084TIP3    H239448   1.000   7.167   8.767  0.1866 -0.2078  0.0549
 5085TIP3   OH239449   1.914   1.786   7.126 -0.1999  0.2508  0.2387
 5085TIP3    H139450   1.879   1.698   7.113 -0.2363  0.5552 -2.1676
 5085TIP3    H239451   1.999   1.785   7.082 -0.1866  1.4175  0.2113
 5086TIP3   OH239452   5.021   0.330   0.119  0.6855  0.2960  0.1703
 5086TIP3    H139453   5.104   0.286   0.139  0.5679 -0.9930 -1.8772
 5086TIP3    H239454   4.973   0.267   0.064 -0.9082  1.7233 -0.1638
 5087TIP3   OH239455   2.289   5.942   0.972  0.2937 -0.4993 -0.2251
 5087TIP3    H139456   2.273   5.855   1.008 -1.6616  0.1812  0.6454
 5087TIP3    H239457   2.356   5.980   1.029 -1.4369 -0.1249  1.6433
 5088TIP3   OH239458   4.624   0.739   0.926 -0.1783  0.2422  0.3360
 5088TIP3    H139459   4.587   0.676   0.864  0.9460  0.3973 -0.5387
 5088TIP3    H239460   4.548   0.772   0.975 -1.0694 -0.0877 -0.7719
 5089TIP3   OH239461   5.253   3.530   0.301  0.1262  0.4102 -0.6186
 5089TIP3    H139462   5.308   3.544   0.378 -1.0298  0.3805  0.2353
 5089TIP3    H239463   5.302   3.569   0.228  0.2166  2.5516  0.5008
 5090TIP3   OH239464   4.692   4.526   1.383 -0.0853  0.1144 -0.0200
 5090TIP3    H139465   4.691   4.431   1.391 -1.6139  0.2486  2.8522
 5090TIP3    H239466   4.753   4.544   1.311 -0.2452 -3.0074 -1.0753
 5091TIP3   OH239467   0.222   3.747   0.276 -0.1527 -0.0665  0.3923
 5091TIP3    H139468   0.183   3.678   0.221  0.8987 -0.6574  0.3649
 5091TIP3    H239469   0.246   3.816   0.214 -1.9688  0.7309  0.5103
 5092TIP3   OH239470   2.264   3.364   8.420  0.0893 -0.0426 -0.5266
 5092TIP3    H139471   2.341   3.376   8.364  0.0310  0.4926 -0.4931
 5092TIP3    H239472   2.200   3.321   8.363  0.5818 -0.9726 -0.4090
 5093TIP3   OH239473   5.137   2.634   0.321  0.4046 -0.0575  0.3763
 5093TIP3    H139474   5.048   2.617   0.292  0.4406  0.6878 -0.2093
 5093TIP3    H239475   5.179   2.548   0.323 -0.0946 -0.3154 -0.1452
 5094TIP3   OH239476   5.787   7.037   9.148 -0.7562 -0.2456  0.1836
 5094TIP3    H139477   5.853   7.003   9.208 -1.1666 -1.0230  0.2120
 5094TIP3    H239478   5.828   7.114   9.108  0.7904 -1.5728 -0.9614
 5095TIP3   OH239479   5.088   1.170   9.724  0.0597 -0.3060 -0.3589
 5095TIP3    H139480   5.046   1.107   9.665 -1.0623 -1.8973  1.9767
 5095TIP3    H239481   5.067   1.255   9.687 -3.6834 -1.0935 -0.4379
 5096TIP3   OH239482   0.066   3.479   7.340  0.1329 -0.1253  0.5172
 5096TIP3    H139483   0.032   3.534   7.269 -2.5879 -1.3544  0.7528
 5096TIP3    H239484   0.098   3.400   7.296 -1.6789 -0.9469  0.5894
 5097TIP3   OH239485   6.689   5.142   8.057 -0.0810 -0.2253  0.3880
 5097TIP3    H139486   6.597   5.139   8.032  0.8078 -2.0075 -3.3573
 5097TIP3    H239487   6.728   5.206   7.998  0.9726  1.7105  2.9713
 5098TIP3   OH239488   3.643   3.682   7.109  0.2396 -0.2558 -0.2153
 5098TIP3    H139489   3.602   3.626   7.175 -0.6924  1.5242  0.7772
 5098TIP3    H239490   3.596   3.661   7.028  1.3226 -2.3867 -0.3688
 5099TIP3   OH239491   3.560   1.622   9.761 -0.7855 -0.2241 -0.1847
 5099TIP3    H139492   3.612   1.645   9.684  1.5653 -0.3157  1.2853
 5099TIP3    H239493   3.548   1.706   9.807 -2.2932 -0.1462 -0.6722
 5100TIP3   OH239494   4.797   2.313   1.522  0.2228  0.4549 -0.5099
 5100TIP3    H139495   4.709   2.324   1.558  1.1644 -0.5818  2.3398
 5100TIP3    H239496   4.795   2.229   1.478  0.3061 -0.6469  1.4831
 5101TIP3   OH239497   5.258   4.287   8.774 -0.5357  0.2473 -0.3781
 5101TIP3    H139498   5.198   4.346   8.728 -0.2689 -0.4429 -1.6469
 5101TIP3    H239499   5.312   4.345   8.827  0.2317  1.2588 -2.1729
 5102TIP3   OH239500   5.357   3.659   2.460  0.3305  0.0982  0.1562
 5102TIP3    H139501   5.396   3.741   2.491  0.3659  0.4407 -0.7676
 5102TIP3    H239502   5.418   3.626   2.394 -0.0765 -0.2692 -0.0447
 5103TIP3   OH239503   7.335   7.279   8.568 -0.2528 -0.5296 -0.5888
 5103TIP3    H139504   7.266   7.288   8.634  1.2496 -0.5444  1.0629
 5103TIP3    H239505   7.306   7.208   8.512 -1.8711 -0.0991 -0.3308
 5104TIP3   OH239506   0.335   4.098   0.521  0.1820  0.4808 -0.3054
 5104TIP3    H139507   0.389   4.034   0.568 -0.3015 -0.1543 -0.6034
 5104TIP3    H239508   0.390   4.176   0.515  0.7640  0.1091  0.0973
 5105TIP3   OH239509   6.394   5.144   1.636 -0.0136 -0.1339  0.3408
 5105TIP3    H139510   6.306   5.137   1.673 -0.1584 -1.7241 -0.2190
 5105TIP3    H239511   6.451   5.109   1.704  0.1773  0.7521  0.6425
 5106TIP3   OH239512   0.727   6.245   8.966 -0.3441 -0.6841  0.3366
 5106TIP3    H139513   0.759   6.256   8.877  2.1117  0.7451  1.2772
 5106TIP3    H239514   0.708   6.152   8.974  0.1334 -0.9651 -1.4478
 5107TIP3   OH239515   2.477   7.382   0.111 -0.1674  0.2913 -0.1389
 5107TIP3    H139516   2.384   7.374   0.129 -0.2708 -0.0776 -0.8031
 5107TIP3    H239517   2.520   7.354   0.192 -0.6316  0.0898  0.0406
 5108TIP3   OH239518   7.114   4.681   8.485  0.1813 -0.3097 -0.0318
 5108TIP3    H139519   7.035   4.663   8.535 -0.2034  0.9280 -0.1423
 5108TIP3    H239520   7.095   4.764   8.440  1.6354  0.1463  0.1407
 5109TIP3   OH239521   2.249   3.167   3.131 -0.4705  0.0722 -0.0523
 5109TIP3    H139522   2.303   3.088   3.138  0.8063  0.8382 -0.8042
 5109TIP3    H239523   2.171   3.148   3.183  0.2351 -1.3209  0.5442
 5110TIP3   OH239524   0.348   6.666   0.979 -0.0078 -0.0316  0.4365
 5110TIP3    H139525   0.388   6.728   0.918 -0.8075 -1.5081 -1.7102
 5110TIP3    H239526   0.413   6.597   0.990 -0.3672 -0.4074  0.2182
 5111TIP3   OH239527   7.580   1.705   2.730  0.3716  1.0048  0.1427
 5111TIP3    H139528   7.662   1.705   2.780  0.2644 -2.1648  0.5184
 5111TIP3    H239529   7.558   1.612   2.721 -1.8604  1.6643 -2.1722
 5112TIP3   OH239530   0.240   1.944   7.917 -0.3979  0.1088  0.1483
 5112TIP3    H139531   0.274   1.977   7.833  2.2444 -0.1219  1.0346
 5112TIP3    H239532   0.206   1.857   7.896  2.2715 -0.9064 -0.3858
 5113TIP3   OH239533   1.739   0.575   8.799  0.2139 -0.1074 -0.1951
 5113TIP3    H139534   1.822   0.601   8.838  0.1730 -0.6217  0.2460
 5113TIP3    H239535   1.743   0.609   8.710  0.9463 -0.2258 -0.2146
 5114TIP3   OH239536   6.554   2.919   8.430 -0.1877 -0.1974 -0.0078
 5114TIP3    H139537   6.607   2.896   8.354  1.9714 -0.1081  1.3697
 5114TIP3    H239538   6.546   3.014   8.425 -0.1162 -0.2008 -0.1883
 5115TIP3   OH239539   3.576   4.883   6.634  0.3975 -0.2126 -0.2432
 5115TIP3    H139540   3.589   4.975   6.612 -0.9731  0.3963  1.3229
 5115TIP3    H239541   3.656   4.857   6.680 -0.0392  0.8299  1.1607
 5116TIP3   OH239542   5.840   5.609   2.101 -0.7026  0.7984 -0.8849
 5116TIP3    H139543   5.752   5.626   2.135 -0.2113  0.0643  0.8354
 5116TIP3    H239544   5.843   5.514   2.091  0.5845  0.5656  1.1783
 5117TIP3   OH239545   2.866   5.930   9.293  0.2763 -0.0457 -0.8464
 5117TIP3    H139546   2.808   5.938   9.217 -1.1187  0.2547  0.1958
 5117TIP3    H239547   2.892   6.020   9.314 -0.2570 -0.0014 -0.3234
 5118TIP3   OH239548   2.281   2.186   7.145  0.0311 -0.0625 -0.2675
 5118TIP3    H139549   2.206   2.242   7.125  0.0179 -0.1370 -0.4245
 5118TIP3    H239550   2.285   2.124   7.072  1.8638  1.5977 -1.6953
 5119TIP3   OH239551   3.406   4.218   0.013  0.3784  0.3534 -0.2845
 5119TIP3    H139552   3.363   4.223  -0.073 -0.6042 -0.3102  0.1467
 5119TIP3    H239553   3.418   4.124   0.027 -0.0567  0.4178  0.5732
 5120TIP3   OH239554   1.130   3.737   9.731  0.1905 -0.2118  0.5878
 5120TIP3    H139555   1.203   3.677   9.749 -0.0547 -1.1305 -1.2805
 5120TIP3    H239556   1.052   3.682   9.739 -0.1078  0.1051 -0.0995
 5121TIP3   OH239557   3.183   0.247   8.585 -0.3534  0.0997  0.4009
 5121TIP3    H139558   3.230   0.211   8.660 -0.6890 -1.0854  0.0666
 5121TIP3    H239559   3.091   0.250   8.613 -0.5490 -0.7988 -0.1135
 5122TIP3   OH239560   5.760   4.488   8.039 -0.5035 -0.9381  0.1483
 5122TIP3    H139561   5.819   4.450   7.975  2.2693 -1.4317  2.7884
 5122TIP3    H239562   5.759   4.582   8.018  0.6717 -1.0338 -0.3963
 5123TIP3   OH239563   0.871   6.483   1.968 -0.2696  0.1830 -0.0774
 5123TIP3    H139564   0.839   6.534   2.042  2.1534  0.4932  0.8712
 5123TIP3    H239565   0.943   6.432   2.004  1.0470  0.4019 -2.2080
 5124TIP3   OH239566   1.177   1.143   9.306 -0.4478  0.0957 -0.1609
 5124TIP3    H139567   1.219   1.175   9.386 -0.6066  0.9187 -0.3938
 5124TIP3    H239568   1.104   1.203   9.292  0.7146  1.2083 -1.9706
 5125TIP3   OH239569   3.757   1.407   9.672 -0.1799 -0.5511 -0.6548
 5125TIP3    H139570   3.762   1.314   9.696 -0.2357 -0.3544  0.1657
 5125TIP3    H239571   3.749   1.453   9.756 -0.7497  0.1552 -1.0807
 5126TIP3   OH239572   2.707   0.529   0.285  0.1030 -0.3824 -0.3535
 5126TIP3    H139573   2.707   0.452   0.342  1.8742  0.5674  1.0632
 5126TIP3    H239574   2.649   0.591   0.329  0.5377 -0.0775 -0.1970
 5127TIP3   OH239575   6.576   0.775   9.922 -0.5020 -0.0329 -0.1979
 5127TIP3    H139576   6.531   0.819   9.851  1.0529  0.0137 -1.1975
 5127TIP3    H239577   6.513   0.710   9.954 -2.0509  1.4780 -0.0593
 5128TIP3   OH239578   5.905   1.023   0.721 -0.7815 -0.0596 -0.2143
 5128TIP3    H139579   5.903   1.030   0.625 -0.3126  1.3824 -0.1440
 5128TIP3    H239580   5.813   1.019   0.747 -0.8963 -1.6958 -0.7772
 5129TIP3   OH239581   3.557   2.357   7.190  0.1598  0.3126  0.3650
 5129TIP3    H139582   3.595   2.329   7.107 -1.6481  0.5073 -0.5920
 5129TIP3    H239583   3.620   2.419   7.226  2.1251 -1.6076  0.3674
 5130TIP3   OH239584   5.562   4.338   8.539  0.5167  0.0943 -0.5285
 5130TIP3    H139585   5.493   4.398   8.567  0.9006  0.9461 -1.3227
 5130TIP3    H239586   5.520   4.282   8.474  0.7151  1.0985 -1.5681
 5131TIP3   OH239587   2.649   2.514   7.818  0.4583 -0.1987  0.0132
 5131TIP3    H139588   2.585   2.569   7.863  0.8585 -0.4216  0.8760
 5131TIP3    H239589   2.640   2.536   7.725 -1.0901 -0.4609  0.0826
 5132TIP3   OH239590   5.357   3.702   1.704  0.3156 -0.1459 -0.3652
 5132TIP3    H139591   5.409   3.773   1.666  0.6936  0.6436  1.5100
 5132TIP3    H239592   5.400   3.683   1.787 -2.5658  0.7926  1.4769
 5133TIP3   OH239593   4.478   4.345   2.211 -0.1532  0.0083 -0.0076
 5133TIP3    H139594   4.543   4.411   2.186 -1.0829  1.0602  0.2491
 5133TIP3    H239595   4.403   4.396   2.242 -1.0506 -1.1752 -0.1603
 5134TIP3   OH239596   7.432   4.866   9.782 -0.1571 -0.2020 -0.0437
 5134TIP3    H139597   7.377   4.932   9.740 -0.4254 -0.8167 -0.6787
 5134TIP3    H239598   7.448   4.801   9.714  1.1770 -0.1542  0.2065
 5135TIP3   OH239599   7.637   0.207   0.461 -0.2996 -0.2873 -1.0180
 5135TIP3    H139600   7.653   0.116   0.484  0.4485  0.0119 -0.2819
 5135TIP3    H239601   7.607   0.247   0.543 -2.6742 -0.2984 -1.7969
 5136TIP3   OH239602   3.603   2.856   8.152  0.3687 -0.5915 -0.2210
 5136TIP3    H139603   3.525   2.895   8.113  0.3402 -1.0972 -0.6956
 5136TIP3    H239604   3.676   2.893   8.103  0.3956 -0.5301 -0.1359
 5137TIP3   OH239605   2.727   4.820   0.620  0.0708 -0.2608  0.4741
 5137TIP3    H139606   2.797   4.763   0.589  1.6405  1.2638  1.0974
 5137TIP3    H239607   2.696   4.866   0.541  0.6230 -0.0478  0.3784
 5138TIP3   OH239608   2.450   3.599   3.005  0.1562  0.4573  0.0953
 5138TIP3    H139609   2.355   3.600   2.993  0.0973  0.7129  0.5913
 5138TIP3    H239610   2.472   3.506   3.017  0.3399  0.0008 -2.8773
 5139TIP3   OH239611   7.669   5.576   8.768 -0.1548  0.2098 -0.5996
 5139TIP3    H139612   7.636   5.512   8.705 -0.3377 -0.0029 -0.2881
 5139TIP3    H239613   7.764   5.576   8.755 -0.0674 -0.7673  0.0058
 5140TIP3   OH239614   2.640   4.839   1.389 -0.4956  0.2772 -0.3716
 5140TIP3    H139615   2.637   4.926   1.430 -0.2545  0.5848 -0.9845
 5140TIP3    H239616   2.679   4.783   1.455 -0.1200  0.7649 -0.1675
 5141TIP3   OH239617   0.183   4.371   9.292  0.2277 -0.2087  0.2706
 5141TIP3    H139618   0.242   4.384   9.218  0.5483 -2.6551  0.0176
 5141TIP3    H239619   0.103   4.417   9.268  0.5259 -0.5128 -1.3718
 5142TIP3   OH239620   0.692   6.036   2.276 -0.0797  0.0513 -0.6656
 5142TIP3    H139621   0.777   5.995   2.264 -0.3339 -0.6008 -0.3168
 5142TIP3    H239622   0.700   6.122   2.234  0.3756 -0.4621 -1.6547
 5143TIP3   OH239623   1.849   7.616   8.101 -0.3581  0.1915 -0.2216
 5143TIP3    H139624   1.768   7.573   8.128  1.0048 -2.2707  0.2452
 5143TIP3    H239625   1.886   7.558   8.034  0.6386  1.6856 -1.0208
 5144TIP3   OH239626   2.859   2.031   1.499 -0.0540  0.5043  0.4329
 5144TIP3    H139627   2.885   2.003   1.587  0.4883 -1.0933 -0.2082
 5144TIP3    H239628   2.925   1.993   1.441 -0.5969  1.2473 -0.7160
 5145TIP3   OH239629   0.448   1.304   0.371  0.3740 -0.3702  0.1412
 5145TIP3    H139630   0.450   1.393   0.407  0.9046 -0.7295  1.0405
 5145TIP3    H239631   0.451   1.317   0.277  0.9978  0.5613  0.2711
 5146TIP3   OH239632   6.365   5.258   9.919  0.0820  0.2034  0.1298
 5146TIP3    H139633   6.400   5.262   9.830 -0.2010 -0.0836  0.0066
 5146TIP3    H239634   6.443   5.257   9.975  0.2585  1.5407 -0.0578
 5147TIP3   OH239635   3.469   1.508   1.108 -0.2048 -0.2716  0.9259
 5147TIP3    H139636   3.551   1.551   1.084 -0.4265  0.5233  1.5385
 5147TIP3    H239637   3.480   1.487   1.201 -1.0805  0.7572  1.2714
 5148TIP3   OH239638   7.444   6.617   0.105  0.5045  0.4274 -0.4387
 5148TIP3    H139639   7.380   6.614   0.177  0.6701  0.1592 -0.2992
 5148TIP3    H239640   7.505   6.687   0.131  1.6503 -0.8965  0.6286
 5149TIP3   OH239641   0.090   6.462   8.740 -0.0467  0.3338 -0.5734
 5149TIP3    H139642   0.033   6.535   8.763 -0.5346 -0.0027 -0.7071
 5149TIP3    H239643   0.081   6.452   8.645  0.2373  0.2807 -0.5979
 5150TIP3   OH239644   5.894   5.112   0.061 -0.5037  0.2900  0.5747
 5150TIP3    H139645   5.972   5.093   0.009 -0.9571 -0.0018 -0.0063
 5150TIP3    H239646   5.859   5.027   0.085 -1.5923  0.3747 -0.6125
 5151TIP3   OH239647   0.785   3.876   8.923 -0.2700 -0.5295 -0.2648
 5151TIP3    H139648   0.778   3.828   9.005 -0.2585  1.8602  1.2339
 5151TIP3    H239649   0.879   3.881   8.906 -0.2145 -0.1140  0.1599
 5152TIP3   OH239650   1.872   6.689   3.162 -0.0270 -0.2500 -0.4149
 5152TIP3    H139651   1.963   6.660   3.172 -0.5573 -1.8725  0.1831
 5152TIP3    H239652   1.874   6.750   3.089  1.4795 -0.5750 -0.6890
 5153TIP3   OH239653   4.083   5.232   0.694  0.0835  0.4916  0.5960
 5153TIP3    H139654   4.069   5.138   0.685  0.1474  0.6555 -2.0404
 5153TIP3    H239655   4.165   5.249   0.648 -0.4110  1.9512  0.1844
 5154TIP3   OH239656   1.184   2.938   7.760 -0.5343  0.3443 -0.0837
 5154TIP3    H139657   1.226   2.857   7.789 -0.3846  0.6635  0.5997
 5154TIP3    H239658   1.219   3.006   7.817  1.1795  1.3409 -2.1490
 5155TIP3   OH239659   6.674   4.607   2.187 -0.0982 -0.3325  0.3288
 5155TIP3    H139660   6.675   4.645   2.274  0.9019 -3.0724  1.6483
 5155TIP3    H239661   6.678   4.512   2.202 -1.7824 -1.0333 -2.6600
 5156TIP3   OH239662   2.328   4.875   2.095 -0.4651  0.0801 -0.0680
 5156TIP3    H139663   2.415   4.900   2.126 -0.7279 -0.4935  1.2069
 5156TIP3    H239664   2.284   4.958   2.077 -0.1166  0.4195  0.6241
 5157TIP3   OH239665   7.471   1.049   7.375  0.0295 -0.1222 -0.3828
 5157TIP3    H139666   7.477   0.956   7.356  0.0428 -0.7368  2.3511
 5157TIP3    H239667   7.432   1.054   7.462 -1.2206  2.4885 -0.9845
 5158TIP3   OH239668   1.900   4.181   1.684  0.7620  0.3355  0.1201
 5158TIP3    H139669   1.825   4.239   1.700  0.6382  0.0179  0.7485
 5158TIP3    H239670   1.861   4.098   1.656  0.7985 -0.1542  1.4209
 5159TIP3   OH239671   5.111   2.199   9.341  0.3364 -0.2595  0.2553
 5159TIP3    H139672   5.202   2.219   9.362  0.3402 -1.0523  1.0759
 5159TIP3    H239673   5.067   2.284   9.343  1.0806  0.1544 -0.3300
 5160TIP3   OH239674   2.781   7.542   7.020 -0.1950  0.0427  0.9694
 5160TIP3    H139675   2.802   7.452   7.044 -0.0324 -0.8086 -1.9456
 5160TIP3    H239676   2.691   7.536   6.985  0.7305  0.3803 -1.7116
 5161TIP3   OH239677   5.161   2.810   9.658  0.6407  0.0904  0.4070
 5161TIP3    H139678   5.182   2.867   9.732  1.7010  0.2596 -0.0010
 5161TIP3    H239679   5.192   2.723   9.685 -1.5318 -0.4730  1.2809
 5162TIP3   OH239680   6.226   4.547   1.013  0.6519  0.1925 -0.1467
 5162TIP3    H139681   6.222   4.455   0.986 -2.7805  0.3495 -0.7473
 5162TIP3    H239682   6.275   4.590   0.943  0.2804 -0.8722 -1.0958
 5163TIP3   OH239683   3.444   6.216   8.644 -0.2420  0.2141 -0.6068
 5163TIP3    H139684   3.389   6.191   8.719 -0.7368 -0.7014 -1.2579
 5163TIP3    H239685   3.532   6.224   8.681 -0.6818  1.1040  0.3291
 5164TIP3   OH239686   1.444   2.716   8.388 -0.2456 -0.2481 -0.1260
 5164TIP3    H139687   1.408   2.699   8.301 -0.1528 -1.0226 -0.0276
 5164TIP3    H239688   1.397   2.655   8.446  1.3099 -1.4277 -0.0215
 5165TIP3   OH239689   7.526   2.686   9.727  0.5043 -0.3892  0.1026
 5165TIP3    H139690   7.620   2.687   9.746  0.5555 -1.7611  0.0004
 5165TIP3    H239691   7.484   2.693   9.813  0.6943  0.1968  0.1523
 5166TIP3   OH239692   4.571   5.407   9.192 -0.3254 -0.0917  0.4489
 5166TIP3    H139693   4.586   5.450   9.108 -2.9891  0.1180 -0.0016
 5166TIP3    H239694   4.533   5.475   9.247  1.0350 -0.3270  1.7585
 5167TIP3   OH239695   5.563   5.062   1.222  0.5624 -0.0823 -0.3318
 5167TIP3    H139696   5.630   5.026   1.280 -0.5025  1.4190  2.0110
 5167TIP3    H239697   5.591   5.153   1.208 -0.6730  0.4329  0.3169
 5168TIP3   OH239698   2.622   0.971   7.289  0.0179 -0.3470 -0.3295
 5168TIP3    H139699   2.637   0.937   7.201  0.6785  3.5732 -1.9453
 5168TIP3    H239700   2.708   0.969   7.331  0.5502  1.1587 -1.2427
 5169TIP3   OH239701   0.056   6.623   9.621  0.2248 -0.1612 -0.2812
 5169TIP3    H139702   0.066   6.554   9.686  0.2721 -0.5575 -0.7009
 5169TIP3    H239703   0.131   6.680   9.634 -0.1869  0.2029  0.5327
 5170TIP3   OH239704   6.884   6.741   1.931 -0.2591 -0.0132 -0.3520
 5170TIP3    H139705   6.791   6.756   1.912  0.0512  1.6759 -0.7693
 5170TIP3    H239706   6.907   6.812   1.992  0.8331 -0.2014 -0.5224
 5171TIP3   OH239707   1.797   6.782   9.440  0.9109 -0.3030 -0.2502
 5171TIP3    H139708   1.816   6.689   9.435  1.7153 -0.1081 -1.1444
 5171TIP3    H239709   1.763   6.804   9.353 -0.8445 -0.0709  0.4562
 5172TIP3   OH239710   1.797   3.233   7.912 -0.6553 -0.2610  0.1101
 5172TIP3    H139711   1.780   3.316   7.868  2.2073  0.8997  0.9852
 5172TIP3    H239712   1.867   3.192   7.861  0.9279 -0.0851  2.0115
 5173TIP3   OH239713   5.065   4.081   7.997  0.3195 -0.2417  0.2562
 5173TIP3    H139714   5.136   4.143   8.016 -0.6278  1.2853 -0.8949
 5173TIP3    H239715   5.055   4.084   7.902 -1.4493 -0.2022  0.4010
 5174TIP3   OH239716   3.474   1.478   9.990  0.2979  0.3983 -0.0850
 5174TIP3    H139717   3.493   1.401   9.936  2.3526  0.8742 -0.1262
 5174TIP3    H239718   3.508   1.552   9.940  2.5395  0.8211  1.8877
 5175TIP3   OH239719   6.494   2.535   0.480 -0.0327  0.6174 -0.4702
 5175TIP3    H139720   6.509   2.446   0.449 -1.5169  0.0356  0.3988
 5175TIP3    H239721   6.444   2.525   0.561 -0.9675  2.2738 -0.7869
 5176TIP3   OH239722   0.607   7.475   9.618  0.3913 -0.0350 -0.2312
 5176TIP3    H139723   0.579   7.440   9.702  1.1746  1.1834  0.5700
 5176TIP3    H239724   0.636   7.398   9.568  0.9209 -0.6615  1.0103
 5177TIP3   OH239725   2.746   6.436   3.252 -0.3791 -0.1966 -0.5057
 5177TIP3    H139726   2.750   6.517   3.303 -0.7725 -1.2837  1.3569
 5177TIP3    H239727   2.815   6.445   3.187 -0.0191  1.3754  0.0518
 5178TIP3   OH239728   3.816   5.920   8.690 -0.0951 -0.5094  0.8914
 5178TIP3    H139729   3.850   5.847   8.742  0.1359 -0.9232  0.1572
 5178TIP3    H239730   3.851   5.998   8.734  0.5929 -0.8777  1.0178
 5179TIP3   OH239731   5.566   7.613   0.798 -0.4374  0.2681  0.3515
 5179TIP3    H139732   5.638   7.674   0.780  0.4480 -0.5623  1.0003
 5179TIP3    H239733   5.590   7.570   0.880 -1.2496 -0.6610  0.1265
 5180TIP3   OH239734   4.077   3.844   2.206 -0.6061 -0.1765  0.6434
 5180TIP3    H139735   4.167   3.872   2.220 -0.5546 -1.1844  2.6895
 5180TIP3    H239736   4.059   3.866   2.114  1.4244  0.7777  0.4161
 5181TIP3   OH239737   6.416   3.037   8.146 -0.3059  0.7321  0.2565
 5181TIP3    H139738   6.386   2.954   8.108  0.0891  0.7358 -0.0677
 5181TIP3    H239739   6.366   3.104   8.098  0.5079  0.7609 -0.5768
 5182TIP3   OH239740   3.795   2.616   2.126  0.0706  0.0894 -0.4697
 5182TIP3    H139741   3.772   2.634   2.035 -0.3296  0.5440 -0.2810
 5182TIP3    H239742   3.789   2.701   2.170  1.2265  0.0588 -0.2193
 5183TIP3   OH239743   3.529   3.739   7.407 -0.1093  0.1887 -0.2939
 5183TIP3    H139744   3.514   3.695   7.324 -1.2096 -1.5534  0.7620
 5183TIP3    H239745   3.606   3.794   7.392  0.9137 -1.5768 -1.9046
 5184TIP3   OH239746   3.508   0.913   9.619 -0.0242  0.3819 -0.1873
 5184TIP3    H139747   3.465   0.904   9.704 -2.2516 -0.1100 -1.2980
 5184TIP3    H239748   3.573   0.842   9.618 -1.3060 -0.8500  0.3611
 5185TIP3   OH239749   2.359   6.233   8.315  0.6158  0.2904  0.1510
 5185TIP3    H139750   2.369   6.251   8.408  0.9575 -0.2912  0.2287
 5185TIP3    H239751   2.397   6.310   8.272  0.6708  0.4510  0.4895
 5186TIP3   OH239752   2.619   5.862   2.635  0.5249 -0.1625 -0.6168
 5186TIP3    H139753   2.664   5.803   2.575  1.3864  1.6129 -1.7979
 5186TIP3    H239754   2.688   5.896   2.692  0.5727  1.6518 -1.6588
 5187TIP3   OH239755   1.452   5.434   1.045 -0.0737 -0.3043  0.0791
 5187TIP3    H139756   1.535   5.391   1.066 -0.5588 -1.4815 -0.3288
 5187TIP3    H239757   1.410   5.376   0.981 -2.3987 -1.2017  2.2297
 5188TIP3   OH239758   0.655   7.484   0.903  0.6436 -0.3141 -0.3602
 5188TIP3    H139759   0.618   7.520   0.822  0.7259 -2.5529 -1.4620
 5188TIP3    H239760   0.717   7.417   0.873  1.7832 -0.1841  1.5515
 5189TIP3   OH239761   0.687   7.088   9.310 -0.1437  0.4700  0.3872
 5189TIP3    H139762   0.701   6.995   9.297 -2.6840  0.0829 -0.0245
 5189TIP3    H239763   0.729   7.129   9.234  1.0066 -0.3141  0.5798
 5190TIP3   OH239764   2.646   2.693   0.663 -0.7920  0.2370  0.2558
 5190TIP3    H139765   2.560   2.667   0.632 -0.2650  0.1735 -1.2701
 5190TIP3    H239766   2.707   2.647   0.605  0.2841  0.0943  1.4486
 5191TIP3   OH239767   6.595   4.610   7.916  0.3839 -0.4295 -0.1028
 5191TIP3    H139768   6.639   4.550   7.855  3.2393  0.9313  0.4342
 5191TIP3    H239769   6.503   4.586   7.911  1.0030 -2.8335 -2.1376
 5192TIP3   OH239770   2.769   5.619   7.662  0.0941 -0.4034  0.1562
 5192TIP3    H139771   2.835   5.659   7.719  0.2402 -1.2295  0.5712
 5192TIP3    H239772   2.690   5.671   7.677  0.5071  0.2765  0.0309
 5193TIP3   OH239773   0.067   0.809   7.203 -0.1054 -0.1053  0.0220
 5193TIP3    H139774   0.146   0.849   7.168  0.1524 -0.2214  0.4556
 5193TIP3    H239775   0.091   0.782   7.292 -0.8480  0.5267  0.4358
 5194TIP3   OH239776   4.879   7.035   8.567  0.6014 -0.1481 -0.2061
 5194TIP3    H139777   4.840   7.066   8.485  0.3675  0.7137  0.2178
 5194TIP3    H239778   4.851   7.099   8.632 -0.0029 -1.3397  0.7390
 5195TIP3   OH239779   1.671   6.334   0.766  0.0730  0.0614 -0.1973
 5195TIP3    H139780   1.739   6.300   0.708 -0.9449  0.6446 -1.8219
 5195TIP3    H239781   1.604   6.368   0.706 -1.2969  0.1826  1.3378
 5196TIP3   OH239782   3.317   3.197   0.557  0.4250  0.0390  0.3718
 5196TIP3    H139783   3.248   3.192   0.490 -0.9858 -0.2291  1.7820
 5196TIP3    H239784   3.397   3.170   0.511 -0.4077  0.2727 -1.2974
 5197TIP3   OH239785   2.466   1.663   9.999 -0.1735 -0.0166  0.4538
 5197TIP3    H139786   2.471   1.757   9.984 -0.8850  0.0532  0.6070
 5197TIP3    H239787   2.490   1.624   9.915 -0.4341  0.3162  0.2206
 5198TIP3   OH239788   2.412   2.823   0.129  0.3305 -0.0466  0.4097
 5198TIP3    H139789   2.382   2.908   0.160  0.4735 -0.3039  1.2889
 5198TIP3    H239790   2.483   2.843   0.068  1.0090  0.4573  1.3260
 5199TIP3   OH239791   0.296   5.326   9.125  0.0579 -0.0365  0.0545
 5199TIP3    H139792   0.371   5.365   9.170 -0.5130  0.6891  0.3952
 5199TIP3    H239793   0.247   5.282   9.194 -0.0590 -0.1465 -0.0993
 5200TIP3   OH239794   7.505   4.764   0.058 -0.6862  0.3489 -0.0410
 5200TIP3    H139795   7.522   4.821  -0.017  0.5449  0.7323  0.4981
 5200TIP3    H239796   7.441   4.813   0.110  0.0762  1.0939  0.2283
 5201TIP3   OH239797   3.137   1.638   9.039  0.0905 -0.0135 -0.5427
 5201TIP3    H139798   3.160   1.636   9.132  0.6037  0.1105 -0.6628
 5201TIP3    H239799   3.191   1.570   8.999  0.3209  0.3381 -0.8442
 5202TIP3   OH239800   4.095   0.792   8.123 -0.1148 -0.7691 -0.4271
 5202TIP3    H139801   4.119   0.872   8.075 -0.1654 -0.8920 -0.6621
 5202TIP3    H239802   4.155   0.725   8.089  0.6610 -0.5925  0.5531
 5203TIP3   OH239803   0.063   1.644   1.444 -0.3864  0.1361 -0.3204
 5203TIP3    H139804   0.129   1.705   1.412 -1.1621  2.0085  1.3947
 5203TIP3    H239805  -0.019   1.693   1.438 -1.1792 -1.0797  0.2654
 5204TIP3   OH239806   5.743   0.237   9.382  0.4008 -0.5536  0.4682
 5204TIP3    H139807   5.650   0.240   9.407  0.5663 -0.8866  1.1397
 5204TIP3    H239808   5.787   0.199   9.458  1.1001 -0.3301  0.1801
 5205TIP3   OH239809   3.137   3.559   8.466 -0.4904 -0.1817 -0.0610
 5205TIP3    H139810   3.200   3.488   8.475 -0.7436 -0.4443 -0.3624
 5205TIP3    H239811   3.054   3.522   8.494  0.0061  1.0596  3.5946
 5206TIP3   OH239812   7.467   7.329   7.872 -0.7072 -0.4802 -0.6684
 5206TIP3    H139813   7.540   7.389   7.889  0.3355 -1.8633 -0.0089
 5206TIP3    H239814   7.407   7.379   7.817  0.1220  1.1412 -0.1769
 5207TIP3   OH239815   5.073   1.090   8.511  0.0233  0.2286  0.5552
 5207TIP3    H139816   4.979   1.080   8.499 -0.2902  0.7693  2.2547
 5207TIP3    H239817   5.087   1.072   8.604  1.3792  1.6695  0.6581
 5208TIP3   OH239818   1.338   6.109   1.952  0.3352  0.0904  0.2903
 5208TIP3    H139819   1.244   6.098   1.966  0.1097  3.1198  2.0371
 5208TIP3    H239820   1.375   6.118   2.040  2.5449 -2.3856 -0.2742
 5209TIP3   OH239821   2.892   5.568   0.830  0.2091 -0.4080 -0.3087
 5209TIP3    H139822   2.975   5.612   0.812 -0.1281  0.7703  0.8834
 5209TIP3    H239823   2.826   5.624   0.788 -0.0469 -1.0934 -0.8541
 5210TIP3   OH239824   3.080   2.626   9.568 -0.2979  0.3402 -0.0658
 5210TIP3    H139825   2.999   2.653   9.613 -1.0145 -0.3046 -0.9494
 5210TIP3    H239826   3.057   2.626   9.475  0.2016 -1.5326 -0.2225
 5211TIP3   OH239827   5.224   4.614   0.993 -0.3838  0.1132 -0.0981
 5211TIP3    H139828   5.319   4.623   0.996 -0.0377 -1.1968 -3.2033
 5211TIP3    H239829   5.197   4.672   0.922 -1.7208 -0.5060 -0.1215
 5212TIP3   OH239830   2.331   5.916   9.419 -1.0783 -0.3289 -0.3634
 5212TIP3    H139831   2.397   5.984   9.403 -0.8303 -0.3143  0.6823
 5212TIP3    H239832   2.378   5.834   9.404 -1.1224 -0.2985 -0.6841
 5213TIP3   OH239833   4.779   7.001   8.292  0.1956  0.1833 -0.6095
 5213TIP3    H139834   4.799   6.957   8.210  2.3081  1.2062 -0.7126
 5213TIP3    H239835   4.740   7.084   8.265 -2.0349 -0.7515 -0.4543
 5214TIP3   OH239836   5.457   1.414   1.170 -0.3588 -0.0412  0.0909
 5214TIP3    H139837   5.422   1.339   1.122 -0.5499  0.3097 -0.3257
 5214TIP3    H239838   5.488   1.474   1.102  0.7180 -0.1849  0.4431
 5215TIP3   OH239839   0.794   1.230   9.576  0.1670  0.4829 -0.0807
 5215TIP3    H139840   0.785   1.293   9.504  2.7977  0.1475 -0.7781
 5215TIP3    H239841   0.857   1.270   9.636 -0.7224 -0.0011  1.2315
 5216TIP3   OH239842   7.443   4.007   1.685 -0.2157  0.2352 -0.4646
 5216TIP3    H139843   7.396   4.017   1.602 -1.9465 -0.9513  0.3126
 5216TIP3    H239844   7.468   4.097   1.710  1.7621  0.4914 -2.9774
 5217TIP3   OH239845   7.031   4.964   1.187 -0.4010 -0.0036 -0.0717
 5217TIP3    H139846   6.977   5.039   1.159  0.5391  0.3716 -0.9562
 5217TIP3    H239847   6.971   4.909   1.236 -1.3457  0.8962 -0.1635
 5218TIP3   OH239848   3.290   4.789   8.391 -0.1908  0.3796  0.3354
 5218TIP3    H139849   3.205   4.828   8.408  0.3759  2.1792 -0.7775
 5218TIP3    H239850   3.304   4.799   8.297 -0.4134 -3.4640 -0.2854
 5219TIP3   OH239851   0.866   5.564   9.833  0.8030 -0.0615 -0.5714
 5219TIP3    H139852   0.780   5.591   9.801  1.0910  1.3644 -0.2309
 5219TIP3    H239853   0.857   5.471   9.852 -0.1086 -0.3672 -2.3167
 5220TIP3   OH239854   6.401   1.478   0.013 -0.3070 -0.4118 -0.3395
 5220TIP3    H139855   6.440   1.565   0.017 -1.6754  0.2396 -0.4222
 5220TIP3    H239856   6.324   1.489  -0.042 -1.0050 -1.4686  0.3832
 5221TIP3   OH239857   6.048   0.099   9.050 -0.9824 -0.3346  0.1420
 5221TIP3    H139858   6.023   0.184   9.085  1.7548  0.8230 -0.4488
 5221TIP3    H239859   6.116   0.067   9.109  0.1111 -0.6912 -1.2453
 5222TIP3   OH239860   2.225   1.943   9.209  0.0384  0.2575 -1.0252
 5222TIP3    H139861   2.299   1.966   9.153  0.6823  0.8749  0.0403
 5222TIP3    H239862   2.172   1.883   9.156  2.1314 -1.5251 -1.2321
 5223TIP3   OH239863   2.811   5.077   2.983  0.4305  0.1446 -0.7040
 5223TIP3    H139864   2.886   5.060   2.926  1.2245 -0.9959  0.6004
 5223TIP3    H239865   2.755   5.137   2.933  2.3746  1.3191 -1.6010
 5224TIP3   OH239866   4.640   3.633   2.186  0.1815 -0.5249  0.2460
 5224TIP3    H139867   4.623   3.720   2.222  0.2599 -0.2485 -0.3752
 5224TIP3    H239868   4.720   3.644   2.134 -2.1066  0.1250 -3.4988
 5225TIP3   OH239869   4.652   5.153   9.690 -0.4833 -0.4817 -0.4143
 5225TIP3    H139870   4.691   5.065   9.690 -2.6983 -1.5134 -0.3903
 5225TIP3    H239871   4.559   5.138   9.702 -0.7659  1.9782  0.9985
 5226TIP3   OH239872   4.526   2.500   8.286 -0.2779  0.1551  0.1049
 5226TIP3    H139873   4.448   2.505   8.230 -1.4864  2.4567  1.7805
 5226TIP3    H239874   4.533   2.407   8.309 -1.4288 -0.3832 -1.5277
 5227TIP3   OH239875   7.671   5.002   2.393 -0.1819  0.3627 -0.5111
 5227TIP3    H139876   7.734   4.974   2.459  1.6266  1.7601 -1.5302
 5227TIP3    H239877   7.653   5.093   2.415 -1.3712  0.1690 -0.6299
 5228TIP3   OH239878   4.308   1.524   9.573  0.1366  0.0103 -0.0809
 5228TIP3    H139879   4.247   1.591   9.603  0.6476  0.2619  0.4262
 5228TIP3    H239880   4.254   1.448   9.554 -0.2799  0.0862  0.7878
 5229TIP3   OH239881   1.077   4.436   9.122 -0.1975 -0.0259  0.0010
 5229TIP3    H139882   1.099   4.528   9.136 -0.6994 -0.0142  0.7436
 5229TIP3    H239883   1.096   4.394   9.205 -0.7117 -0.4563 -0.0938
 5230TIP3   OH239884   4.087   2.931   0.604 -0.2603  0.1687  0.0509
 5230TIP3    H139885   3.993   2.932   0.587 -0.3175  0.2457  0.3665
 5230TIP3    H239886   4.120   2.857   0.553 -0.2742  0.9886 -1.1678
 5231TIP3   OH239887   6.195   2.359   8.118 -0.1962  0.2401  0.5626
 5231TIP3    H139888   6.164   2.391   8.034  2.3061  2.6793  0.3883
 5231TIP3    H239889   6.246   2.281   8.097 -0.4600  0.2279 -0.0474
 5232TIP3   OH239890   2.913   5.906   0.773  0.1930 -0.5147 -0.2704
 5232TIP3    H139891   2.851   5.972   0.804  1.5987  1.3108 -1.1799
 5232TIP3    H239892   2.881   5.884   0.685  0.5704  0.1117 -0.5711
 5233TIP3   OH239893   4.934   6.541   1.825 -0.1262 -0.0577  0.4920
 5233TIP3    H139894   4.930   6.494   1.909 -0.8808  0.8676  0.9970
 5233TIP3    H239895   4.883   6.620   1.840  1.2127  0.9944 -0.2996
 5234TIP3   OH239896   7.616   0.526   7.465  0.0885 -0.1863  0.3317
 5234TIP3    H139897   7.711   0.513   7.463  0.0822 -0.1551 -1.5780
 5234TIP3    H239898   7.581   0.454   7.412 -0.8474  0.5752 -0.1015
 5235TIP3   OH239899   2.678   4.347   8.736 -0.2100  0.1165 -0.2208
 5235TIP3    H139900   2.619   4.315   8.668  0.2030 -0.6322 -0.2322
 5235TIP3    H239901   2.626   4.343   8.816 -0.0844 -0.8427 -0.1773
 5236TIP3   OH239902   2.209   3.763   8.267 -0.2256 -0.1892  0.1791
 5236TIP3    H139903   2.239   3.853   8.281 -2.1217  0.4936  0.1913
 5236TIP3    H239904   2.219   3.721   8.353 -1.7262  0.8153  0.8974
 5237TIP3   OH239905   4.623   7.227   7.821 -0.4564  0.2585  0.3875
 5237TIP3    H139906   4.716   7.230   7.846  0.0533  2.0398 -1.4530
 5237TIP3    H239907   4.582   7.292   7.877 -0.4054  0.2143  0.4779
 5238TIP3   OH239908   5.450   4.726   0.362 -0.3334  0.7398  0.3686
 5238TIP3    H139909   5.540   4.710   0.334 -0.3494  1.9141 -0.4650
 5238TIP3    H239910   5.433   4.660   0.429  1.1244  0.4589  0.4997
 5239TIP3   OH239911   0.425   0.624   7.519  0.0176  0.3150 -0.2057
 5239TIP3    H139912   0.479   0.693   7.558  1.5395 -0.5258 -0.7546
 5239TIP3    H239913   0.464   0.542   7.550 -0.3734 -0.3247 -1.3567
 5240TIP3   OH239914   1.091   6.623   9.849 -0.2628 -0.5756 -0.2950
 5240TIP3    H139915   1.143   6.553   9.890 -0.0787 -1.3748 -1.8340
 5240TIP3    H239916   1.132   6.704   9.879 -0.5540 -1.0749  1.6386
 5241TIP3   OH239917   1.981   1.946   7.730  0.1282  0.1221 -0.1649
 5241TIP3    H139918   1.914   2.007   7.760  0.4533  1.8560 -2.7067
 5241TIP3    H239919   2.032   1.926   7.809 -2.3166  0.0192  1.4945
 5242TIP3   OH239920   0.705   3.132   1.717 -0.1288  0.3090 -0.1333
 5242TIP3    H139921   0.628   3.182   1.744 -0.7203 -1.6183  2.1275
 5242TIP3    H239922   0.672   3.043   1.705  1.3357 -0.0889 -1.4878
 5243TIP3   OH239923   5.232   2.281   1.262  0.5648 -0.1966  0.2324
 5243TIP3    H139924   5.201   2.268   1.351 -0.0211  0.1353  0.0812
 5243TIP3    H239925   5.178   2.224   1.208 -1.7813  2.3754 -0.3876
 5244TIP3   OH239926   1.317   4.919   9.119 -0.3556  0.0974  0.6536
 5244TIP3    H139927   1.318   4.842   9.176 -1.8917  0.7080  1.5464
 5244TIP3    H239928   1.341   4.992   9.177  1.2278  0.3234 -0.2115
 5245TIP3   OH239929   3.569   5.638   0.194 -0.5157 -0.0880  0.0030
 5245TIP3    H139930   3.649   5.585   0.190 -0.3620  0.0379  0.9986
 5245TIP3    H239931   3.600   5.728   0.186 -0.6263 -0.0750 -0.2712
 5246TIP3   OH239932   2.642   2.679   2.620  1.0123 -0.4338  0.2876
 5246TIP3    H139933   2.572   2.738   2.648 -0.2778 -2.1317  0.7851
 5246TIP3    H239934   2.716   2.703   2.675  0.2849  0.1948  1.0324
 5247TIP3   OH239935   4.214   3.948   7.427  0.1275 -0.0415 -0.0181
 5247TIP3    H139936   4.286   3.888   7.411  0.0896  0.0757 -0.6571
 5247TIP3    H239937   4.254   4.023   7.470  0.1806 -0.4995  0.7487
 5248TIP3   OH239938   0.906   2.587   2.108  0.3991 -0.6226 -0.2087
 5248TIP3    H139939   0.894   2.595   2.203 -0.1502 -2.4415 -0.0896
 5248TIP3    H239940   0.823   2.550   2.077  0.0670  1.1459 -1.6084
 5249TIP3   OH239941   2.950   1.646   6.498 -0.1891  0.0826  0.6164
 5249TIP3    H139942   2.911   1.570   6.455  1.1450 -0.9384  1.1480
 5249TIP3    H239943   3.029   1.612   6.540  0.9138  1.9451  0.1562
 5250TIP3   OH239944   4.207   6.665   7.819  0.4691  0.5545  0.5179
 5250TIP3    H139945   4.125   6.639   7.776 -0.2844  0.8501  1.7110
 5250TIP3    H239946   4.259   6.705   7.750 -0.2328  0.0139 -0.3503
 5251TIP3   OH239947   1.978   0.885   6.893 -0.0062 -0.3752 -0.0757
 5251TIP3    H139948   1.894   0.839   6.894  0.4801 -1.2773  0.9654
 5251TIP3    H239949   1.960   0.966   6.844 -2.4323  1.2429  3.0944
 5252TIP3   OH239950   4.305   4.687   8.194 -0.2297 -0.3598  0.4688
 5252TIP3    H139951   4.355   4.762   8.160 -1.3139  0.1415 -0.0803
 5252TIP3    H239952   4.285   4.636   8.116 -0.3514 -0.6941  0.7214
 5253TIP3   OH239953   3.260   5.495   1.363 -0.3865 -0.3841 -0.4421
 5253TIP3    H139954   3.235   5.577   1.321  0.1599  0.6372  1.1452
 5253TIP3    H239955   3.337   5.517   1.416 -1.3335 -1.4535  1.5157
 5254TIP3   OH239956   1.076   4.711   1.230 -0.0496  0.3823 -0.3626
 5254TIP3    H139957   1.098   4.778   1.295  0.5430  1.3809 -1.5715
 5254TIP3    H239958   1.065   4.759   1.148  0.0871 -0.9586 -1.1909
 5255TIP3   OH239959   0.870   4.401   1.950 -0.0409 -0.3789  0.4509
 5255TIP3    H139960   0.846   4.467   2.015 -1.3977 -0.7214  0.3364
 5255TIP3    H239961   0.957   4.372   1.975 -0.2682 -0.0144  1.7205
 5256TIP3   OH239962   3.298   6.848   1.427 -0.0701 -0.6918  0.7145
 5256TIP3    H139963   3.341   6.818   1.507 -0.6662 -2.9584  0.2715
 5256TIP3    H239964   3.231   6.781   1.409  0.7257 -0.8805 -2.1975
 5257TIP3   OH239965   5.280   6.178   9.710 -0.1278  0.1475  0.5533
 5257TIP3    H139966   5.285   6.171   9.805 -1.2284  0.2344  0.6342
 5257TIP3    H239967   5.348   6.119   9.678  0.4212  0.3074  1.3864
 5258TIP3   OH239968   1.992   4.277   0.727  0.7156 -0.1027  0.4616
 5258TIP3    H139969   1.962   4.304   0.814  0.2612 -0.3482  0.3860
 5258TIP3    H239970   2.086   4.262   0.738  0.5379 -0.8400  1.1029
 5259TIP3   OH239971   4.283   4.695   1.945  0.4012  0.7645  0.1159
 5259TIP3    H139972   4.312   4.751   2.017  0.7863  0.3778  0.2591
 5259TIP3    H239973   4.315   4.608   1.967  1.7762  0.8981 -1.2221
 5260TIP3   OH239974   6.596   5.961   8.396 -0.2963  0.1174 -0.3443
 5260TIP3    H139975   6.676   6.014   8.388 -0.3782  0.1658 -0.8726
 5260TIP3    H239976   6.606   5.893   8.329 -1.4435  1.0878 -1.5555
 5261TIP3   OH239977   3.976   3.857   0.651 -0.3044 -0.0312  0.4662
 5261TIP3    H139978   3.951   3.781   0.598 -0.5443 -0.0286  0.5759
 5261TIP3    H239979   3.892   3.894   0.680 -0.2173  0.6453 -0.1124
 5262TIP3   OH239980   1.989   4.272   8.835  0.2537 -0.3487 -0.4098
 5262TIP3    H139981   2.080   4.257   8.810 -0.0430 -2.1130 -0.5564
 5262TIP3    H239982   1.964   4.352   8.789  0.8527 -1.4737 -2.8524
 5263TIP3   OH239983   2.443   1.474   7.210 -0.7709  0.2052  0.1496
 5263TIP3    H139984   2.519   1.450   7.263 -0.5568  2.0170  0.7487
 5263TIP3    H239985   2.368   1.458   7.268 -1.0406 -2.7409 -0.8516
 5264TIP3   OH239986   5.710   3.387   9.501 -0.1604  0.4244  0.0616
 5264TIP3    H139987   5.682   3.355   9.415  1.3122  0.1628 -0.3550
 5264TIP3    H239988   5.685   3.480   9.501 -0.7956  0.2576 -0.3674
 5265TIP3   OH239989   1.904   4.044   0.993  0.1800  0.0344 -0.7145
 5265TIP3    H139990   1.936   4.028   1.082 -0.5903 -1.5795 -0.6902
 5265TIP3    H239991   1.937   4.131   0.971  1.5965 -0.1183  0.6106
 5266TIP3   OH239992   4.798   6.232   8.447  0.3805 -0.0675 -0.0127
 5266TIP3    H139993   4.811   6.314   8.494 -0.0027  0.2425 -0.4305
 5266TIP3    H239994   4.862   6.234   8.376  0.0369  0.1097 -0.3233
 5267TIP3   OH239995   1.831   1.557   2.357  0.1927  0.2006  0.5825
 5267TIP3    H139996   1.889   1.518   2.422 -0.0485 -1.3535 -0.1027
 5267TIP3    H239997   1.782   1.624   2.406  1.5985  0.6327  1.4615
 5268TIP3   OH239998   2.901   3.208   9.166 -0.1867 -0.6692  0.2498
 5268TIP3    H139999   2.949   3.243   9.092  0.7242  2.8260  2.2582
 5268TIP3    H240000   2.809   3.228   9.147  0.0280  0.0966  0.0010
 5269TIP3   OH240001   6.712   6.383   8.609  0.3537  0.2591 -0.2641
 5269TIP3    H140002   6.625   6.387   8.569 -0.4363 -2.2720  0.9352
 5269TIP3    H240003   6.703   6.434   8.689 -0.7267 -1.5673  0.8565
 5270TIP3   OH240004   2.701   4.614   9.425 -0.2739 -0.0776 -0.1577
 5270TIP3    H140005   2.753   4.695   9.424  0.0904 -0.3095 -0.9002
 5270TIP3    H240006   2.630   4.632   9.487  0.6184  0.2917  0.8052
 5271TIP3   OH240007   4.032   0.306   2.104  0.0924 -0.9754 -0.2818
 5271TIP3    H140008   4.052   0.233   2.163  1.2283 -0.2599  0.2677
 5271TIP3    H240009   4.102   0.303   2.038 -0.8003 -1.3738 -1.2257
 5272TIP3   OH240010   2.636   2.540   7.520 -0.2594 -0.1213 -0.2861
 5272TIP3    H140011   2.618   2.620   7.471  2.1178  0.1947 -0.7203
 5272TIP3    H240012   2.642   2.471   7.454  2.3423  0.2025 -0.4832
 5273TIP3   OH240013   0.672   5.813   1.525 -0.1705 -0.1648 -0.9566
 5273TIP3    H140014   0.648   5.778   1.440  0.6500 -1.3154 -0.7353
 5273TIP3    H240015   0.720   5.742   1.568  2.2116  1.4229 -0.7615
 5274TIP3   OH240016   0.436   7.220   1.402  0.1961 -0.4734  0.1061
 5274TIP3    H140017   0.437   7.205   1.497  0.5172 -1.7441 -0.0797
 5274TIP3    H240018   0.371   7.158   1.369  0.3555 -0.2984 -0.5463
 5275TIP3   OH240019   7.163   4.472   9.856 -0.0806 -0.0431  0.6375
 5275TIP3    H140020   7.188   4.562   9.876  2.0293 -0.1945 -0.8847
 5275TIP3    H240021   7.173   4.465   9.761  0.3227 -1.9910  0.7771
 5276TIP3   OH240022   7.139   5.905   8.637 -0.3892  0.3104  0.2302
 5276TIP3    H140023   7.047   5.884   8.655 -0.2009 -0.3084  0.4933
 5276TIP3    H240024   7.185   5.881   8.717  0.0558  0.2679 -0.0381
 5277TIP3   OH240025   3.322   0.759   2.027 -0.2661  0.6758  0.0307
 5277TIP3    H140026   3.303   0.770   2.120  0.7381 -0.3309  0.3849
 5277TIP3    H240027   3.345   0.847   1.997 -2.4180  1.3719  0.2544
 5278TIP3   OH240028   2.390   0.562   0.640 -0.1525 -0.1323  0.1563
 5278TIP3    H140029   2.379   0.476   0.681 -0.1117  0.7142  2.0428
 5278TIP3    H240030   2.476   0.591   0.668  0.2002  0.1614 -1.2009
 5279TIP3   OH240031   1.767   6.019   1.680  0.4432  0.0549  0.4474
 5279TIP3    H140032   1.846   6.015   1.733  2.3640 -0.8161 -2.2233
 5279TIP3    H240033   1.777   5.948   1.616 -2.0143  0.5578 -0.6345
 5280TIP3   OH240034   6.642   6.111   8.021 -0.3584  0.0460 -0.8431
 5280TIP3    H140035   6.679   6.136   8.106  1.1224 -1.4163 -1.0316
 5280TIP3    H240036   6.711   6.130   7.958 -1.5607  1.4320 -1.8177
 5281TIP3   OH240037   1.422   0.271   0.603 -0.2897 -0.0257 -0.0598
 5281TIP3    H140038   1.360   0.339   0.629 -0.6011  0.0985 -1.0901
 5281TIP3    H240039   1.402   0.197   0.660 -1.7448 -0.1681 -0.7154
 5282TIP3   OH240040   4.565   2.711   7.984 -0.4922  0.1468 -0.2408
 5282TIP3    H140041   4.645   2.678   7.943 -0.2157  0.5380 -0.0148
 5282TIP3    H240042   4.505   2.636   7.982 -0.2926 -0.0053 -0.8508
 5283TIP3   OH240043   4.496   3.409   9.827  0.4961 -0.0449 -0.0219
 5283TIP3    H140044   4.591   3.403   9.818  0.4782 -0.3310 -0.0284
 5283TIP3    H240045   4.480   3.501   9.847  0.7123  0.1678 -0.8007
 5284TIP3   OH240046   7.208   1.522   9.148 -0.3053 -0.6332  0.4803
 5284TIP3    H140047   7.226   1.451   9.210  0.8304 -2.1788 -1.4937
 5284TIP3    H240048   7.239   1.489   9.064 -2.5123  1.0181 -1.1236
 5285TIP3   OH240049   0.966   0.344   0.641  0.1953 -0.4251 -0.4841
 5285TIP3    H140050   0.915   0.426   0.640  0.0554 -0.4846 -2.5968
 5285TIP3    H240051   1.056   0.373   0.653 -0.0021 -0.0733  0.2007
 5286TIP3   OH240052   4.630   3.959   9.345  0.2294  0.0703  0.0485
 5286TIP3    H140053   4.543   3.994   9.326  0.4165  1.3729  1.3704
 5286TIP3    H240054   4.639   3.968   9.440  2.4711  1.6790 -0.2332
 5287TIP3   OH240055   4.852   1.658   8.220  0.2291 -0.1594  0.0030
 5287TIP3    H140056   4.874   1.602   8.295 -0.8065  0.1238  0.5291
 5287TIP3    H240057   4.861   1.748   8.254  0.8294 -0.0087 -0.5327
 5288TIP3   OH240058   2.684   5.601   0.290  0.3708  0.1834 -0.1494
 5288TIP3    H140059   2.631   5.648   0.225 -0.8874  0.8552  1.2859
 5288TIP3    H240060   2.772   5.637   0.280  0.4263 -0.4005 -2.0796
 5289TIP3   OH240061   0.926   5.236   1.492 -0.4448  0.6959 -0.1994
 5289TIP3    H140062   0.869   5.252   1.416  0.3125 -1.9442 -1.4218
 5289TIP3    H240063   0.867   5.198   1.558 -0.4811 -0.2896 -0.7796
 5290TIP3   OH240064   1.034   2.063   9.068  0.3300 -0.1808 -0.5889
 5290TIP3    H140065   0.959   2.012   9.038  0.5076 -1.2674  0.7459
 5290TIP3    H240066   1.024   2.148   9.024 -0.0494 -1.2618 -2.7452
 5291TIP3   OH240067   7.191   2.063   9.995 -0.3719 -0.5315 -0.2831
 5291TIP3    H140068   7.224   2.140  10.041  1.4875 -2.0894  1.1439
 5291TIP3    H240069   7.128   2.098   9.932  1.3163  2.2670 -0.5667
 5292TIP3   OH240070   7.097   0.494   2.088 -0.1280 -0.1987  0.5360
 5292TIP3    H140071   7.105   0.402   2.114  0.7929 -0.4816 -0.7049
 5292TIP3    H240072   7.064   0.538   2.167  0.5722 -1.3829  1.5268
 5293TIP3   OH240073   1.870   2.213   7.905 -0.0064 -0.2388 -0.4708
 5293TIP3    H140074   1.853   2.187   7.995 -1.1797 -1.8335 -1.0999
 5293TIP3    H240075   1.874   2.308   7.908  0.7370 -0.2920  1.3678
 5294TIP3   OH240076   7.584   1.023   8.352  0.2031 -0.5850 -0.3547
 5294TIP3    H140077   7.547   0.935   8.342  0.7169 -0.7297 -1.0961
 5294TIP3    H240078   7.679   1.010   8.343  0.5167 -0.2759  1.8425
 5295TIP3   OH240079   7.422   2.162   9.082 -0.2872  0.0987 -0.2266
 5295TIP3    H140080   7.512   2.129   9.087 -1.0280 -2.0989 -0.3198
 5295TIP3    H240081   7.394   2.142   8.992 -1.3259 -0.6242  0.2297
 5296TIP3   OH240082   2.139   4.146   9.581  0.2280  0.1087  0.3786
 5296TIP3    H140083   2.095   4.125   9.499  2.2433 -0.0406 -0.7534
 5296TIP3    H240084   2.117   4.074   9.640  0.2935 -0.8065 -0.6920
 5297TIP3   OH240085   4.278   2.851   9.268  0.3807 -0.2404  0.7387
 5297TIP3    H140086   4.292   2.762   9.300  0.2393 -0.2471  0.7788
 5297TIP3    H240087   4.301   2.907   9.343 -1.8557 -0.3031  1.5271
 5298TIP3   OH240088   0.783   0.194   7.042 -0.0603  0.1625 -0.4948
 5298TIP3    H140089   0.874   0.163   7.033  0.0562  0.5318 -0.6203
 5298TIP3    H240090   0.746   0.185   6.955 -0.5582 -1.2390 -0.1596
 5299TIP3   OH240091   3.269   7.167   8.682  0.2726  0.0537  0.4862
 5299TIP3    H140092   3.247   7.105   8.751 -2.1805  0.5721  0.2421
 5299TIP3    H240093   3.308   7.113   8.613 -0.7185 -1.0416  0.7559
 5300TIP3   OH240094   3.360   1.296   7.326  0.0433  0.0833 -0.1074
 5300TIP3    H140095   3.415   1.346   7.266  1.6376 -1.2937  0.1161
 5300TIP3    H240096   3.419   1.270   7.397 -1.3937  0.2356  1.1960
 5301TIP3   OH240097   1.516   0.265   7.001 -0.1520 -0.2696 -0.1239
 5301TIP3    H140098   1.595   0.226   7.039 -0.2400 -1.0431 -0.7099
 5301TIP3    H240099   1.539   0.278   6.908 -0.0580  1.2643  0.0742
 5302TIP3   OH240100   1.272   4.045   7.487  0.6371 -0.4821 -0.2001
 5302TIP3    H140101   1.254   4.036   7.580 -1.7708  2.7136 -0.1743
 5302TIP3    H240102   1.188   4.024   7.445  1.5234 -1.3076 -1.6334
 5303TIP3   OH240103   3.557   6.215   2.571 -0.1067 -0.6979 -0.1175
 5303TIP3    H140104   3.490   6.207   2.639 -2.0815 -0.7695 -1.9899
 5303TIP3    H240105   3.593   6.303   2.584 -1.2977 -0.2546  0.3029
 5304TIP3   OH240106   6.547   2.714   8.859 -0.0408  0.7505  0.6250
 5304TIP3    H140107   6.460   2.716   8.819 -0.1585 -3.2282  0.2832
 5304TIP3    H240108   6.530   2.702   8.953  0.2643  2.8656  1.0214
 5305TIP3   OH240109   4.857   0.508   7.786 -0.0993 -0.3309 -0.2144
 5305TIP3    H140110   4.840   0.497   7.693 -0.5563  0.2001 -0.1984
 5305TIP3    H240111   4.952   0.499   7.794  0.4309  3.0030 -1.2657
 5306TIP3   OH240112   5.330   0.773   9.947  0.5957 -0.2408  0.0601
 5306TIP3    H140113   5.254   0.770  10.004  0.9365  0.3744  0.5621
 5306TIP3    H240114   5.372   0.857   9.967  2.2036 -1.1704  0.8420
 5307TIP3   OH240115   7.343   4.206   8.931 -0.0725  0.4117 -0.1926
 5307TIP3    H140116   7.266   4.238   8.885 -1.2372 -0.1046  1.3265
 5307TIP3    H240117   7.351   4.264   9.007 -0.1502 -0.7346  0.7137
 5308TIP3   OH240118   0.483   6.540   7.670 -0.3731 -0.3291 -0.4935
 5308TIP3    H140119   0.491   6.581   7.584  0.1489  0.7735  0.0627
 5308TIP3    H240120   0.405   6.580   7.709  1.3394  1.9014  0.9221
 5309TIP3   OH240121   5.122   6.348   9.575  0.7923  0.0300 -0.0278
 5309TIP3    H140122   5.081   6.423   9.617  0.4609  0.2882 -0.7971
 5309TIP3    H240123   5.184   6.315   9.640  1.5687  1.4844  0.0011
 5310TIP3   OH240124   2.967   0.565   0.373 -0.1688  0.2708 -0.0574
 5310TIP3    H140125   2.987   0.473   0.386  1.1589  0.6597  0.8670
 5310TIP3    H240126   2.892   0.565   0.314 -1.1167 -1.4112  1.0788
 5311TIP3   OH240127   5.461   3.378   9.645  0.4253 -0.1538  0.0222
 5311TIP3    H140128   5.399   3.434   9.599  0.3343 -0.2111  0.0752
 5311TIP3    H240129   5.543   3.389   9.598  0.6005  0.6148  0.4962
 5312TIP3   OH240130   3.145   7.391   8.553 -0.1599  0.1926  0.3727
 5312TIP3    H140131   3.172   7.322   8.615  0.3315  0.0580  0.0140
 5312TIP3    H240132   3.186   7.366   8.470 -1.2478  0.0888 -0.1473
 5313TIP3   OH240133   6.871   3.447   0.924  0.5091  0.2158  0.0189
 5313TIP3    H140134   6.868   3.380   0.993 -0.8831 -0.7254 -0.8969
 5313TIP3    H240135   6.950   3.427   0.875 -0.7521 -1.9227 -1.2921
 5314TIP3   OH240136   2.182   1.417   8.807 -0.2233 -0.3446 -0.5484
 5314TIP3    H140137   2.196   1.334   8.853  0.3153 -1.0953 -2.0238
 5314TIP3    H240138   2.096   1.406   8.766 -0.4388  0.0954 -0.2236
 5315TIP3   OH240139   2.376   5.060   0.335  0.0067 -0.2955 -0.6682
 5315TIP3    H140140   2.380   5.065   0.431 -0.0267  0.5519 -0.7012
 5315TIP3    H240141   2.355   5.149   0.307 -2.2714 -0.9824 -1.3668
 5316TIP3   OH240142   4.518   3.664   0.826 -0.3775  0.4567 -0.4667
 5316TIP3    H140143   4.494   3.741   0.877  0.0819 -0.7991  1.7590
 5316TIP3    H240144   4.438   3.641   0.779 -1.2747  0.8334  0.8165
 5317TIP3   OH240145   2.127   6.315   0.085  0.8058 -0.5657 -0.2971
 5317TIP3    H140146   2.158   6.249   0.022  0.3798 -0.6292 -0.4452
 5317TIP3    H240147   2.058   6.271   0.134  1.1606 -0.5238  0.2434
 5318TIP3   OH240148   3.816   1.301   8.109  0.0048  0.0025  0.5399
 5318TIP3    H140149   3.738   1.250   8.087 -0.5738  0.2079  2.0105
 5318TIP3    H240150   3.876   1.286   8.035 -1.3171 -0.3542 -0.5107
 5319TIP3   OH240151   4.085   2.466   0.822 -0.3053  0.3517  0.1039
 5319TIP3    H140152   4.072   2.391   0.881 -0.2909  1.2807  1.3059
 5319TIP3    H240153   4.007   2.520   0.835 -0.5754  0.2907 -1.1717
 5320TIP3   OH240154   5.284   2.385   0.298 -0.1818  0.5557  0.0085
 5320TIP3    H140155   5.379   2.378   0.295 -0.2263  0.2409 -0.8714
 5320TIP3    H240156   5.255   2.303   0.337 -0.0846  0.6984  0.3791
 5321TIP3   OH240157   2.043   2.144   1.848 -0.1092 -0.4352 -0.5370
 5321TIP3    H140158   2.062   2.155   1.941 -0.6561  1.0783 -0.5696
 5321TIP3    H240159   2.066   2.229   1.809 -0.5778 -0.8048 -1.6584
 5322TIP3   OH240160   1.903   6.362   8.003  0.4781  0.3457 -0.3303
 5322TIP3    H140161   1.972   6.302   8.032  0.5209  0.3924 -0.3352
 5322TIP3    H240162   1.923   6.445   8.048  0.9456  0.6194 -1.0195
 5323TIP3   OH240163   1.293   7.591   3.287  0.3583 -0.3414  0.2299
 5323TIP3    H140164   1.324   7.672   3.327 -2.2092  0.0892  1.5295
 5323TIP3    H240165   1.201   7.608   3.267  0.2591 -2.3058 -1.2973
 5324TIP3   OH240166   0.082   1.924   1.348 -0.0407 -0.0650 -0.1223
 5324TIP3    H140167   0.126   2.008   1.357 -2.2837  1.2357 -0.6992
 5324TIP3    H240168   0.001   1.933   1.397 -0.1320 -2.0797  0.1988
 5325TIP3   OH240169   2.031   7.016   9.248 -0.0916 -0.0741 -0.4614
 5325TIP3    H140170   2.034   6.928   9.211  0.3081 -0.4893  0.5318
 5325TIP3    H240171   2.059   7.005   9.338 -0.2969  1.0387 -0.2495
 5326TIP3   OH240172   2.177   5.195   0.088 -0.3785  0.1567 -0.2200
 5326TIP3    H140173   2.111   5.263   0.095  0.4030  0.8567  0.5867
 5326TIP3    H240174   2.184   5.178  -0.006 -1.0350  0.7289 -0.3785
 5327TIP3   OH240175   5.527   2.757   9.750  0.1975 -0.2554 -0.3863
 5327TIP3    H140176   5.596   2.810   9.790 -0.2934 -1.0204  1.5832
 5327TIP3    H240177   5.455   2.761   9.812 -1.6021  0.5622 -2.4120
 5328TIP3   OH240178   5.691   1.218   9.963  0.2880 -0.2499 -0.3547
 5328TIP3    H140179   5.662   1.309   9.960  0.5229 -0.1807 -2.7825
 5328TIP3    H240180   5.783   1.222   9.986  0.0827  0.0413  0.4430
 5329TIP3   OH240181   6.456   4.023   0.715 -0.8020  0.2846 -0.0518
 5329TIP3    H140182   6.434   3.931   0.733  0.3975  0.1304  0.7369
 5329TIP3    H240183   6.514   4.048   0.786  0.2958  1.1295 -1.2053
 5330TIP3   OH240184   1.102   4.360   8.328  0.0007 -0.2611  0.0770
 5330TIP3    H140185   1.188   4.327   8.305 -0.2240  0.6666 -2.3353
 5330TIP3    H240186   1.119   4.443   8.373  0.3803 -0.4345  0.2500
 5331TIP3   OH240187   3.042   5.278   2.835  0.1112  0.6590  0.4392
 5331TIP3    H140188   3.106   5.332   2.882  0.4587  0.9266 -0.3275
 5331TIP3    H240189   3.095   5.219   2.782 -0.2735  0.7814 -0.0872
 5332TIP3   OH240190   5.068   5.347   8.408 -0.2198 -0.5961  0.4958
 5332TIP3    H140191   4.973   5.352   8.415 -0.3951 -0.5131 -1.4147
 5332TIP3    H240192   5.100   5.412   8.471 -1.3712 -1.1209  1.6792
 5333TIP3   OH240193   5.298   7.283   8.679 -0.4166 -0.3244 -0.1931
 5333TIP3    H140194   5.303   7.378   8.677 -0.9021 -0.3015 -0.3745
 5333TIP3    H240195   5.347   7.256   8.601  0.8623 -0.2841  0.5607
 5334TIP3   OH240196   2.867   7.478   7.732  0.5436  0.5760 -0.4097
 5334TIP3    H140197   2.898   7.501   7.820 -1.1767 -0.2562  0.4599
 5334TIP3    H240198   2.922   7.530   7.673  0.3208  2.8354  1.2439
 5335TIP3   OH240199   4.177   0.960   1.218 -0.2476  0.1804  0.7621
 5335TIP3    H140200   4.232   0.979   1.294  2.6164  0.1502 -1.1673
 5335TIP3    H240201   4.150   1.046   1.186 -0.4855  0.2483  1.1458
 5336TIP3   OH240202   5.630   2.284   1.199 -0.1949 -0.0571  0.7629
 5336TIP3    H140203   5.646   2.257   1.108  2.4010 -1.6482  1.5611
 5336TIP3    H240204   5.645   2.379   1.199 -1.2576  0.1420 -0.6159
 5337TIP3   OH240205   0.134   6.759   1.634  0.2204  0.1922 -0.5754
 5337TIP3    H140206   0.087   6.684   1.598 -0.6900  0.7199 -0.5121
 5337TIP3    H240207   0.137   6.743   1.728  0.8930 -0.2338 -0.6604
 5338TIP3   OH240208   5.265   3.568   0.729 -0.2410  0.2307  0.1542
 5338TIP3    H140209   5.318   3.489   0.742  1.8826  1.4260 -0.7689
 5338TIP3    H240210   5.266   3.612   0.815 -0.2923 -0.0686  0.3091
 5339TIP3   OH240211   1.377   3.897   2.435 -1.0269 -0.2192 -0.4140
 5339TIP3    H140212   1.324   3.958   2.384 -0.7998 -0.1548 -0.5747
 5339TIP3    H240213   1.372   3.929   2.525  1.7838  2.0187 -0.9273
 5340TIP3   OH240214   3.076   3.319   8.983  0.7151  0.6029 -0.6540
 5340TIP3    H140215   3.151   3.313   9.043  0.0574  1.3927  0.2758
 5340TIP3    H240216   3.074   3.410   8.956  1.1384  0.2164 -2.1081
 5341TIP3   OH240217   1.140   7.347   9.039  0.1885  0.3784 -0.1402
 5341TIP3    H140218   1.224   7.324   9.078 -0.7195  0.2793  1.9097
 5341TIP3    H240219   1.085   7.371   9.114 -1.7504 -0.0172 -1.3699
 5342TIP3   OH240220   5.054   6.662   1.029 -0.0301 -0.1212  0.4040
 5342TIP3    H140221   5.030   6.694   1.116 -2.1927 -0.3341 -0.0391
 5342TIP3    H240222   4.988   6.700   0.970  1.1655 -0.2626 -1.0995
 5343TIP3   OH240223   6.057   5.999   9.418  0.2951  0.8226 -0.0166
 5343TIP3    H140224   6.134   6.048   9.447  1.2060 -0.1407 -0.7134
 5343TIP3    H240225   6.093   5.922   9.374 -1.0818  0.1395 -0.0059
 5344TIP3   OH240226   5.363   3.860   0.241 -0.4463  0.5116 -0.1672
 5344TIP3    H140227   5.437   3.920   0.242 -0.9449  1.1369 -0.2861
 5344TIP3    H240228   5.393   3.786   0.189  0.0686  0.7966 -0.2803
 5345TIP3   OH240229   6.220   4.000   9.892  0.0301 -0.0708 -0.1849
 5345TIP3    H140230   6.273   4.040   9.961  0.0033 -1.1814  0.5078
 5345TIP3    H240231   6.130   4.004   9.925  0.1695 -1.9074  0.5552
 5346TIP3   OH240232   3.946   4.828   0.009  0.0732 -0.7826 -0.3194
 5346TIP3    H140233   3.951   4.735   0.030  0.1886 -1.0819 -1.5996
 5346TIP3    H240234   3.863   4.837  -0.039  0.9815 -0.6146 -1.9326
 5347TIP3   OH240235   6.256   6.113   9.822 -0.5849  0.4963  0.1886
 5347TIP3    H140236   6.179   6.104   9.766 -0.8603 -0.3518  0.6861
 5347TIP3    H240237   6.291   6.024   9.830 -0.0868  0.7296  0.7108
 5348TIP3   OH240238   6.306   3.603   8.671  0.5098  0.0659  0.0031
 5348TIP3    H140239   6.324   3.528   8.614  2.3218  0.4733 -0.0029
 5348TIP3    H240240   6.216   3.588   8.701 -0.0278 -0.8783 -1.8538
 5349TIP3   OH240241   0.870   1.478   8.590 -0.1661 -0.6662 -0.3686
 5349TIP3    H140242   0.852   1.396   8.638  0.5145 -0.8859 -0.4779
 5349TIP3    H240243   0.784   1.513   8.569 -0.4755 -0.8788  0.4966
 5350TIP3   OH240244   0.456   5.511   0.106  0.5437  0.0505  0.2628
 5350TIP3    H140245   0.414   5.557   0.179 -1.8533  0.6848 -1.3740
 5350TIP3    H240246   0.516   5.575   0.068 -0.5759  0.8727 -0.1956
 5351TIP3   OH240247   3.685   7.345   8.242  0.2579  0.2107 -0.0936
 5351TIP3    H140248   3.780   7.343   8.224  0.2120  0.1793 -0.3455
 5351TIP3    H240249   3.651   7.272   8.190  0.1031  0.1874  0.0434
 5352TIP3   OH240250   5.264   6.722   9.922  0.4909 -0.8225 -1.0141
 5352TIP3    H140251   5.254   6.627   9.934 -0.7028 -0.6061 -0.0870
 5352TIP3    H240252   5.283   6.755  10.010  0.1368 -0.1298 -1.1925
 5353TIP3   OH240253   7.473   1.234   1.882 -0.1108 -0.0830 -0.2081
 5353TIP3    H140254   7.471   1.139   1.894  1.5859  0.0098  1.2848
 5353TIP3    H240255   7.461   1.269   1.970  1.4076  1.0034 -0.3918
 5354TIP3   OH240256   0.147   3.883   1.758 -0.4698 -0.7494  0.1328
 5354TIP3    H140257   0.202   3.950   1.717  2.2952 -2.3227  1.0146
 5354TIP3    H240258   0.131   3.917   1.846 -1.3554 -0.0875 -0.2650
 5355TIP3   OH240259   5.203   4.679   1.343 -0.5216  0.2441  0.0876
 5355TIP3    H140260   5.240   4.754   1.297 -2.8649  0.8334 -1.0109
 5355TIP3    H240261   5.197   4.611   1.275  0.0993 -0.4042  0.6709
 5356TIP3   OH240262   3.187   6.003   8.493  0.0911 -0.4026  0.2516
 5356TIP3    H140263   3.170   5.950   8.415 -0.9919 -1.6424  1.2810
 5356TIP3    H240264   3.225   6.084   8.459 -0.1004 -1.0128 -1.5308
 5357TIP3   OH240265   4.737   6.047   0.982 -0.6370 -0.4720  0.2724
 5357TIP3    H140266   4.702   6.036   1.071 -1.2116 -0.0014  0.1079
 5357TIP3    H240267   4.669   6.013   0.925 -1.7629  2.3304 -0.1650
 5358TIP3   OH240268   3.459   7.652   7.850 -0.2927  0.7423 -0.1232
 5358TIP3    H140269   3.551   7.633   7.868 -0.6515 -2.8068 -1.2266
 5358TIP3    H240270   3.444   7.737   7.890  2.8430  0.3989  2.1727
 5359TIP3   OH240271   6.806   4.692   0.190 -0.0697  0.5557 -0.2692
 5359TIP3    H140272   6.713   4.702   0.211 -0.6964 -0.1923 -2.3839
 5359TIP3    H240273   6.814   4.602   0.160  1.0373  1.0127 -1.4409
 5360TIP3   OH240274   6.846   1.787   7.916 -0.5626 -0.3866  0.0085
 5360TIP3    H140275   6.897   1.868   7.920 -0.5486 -0.4430  1.3366
 5360TIP3    H240276   6.761   1.811   7.954 -0.8006 -0.8299 -0.2401
 5361TIP3   OH240277   4.609   7.300   0.184 -0.1505  0.8290  0.3978
 5361TIP3    H140278   4.625   7.207   0.171  1.2635  1.1139 -0.1336
 5361TIP3    H240279   4.601   7.311   0.278 -1.0253  0.0824  0.4236
 5362TIP3   OH240280   5.449   1.738   2.519 -0.1467 -0.2576  0.4806
 5362TIP3    H140281   5.531   1.719   2.474 -0.8011 -2.6582  0.1735
 5362TIP3    H240282   5.453   1.832   2.538  2.4450 -0.2199  0.0818
 5363TIP3   OH240283   2.209   5.562   1.383 -0.3327 -0.2449 -0.0035
 5363TIP3    H140284   2.238   5.535   1.471  0.9729  0.1154 -0.3139
 5363TIP3    H240285   2.239   5.652   1.374  0.6017 -0.6573 -1.2735
 5364TIP3   OH240286   5.837   3.793   9.905  0.0987  0.0560 -0.0214
 5364TIP3    H140287   5.871   3.872   9.945 -1.2251  0.8031 -0.3021
 5364TIP3    H240288   5.886   3.722   9.946  0.8507  0.9721  0.7113
 5365TIP3   OH240289   2.348   1.533   9.045 -0.0089 -0.0265 -0.1576
 5365TIP3    H140290   2.330   1.503   8.956 -0.1767  0.7388 -0.3913
 5365TIP3    H240291   2.373   1.454   9.093  0.0340 -0.4514 -0.8716
 5366TIP3   OH240292   6.999   7.046   8.971 -0.6129 -0.5036 -0.2095
 5366TIP3    H140293   7.088   7.026   9.000 -0.7291 -1.6003 -0.5867
 5366TIP3    H240294   6.991   7.141   8.983  0.1560 -0.5778  1.0590
 5367TIP3   OH240295   4.775   4.352   7.628  0.1642 -0.1616 -0.2700
 5367TIP3    H140296   4.836   4.372   7.557 -0.3998 -1.3528 -1.1433
 5367TIP3    H240297   4.785   4.423   7.690  2.4803 -0.3484 -0.3542
 5368TIP3   OH240298   5.924   7.356   8.280  0.1331 -0.0525  0.7058
 5368TIP3    H140299   5.908   7.389   8.192  1.1431  0.5232  0.7157
 5368TIP3    H240300   5.874   7.274   8.285 -0.3997  0.2042 -0.1915
 5369TIP3   OH240301   5.493   1.963   8.582 -0.3010 -0.0252 -0.4673
 5369TIP3    H140302   5.427   1.980   8.650  0.6704  0.2768  0.4258
 5369TIP3    H240303   5.442   1.938   8.505 -1.6628  2.9623 -0.6683
 5370TIP3   OH240304   0.591   5.275   9.133  0.6113  0.2218 -0.0142
 5370TIP3    H140305   0.539   5.207   9.174 -1.2487  1.2900 -0.4707
 5370TIP3    H240306   0.628   5.325   9.205 -0.7271  0.6933  0.3608
 5371TIP3   OH240307   4.444   2.151   0.755  0.1056  0.3440  0.5214
 5371TIP3    H140308   4.505   2.090   0.715 -1.3826 -0.8117 -0.0533
 5371TIP3    H240309   4.430   2.219   0.689 -0.0010  0.0818  0.2774
 5372TIP3   OH240310   2.949   0.085   7.783  0.0601 -0.0195  0.3219
 5372TIP3    H140311   3.007   0.049   7.851 -0.0516 -0.5014  0.1592
 5372TIP3    H240312   2.994   0.164   7.754  0.2751  0.0084  0.7223
 5373TIP3   OH240313   2.478   3.541   1.834 -0.2630 -0.5314  0.0273
 5373TIP3    H140314   2.391   3.565   1.804 -0.0112 -0.6100 -0.8095
 5373TIP3    H240315   2.531   3.540   1.754  1.4472  3.2883  0.9044
 5374TIP3   OH240316   2.274   1.866   2.060 -1.1452  0.1905 -0.5931
 5374TIP3    H140317   2.318   1.916   1.992 -0.3060 -2.2094 -1.9010
 5374TIP3    H240318   2.345   1.835   2.117 -1.5837 -0.1065 -0.1977
 5375TIP3   OH240319   1.954   2.068   0.595  0.0847  0.3252  0.3236
 5375TIP3    H140320   1.866   2.068   0.632  0.7923 -1.2827  2.1901
 5375TIP3    H240321   1.950   2.004   0.524 -0.4581  0.9037 -0.1696
 5376TIP3   OH240322   1.515   1.610   7.508 -0.4159 -0.0333  0.0284
 5376TIP3    H140323   1.507   1.515   7.508 -0.1742 -0.0565  0.2409
 5376TIP3    H240324   1.431   1.642   7.474 -0.2116 -0.3423 -0.7772
 5377TIP3   OH240325   7.523   6.136   0.956  0.7539 -0.8519 -0.1325
 5377TIP3    H140326   7.616   6.118   0.938  0.8783  0.3137 -0.7773
 5377TIP3    H240327   7.522   6.173   1.044  1.4260  2.5656 -1.4163
 5378TIP3   OH240328   6.545   6.396   1.181  0.3688 -0.2915 -0.1480
 5378TIP3    H140329   6.578   6.350   1.104  0.0991  0.0702 -0.4849
 5378TIP3    H240330   6.593   6.478   1.183 -1.0378  0.5913 -1.0997
 5379TIP3   OH240331   2.683   7.466   8.757  0.3089  0.0010 -0.1941
 5379TIP3    H140332   2.718   7.452   8.845  1.4783 -0.8674 -0.7717
 5379TIP3    H240333   2.760   7.488   8.704 -0.6219  2.6292 -0.6166
 5380TIP3   OH240334   6.162   2.148   2.185  0.1252 -0.2878  0.4221
 5380TIP3    H140335   6.245   2.145   2.232  0.1056 -0.8767  0.4271
 5380TIP3    H240336   6.101   2.188   2.247  0.4049  0.1520  0.4141
 5381TIP3   OH240337   4.432   2.346   2.332 -0.1249 -0.6292 -0.2956
 5381TIP3    H140338   4.478   2.428   2.350 -0.5077 -0.5029  0.1025
 5381TIP3    H240339   4.420   2.304   2.417  1.6169 -1.9520 -0.6433
 5382TIP3   OH240340   4.226   1.073   9.776  0.4033 -0.2470 -0.5563
 5382TIP3    H140341   4.255   0.991   9.815 -0.5715 -1.3616 -2.0686
 5382TIP3    H240342   4.131   1.064   9.767  0.1472  1.4222  0.0444
 5383TIP3   OH240343   2.479   3.169   7.749 -0.0284  0.4278  0.3789
 5383TIP3    H140344   2.385   3.167   7.734 -0.2726 -1.6255  1.7181
 5383TIP3    H240345   2.503   3.261   7.742 -1.8292  0.8108 -1.6187
 5384TIP3   OH240346   7.468   2.191   9.359  0.0175  0.0681  0.0910
 5384TIP3    H140347   7.480   2.097   9.356 -0.5867 -0.0517  0.9742
 5384TIP3    H240348   7.449   2.216   9.269  1.0943 -0.5083 -0.3186
 5385TIP3   OH240349   3.382   6.528   0.656 -0.4851  0.2890  0.6305
 5385TIP3    H140350   3.381   6.619   0.686 -0.1741 -0.4653  3.1988
 5385TIP3    H240351   3.371   6.533   0.561 -1.5417  2.9364  0.8210
 5386TIP3   OH240352   0.427   0.486   0.028 -0.6183 -0.0580  0.2401
 5386TIP3    H140353   0.357   0.539  -0.010 -0.3733 -0.8045 -1.3340
 5386TIP3    H240354   0.385   0.403   0.051 -0.3774 -0.3177 -0.2314
 5387TIP3   OH240355   1.552   5.469   0.099 -0.7967  0.2829 -0.4710
 5387TIP3    H140356   1.570   5.516   0.180  0.6719 -0.5379 -0.2736
 5387TIP3    H240357   1.459   5.483   0.083 -0.9171  1.2203  0.8596
 5388TIP3   OH240358   7.162   1.047   9.982 -0.2386  0.2117  0.0330
 5388TIP3    H140359   7.068   1.044   9.967  0.2732  0.1548 -4.2381
 5388TIP3    H240360   7.182   1.141   9.989 -0.5988  0.2129  1.2325
 5389TIP3   OH240361   0.221   1.990   0.031  0.0125 -0.3359  0.9719
 5389TIP3    H140362   0.303   1.947   0.053  0.8406  2.1305  3.2321
 5389TIP3    H240363   0.176   2.001   0.115 -0.7831  1.8192  0.3367
 5390TIP3   OH240364   1.463   0.963   8.493 -0.2287 -0.5899 -0.3947
 5390TIP3    H140365   1.514   1.011   8.427 -2.9052  0.6764 -1.7247
 5390TIP3    H240366   1.438   1.029   8.557 -1.4066 -0.8176 -0.5932
 5391TIP3   OH240367   2.941   4.985   8.662  0.4520  0.3286 -0.0751
 5391TIP3    H140368   2.850   5.000   8.685  0.2614 -0.3392 -0.3623
 5391TIP3    H240369   2.956   4.892   8.682  0.7485  0.1548 -1.0433
 5392TIP3   OH240370   2.469   6.821   8.162  0.3548  0.0057  0.1849
 5392TIP3    H140371   2.445   6.838   8.071  1.4903 -0.1392 -0.1566
 5392TIP3    H240372   2.443   6.731   8.178  0.3283 -0.0280 -0.0557
 5393TIP3   OH240373   2.813   2.209   2.008  0.1933  0.2739 -0.1556
 5393TIP3    H140374   2.821   2.230   2.101  0.5990 -0.9471  0.1022
 5393TIP3    H240375   2.845   2.287   1.963 -2.5111  1.9853  0.6467
 5394TIP3   OH240376   0.822   4.037   9.795 -0.1914 -0.1718  0.7155
 5394TIP3    H140377   0.911   4.031   9.762  0.0077 -1.5520  1.4210
 5394TIP3    H240378   0.770   3.985   9.735  0.0502 -2.0716  2.0621
 5395TIP3   OH240379   3.600   2.317   0.675 -0.1021 -0.8786  0.0082
 5395TIP3    H140380   3.601   2.236   0.725  0.6257 -0.2938  0.9771
 5395TIP3    H240381   3.606   2.289   0.584 -0.7224 -1.9368  0.2705
 5396TIP3   OH240382   7.102   0.142   9.993 -0.3347 -0.0627  0.1977
 5396TIP3    H140383   7.061   0.081  10.054 -0.6340  0.1398  0.2007
 5396TIP3    H240384   7.058   0.125   9.910 -0.5182  0.2501  0.2318
 5397TIP3   OH240385   2.109   5.671   7.860 -0.4928  0.1447  0.1123
 5397TIP3    H140386   2.113   5.658   7.765 -1.9454  1.1578 -0.1253
 5397TIP3    H240387   2.184   5.622   7.894  0.6573  0.5764 -1.6307
 5398TIP3   OH240388   2.214   3.262   8.163 -0.1907  0.4624 -0.7477
 5398TIP3    H140389   2.190   3.320   8.091  0.2528  0.0219 -1.2536
 5398TIP3    H240390   2.302   3.232   8.142 -0.6292 -0.8456 -0.7875
 5399TIP3   OH240391   0.384   4.954   0.075 -0.2290 -0.0663  0.0337
 5399TIP3    H140392   0.292   4.955   0.051 -0.2559 -2.1304 -0.1397
 5399TIP3    H240393   0.420   5.034   0.037 -1.9924  0.9624  0.4205
 5400TIP3   OH240394   1.594   5.892   7.262  0.0696  0.0243 -0.5067
 5400TIP3    H140395   1.583   5.817   7.321  1.1866 -0.0640 -0.3862
 5400TIP3    H240396   1.572   5.968   7.315 -2.0957 -0.2562 -0.9205
 5401TIP3   OH240397   3.991   1.964   0.701 -0.6519  0.7673 -0.0477
 5401TIP3    H140398   4.047   1.997   0.771  0.9172  1.8118 -1.7279
 5401TIP3    H240399   3.971   1.874   0.728  1.4636  0.5032  0.8461
 5402TIP3   OH240400   4.170   7.665   0.028 -0.0742  0.5804 -0.2883
 5402TIP3    H140401   4.127   7.605  -0.033  2.7437 -1.9076 -0.0882
 5402TIP3    H240402   4.107   7.677   0.099 -1.8288  0.1927 -1.6992
 5403TIP3   OH240403   1.185   5.276   9.852 -0.5190  0.0066  0.1854
 5403TIP3    H140404   1.234   5.199   9.881 -0.7403 -0.2976 -0.2455
 5403TIP3    H240405   1.211   5.345   9.913  1.9333  0.3712 -1.1175
 5404TIP3   OH240406   0.167   4.856   8.307  0.4816 -0.1881  0.0635
 5404TIP3    H140407   0.182   4.877   8.215  1.5634  0.7879  0.4368
 5404TIP3    H240408   0.096   4.792   8.306 -2.3089  2.7125 -1.2051
 5405TIP3   OH240409   1.439   0.720   8.613 -0.1747 -0.4285 -0.0624
 5405TIP3    H140410   1.424   0.809   8.580 -0.5636  0.4762  2.3753
 5405TIP3    H240411   1.531   0.702   8.592 -0.8788 -0.7970 -3.3877
 5406TIP3   OH240412   4.195   0.580   2.405 -0.5983 -0.0225 -0.3001
 5406TIP3    H140413   4.147   0.564   2.486 -0.2369 -0.8381 -0.2372
 5406TIP3    H240414   4.138   0.636   2.354 -0.5553  1.0737  0.7881
 5407TIP3   OH240415   2.409   5.452   9.116 -0.6169  0.2073 -0.5541
 5407TIP3    H140416   2.400   5.453   9.211  0.9535  1.0121 -0.3901
 5407TIP3    H240417   2.477   5.516   9.097 -0.2844 -0.5649 -2.1624
 5408TIP3   OH240418   5.283   2.698   9.081 -0.0635 -0.8256 -0.2707
 5408TIP3    H140419   5.226   2.755   9.029 -0.1062 -0.2135  0.4374
 5408TIP3    H240420   5.223   2.649   9.137  0.0259 -1.0456 -0.3677
 5409TIP3   OH240421   2.871   5.254   9.017  0.3105 -0.2485  0.7842
 5409TIP3    H140422   2.861   5.295   8.931 -2.6046 -1.8048  0.2572
 5409TIP3    H240423   2.912   5.321   9.071  0.6438  1.3794 -1.3637
 5410TIP3   OH240424   1.609   0.001   7.717 -0.2910 -0.0846 -0.0772
 5410TIP3    H140425   1.639  -0.064   7.654 -0.1981  0.7804 -0.9573
 5410TIP3    H240426   1.526  -0.034   7.751  1.0346 -1.9246  1.4881
 5411TIP3   OH240427   6.142   6.614   0.107 -0.1026  0.1138  0.1045
 5411TIP3    H140428   6.065   6.664   0.080  0.6523  1.3879  0.2345
 5411TIP3    H240429   6.127   6.526   0.073 -1.0206  0.6736 -0.9783
 5412TIP3   OH240430   2.365   1.727   1.313  0.1836 -0.2048  0.4308
 5412TIP3    H140431   2.367   1.676   1.394 -0.5216  0.9978  1.2262
 5412TIP3    H240432   2.452   1.766   1.306  1.3478 -2.7890 -1.0852
 5413TIP3   OH240433   5.692   7.425   1.786  0.5401  0.6866 -0.0195
 5413TIP3    H140434   5.692   7.483   1.862 -0.6599  1.0059 -0.2406
 5413TIP3    H240435   5.783   7.425   1.756  1.3573 -0.6119  2.2576
 5414TIP3   OH240436   4.758   0.723   2.358  0.2839 -0.0026  0.4540
 5414TIP3    H140437   4.754   0.630   2.379  0.7803  0.0056  0.6050
 5414TIP3    H240438   4.850   0.746   2.371  0.1665  0.5045  0.3961
 5415TIP3   OH240439   6.862   3.919   7.708 -0.0206  0.1123  0.1227
 5415TIP3    H140440   6.859   4.012   7.684  0.2882 -0.3584 -1.9972
 5415TIP3    H240441   6.818   3.914   7.793 -1.1841  2.0258 -0.2985
 5416TIP3   OH240442   1.538   4.267   0.572  0.0482 -0.2448 -0.0947
 5416TIP3    H140443   1.613   4.297   0.520  1.2637 -0.3379  1.5397
 5416TIP3    H240444   1.576   4.211   0.639 -1.6815 -1.5358 -0.1475
 5417TIP3   OH240445   0.590   6.726   7.944 -0.8665 -0.1597 -0.0310
 5417TIP3    H140446   0.565   6.679   8.023  0.3644 -2.3324 -0.8601
 5417TIP3    H240447   0.678   6.694   7.924 -0.5692  1.4247 -1.5082
 5418TIP3   OH240448   5.606   0.531   9.651  0.1920  0.3327  0.2257
 5418TIP3    H140449   5.634   0.499   9.737  2.9726 -0.7416 -0.9832
 5418TIP3    H240450   5.678   0.586   9.621  0.7987 -1.8082 -2.6778
 5419TIP3   OH240451   2.689   0.051   0.488 -0.5307 -0.3518  0.3067
 5419TIP3    H140452   2.774   0.049   0.533 -0.9588  1.0703  1.2658
 5419TIP3    H240453   2.672  -0.040   0.465  1.7686 -0.5380 -0.9560
 5420TIP3   OH240454   1.895   1.645   9.210 -0.3159 -0.6787 -0.3352
 5420TIP3    H140455   1.953   1.653   9.286 -1.3289 -0.6481  0.4614
 5420TIP3    H240456   1.818   1.698   9.233  0.1608  0.9304 -2.2164
 5421TIP3   OH240457   7.059   6.009   1.055  0.4398  0.6828  0.3190
 5421TIP3    H140458   7.037   5.917   1.047  0.3928  0.7829 -1.0084
 5421TIP3    H240459   7.109   6.028   0.975 -0.7989  2.1471 -0.1442
 5422TIP3   OH240460   3.608   2.043   2.247 -0.4811 -0.0145 -0.1686
 5422TIP3    H140461   3.541   2.110   2.247 -0.1244  0.4448  2.5419
 5422TIP3    H240462   3.676   2.077   2.188 -0.5666  1.7632  0.6903
 5423TIP3   OH240463   6.586   6.303   7.781  0.2725  0.5413 -0.4477
 5423TIP3    H140464   6.540   6.381   7.752 -1.1443 -0.3848 -0.7804
 5423TIP3    H240465   6.572   6.238   7.712  0.7099 -0.2770  0.1972
 5424TIP3   OH240466   4.559   0.058   9.552  0.3137 -0.5756  0.3736
 5424TIP3    H140467   4.556  -0.017   9.492  0.2543 -0.6632  0.4871
 5424TIP3    H240468   4.558   0.134   9.494 -0.8739 -0.6380  0.2958
 5425TIP3   OH240469   7.222   2.516   0.792  0.3816  0.2764 -0.1985
 5425TIP3    H140470   7.167   2.568   0.850  0.3723 -0.0669  0.1077
 5425TIP3    H240471   7.190   2.426   0.804  1.9777 -0.1689  1.1493
 5426TIP3   OH240472   2.244   0.300   2.868 -0.1077 -0.2308 -0.2527
 5426TIP3    H140473   2.317   0.258   2.914  1.2108  1.2671 -0.8720
 5426TIP3    H240474   2.170   0.291   2.928  1.4873  1.5116  2.1850
 5427TIP3   OH240475   5.476   5.620   8.381 -0.5600  0.2727  0.0456
 5427TIP3    H140476   5.441   5.539   8.345  0.7683 -0.9342  1.3038
 5427TIP3    H240477   5.506   5.669   8.305 -1.1037 -0.5627 -0.7235
 5428TIP3   OH240478   3.302   4.240   9.723 -0.0400  0.4515  0.1729
 5428TIP3    H140479   3.389   4.248   9.684 -0.1933  0.3550 -0.1899
 5428TIP3    H240480   3.261   4.325   9.705 -0.6198 -0.0753 -1.1283
 5429TIP3   OH240481   1.968   6.013   1.851 -0.1184  0.2778  0.2315
 5429TIP3    H140482   2.045   5.982   1.899 -0.5055  1.4097  1.6455
 5429TIP3    H240483   1.972   6.109   1.858  0.8995  0.7107 -3.7645
 5430TIP3   OH240484   6.675   5.583   8.856 -0.6135  0.0673 -0.3428
 5430TIP3    H140485   6.630   5.501   8.878  2.0589 -1.1865  0.9125
 5430TIP3    H240486   6.629   5.615   8.779 -1.9082 -2.5120 -0.7754
 5431TIP3   OH240487   0.149   4.237   8.694  0.9655 -0.1003  0.6598
 5431TIP3    H140488   0.180   4.224   8.784 -2.1331  0.5622  1.9541
 5431TIP3    H240489   0.054   4.244   8.702  0.6205  0.7034 -2.6255
 5432TIP3   OH240490   6.357   5.428   8.121 -0.4626  0.2720 -0.1016
 5432TIP3    H140491   6.375   5.359   8.057 -1.4898  0.8538 -1.0301
 5432TIP3    H240492   6.305   5.493   8.074 -1.7521  0.4417  1.4752
 5433TIP3   OH240493   3.661   2.614   9.288  0.2833  0.0882  0.2687
 5433TIP3    H140494   3.578   2.576   9.317  0.3163 -2.7082 -2.7523
 5433TIP3    H240495   3.728   2.550   9.316  0.9229  0.2858 -0.7411
 5434TIP3   OH240496   4.496   3.755   1.561  0.2732  0.0802  0.0062
 5434TIP3    H140497   4.548   3.829   1.530  1.0978 -1.6651 -3.2887
 5434TIP3    H240498   4.554   3.705   1.618  1.6852 -0.7893 -2.0644
 5435TIP3   OH240499   2.379   6.613   9.256 -0.1138 -0.0758  0.2606
 5435TIP3    H140500   2.473   6.619   9.271 -0.3645  0.6934  1.6693
 5435TIP3    H240501   2.369   6.626   9.162  0.9370  3.3012  0.5086
 5436TIP3   OH240502   3.296   0.000   0.166  0.7128  0.2097  0.2501
 5436TIP3    H140503   3.286  -0.093   0.185  1.1508  0.1581  0.2242
 5436TIP3    H240504   3.323   0.003   0.074 -3.1688  0.5091 -1.0931
 5437TIP3   OH240505   6.951   1.119   1.152  0.3120  0.3293 -0.6184
 5437TIP3    H140506   6.899   1.192   1.187 -0.9734  0.1702 -2.0957
 5437TIP3    H240507   6.892   1.043   1.158  1.6216 -0.6334  0.8867
 5438TIP3   OH240508   3.258   0.670   9.434  0.0839 -0.0667  0.2266
 5438TIP3    H140509   3.238   0.580   9.407 -0.0037 -0.3152  1.1097
 5438TIP3    H240510   3.252   0.669   9.529  1.1336  0.6303  0.3178
 5439TIP3   OH240511   0.886   6.933   1.809 -0.1088  0.1302  0.2953
 5439TIP3    H140512   0.943   6.969   1.741  2.2994  0.8894  2.5708
 5439TIP3    H240513   0.936   6.863   1.849 -0.7257  0.7867  2.3674
 5440TIP3   OH240514   0.764   5.420   9.007  0.0886 -0.0407 -0.1781
 5440TIP3    H140515   0.815   5.343   8.983 -1.1208 -0.5097 -1.4153
 5440TIP3    H240516   0.683   5.385   9.044 -1.3881  0.4768 -2.6379
 5441TIP3   OH240517   1.205   4.481   0.412  0.2425  0.0072  0.1175
 5441TIP3    H140518   1.139   4.491   0.481  1.4675 -0.7856  1.4599
 5441TIP3    H240519   1.247   4.398   0.432  2.0083  0.7445 -0.3921
 5442TIP3   OH240520   3.191   0.951   0.619 -0.1308  0.2084 -0.0387
 5442TIP3    H140521   3.279   0.931   0.650 -0.2169 -0.9458 -0.4953
 5442TIP3    H240522   3.205   1.014   0.548  0.1777  1.5298  1.1510
 5443TIP3   OH240523   6.263   4.706   0.304  0.0956 -1.0567  0.0378
 5443TIP3    H140524   6.229   4.630   0.258  1.8390 -2.1250  0.4045
 5443TIP3    H240525   6.187   4.762   0.318 -0.7753 -1.4828 -2.5654
 5444TIP3   OH240526   2.613   7.134   0.885 -0.1494  0.2557  0.1782
 5444TIP3    H140527   2.625   7.191   0.961 -0.0357 -0.3539  0.6235
 5444TIP3    H240528   2.587   7.050   0.922 -1.1153  0.2326 -0.5151
 5445TIP3   OH240529   3.044   6.664   1.643  0.1626  0.3111  0.2357
 5445TIP3    H140530   2.963   6.652   1.593  0.3483  2.3557 -0.6655
 5445TIP3    H240531   3.019   6.719   1.716  0.4783 -0.2640  0.7873
 5446TIP3   OH240532   2.365   0.902   2.656 -0.0835  0.0338  0.3142
 5446TIP3    H140533   2.369   0.997   2.670 -1.1729  0.2661 -0.8322
 5446TIP3    H240534   2.333   0.892   2.567 -2.0430 -1.4379  1.1216
 5447TIP3   OH240535   5.940   1.426   9.882  0.3469 -0.5064 -0.5569
 5447TIP3    H140536   5.887   1.475   9.819 -0.0479  0.6634  0.6410
 5447TIP3    H240537   5.948   1.485   9.957  0.7071 -1.9159  0.5405
 5448TIP3   OH240538   7.616   4.457   8.664  0.5250  0.5298 -0.4957
 5448TIP3    H140539   7.674   4.484   8.735  1.2017 -0.0859 -0.7981
 5448TIP3    H240540   7.613   4.533   8.606  1.0155  0.5831 -0.4628
 5449TIP3   OH240541   0.470   5.662   0.388  0.3675 -0.1210 -0.0789
 5449TIP3    H140542   0.378   5.633   0.391  0.5767 -0.8952 -0.7116
 5449TIP3    H240543   0.472   5.741   0.442 -0.0880 -1.6718  2.3962
 5450TIP3   OH240544   5.609   0.878   7.707 -0.6817 -0.2319  0.1951
 5450TIP3    H140545   5.666   0.955   7.701 -0.4496 -0.3895  0.3803
 5450TIP3    H240546   5.538   0.906   7.765  0.3244 -0.7171  1.7176
 5451TIP3   OH240547   7.546   3.324   8.558  0.2489 -0.0506 -0.0280
 5451TIP3    H140548   7.490   3.388   8.515 -1.0134 -0.6375  0.6869
 5451TIP3    H240549   7.628   3.325   8.508 -0.2763  1.0657 -0.8853
 5452TIP3   OH240550   3.020   2.056   0.185  0.0875  0.5059  0.3780
 5452TIP3    H140551   2.948   2.087   0.239  1.2710  0.3104  2.1721
 5452TIP3    H240552   3.094   2.050   0.245  1.2616 -0.6058 -1.0890
 5453TIP3   OH240553   6.417   6.638   1.555 -0.3434  0.2490 -0.3335
 5453TIP3    H140554   6.486   6.579   1.586 -1.1794 -1.5912 -1.8199
 5453TIP3    H240555   6.341   6.618   1.610 -0.7564 -0.4036 -1.1227
 5454TIP3   OH240556   2.565   3.826   9.114  0.1854 -0.2056  0.0540
 5454TIP3    H140557   2.633   3.863   9.170 -0.8780 -0.9724  1.9674
 5454TIP3    H240558   2.526   3.756   9.167  0.6763 -2.6613 -2.5361
 5455TIP3   OH240559   2.056   1.722   1.636  0.5570 -0.3269 -0.0890
 5455TIP3    H140560   2.100   1.806   1.618 -0.7317  0.2506 -0.6345
 5455TIP3    H240561   2.077   1.703   1.727  2.2170 -0.2490 -0.4211
 5456TIP3   OH240562   4.540   1.876   9.082 -0.5808  0.4227  0.1718
 5456TIP3    H140563   4.534   1.799   9.139  0.9422  2.2139  3.0238
 5456TIP3    H240564   4.627   1.870   9.043 -0.5156  0.6067  0.2870
 5457TIP3   OH240565   1.631   3.628   8.494  0.1808 -0.2364 -0.2058
 5457TIP3    H140566   1.599   3.635   8.584  0.1639  1.7380 -0.3179
 5457TIP3    H240567   1.594   3.546   8.462 -0.3146 -0.6757  1.3795
 5458TIP3   OH240568   3.452   3.619   6.897  0.1925  0.4318  0.1009
 5458TIP3    H140569   3.428   3.559   6.827  0.4003 -0.0694  0.4518
 5458TIP3    H240570   3.381   3.684   6.899  0.3712  0.6786 -0.8182
 5459TIP3   OH240571   3.862   3.991   1.104 -0.3474 -0.4042 -0.0714
 5459TIP3    H140572   3.846   3.972   1.196  2.2273 -1.5027  0.2188
 5459TIP3    H240573   3.826   4.079   1.092 -3.1761 -1.2552  1.2112
 5460TIP3   OH240574   7.607   0.145   2.342  0.0563 -0.1167 -0.3885
 5460TIP3    H140575   7.665   0.220   2.325 -1.7247  1.3047 -0.5453
 5460TIP3    H240576   7.588   0.150   2.435  0.3103 -0.6769 -0.3054
 5461TIP3   OH240577   0.644   5.689   7.808 -0.7929  0.0040  0.1285
 5461TIP3    H140578   0.577   5.650   7.752 -0.1988 -0.3067 -0.3759
 5461TIP3    H240579   0.708   5.620   7.821 -1.4246 -0.2721  2.0756
 5462TIP3   OH240580   2.886   5.671   1.377 -0.3210  0.1252  0.1443
 5462TIP3    H140581   2.878   5.670   1.281  0.0163 -1.8439  0.0892
 5462TIP3    H240582   2.978   5.649   1.393 -0.5628 -0.3722  0.9072
 5463TIP3   OH240583   1.728   6.386   9.109  0.0663 -0.5467 -0.3087
 5463TIP3    H140584   1.792   6.320   9.082  1.8898  0.5779  0.9854
 5463TIP3    H240585   1.647   6.338   9.123  0.9249 -2.2344 -0.9211
 5464TIP3   OH240586   6.136   7.285   0.856 -0.1280 -0.0361  0.2592
 5464TIP3    H140587   6.182   7.369   0.867  0.0032  0.2161 -1.8432
 5464TIP3    H240588   6.173   7.229   0.924 -1.3792  2.0407  2.8021
 5465TIP3   OH240589   2.209   3.487   0.133 -0.5866 -0.5644 -0.2236
 5465TIP3    H140590   2.116   3.506   0.148 -0.5345 -0.1677 -0.3974
 5465TIP3    H240591   2.242   3.464   0.220 -0.3255  1.5868  0.2884
 5466TIP3   OH240592   1.854   2.863   7.282 -0.5641  0.5886 -0.3713
 5466TIP3    H140593   1.939   2.833   7.251 -0.1418  1.7160 -0.3590
 5466TIP3    H240594   1.792   2.829   7.218  0.1556  1.6989 -1.7256
 5467TIP3   OH240595   1.076   2.751   0.607 -0.1369 -0.1598 -0.4890
 5467TIP3    H140596   1.147   2.797   0.563 -0.0967  0.4816  0.2183
 5467TIP3    H240597   1.108   2.735   0.696  0.0943 -2.1634 -0.8971
 5468TIP3   OH240598   4.313   3.799   0.263 -0.7350  0.1805  0.1653
 5468TIP3    H140599   4.219   3.815   0.267 -0.3159  2.8809  1.0556
 5468TIP3    H240600   4.323   3.709   0.294 -2.9219  0.3601  1.6328
 5469TIP3   OH240601   2.637   4.139   9.522  0.6771 -0.7206  0.4898
 5469TIP3    H140602   2.577   4.065   9.515  1.1184 -0.9994 -0.5057
 5469TIP3    H240603   2.590   4.203   9.576 -1.7231  0.1797 -2.3454
 5470TIP3   OH240604   5.634   0.839   8.750  0.2903 -0.2485  0.8367
 5470TIP3    H140605   5.562   0.779   8.767  1.0799 -1.1521  1.0801
 5470TIP3    H240606   5.713   0.786   8.760  0.9869  0.6236  0.2074
 5471TIP3   OH240607   1.635   1.433   1.043 -0.0373  0.1150 -0.1029
 5471TIP3    H140608   1.574   1.383   0.989 -0.4224 -0.9590  1.3017
 5471TIP3    H240609   1.719   1.389   1.031 -0.1532 -0.2125  0.2925
 5472TIP3   OH240610   7.093   7.048   8.126 -0.3659 -0.1390 -0.0515
 5472TIP3    H140611   7.145   7.067   8.203  0.6078 -1.9394 -0.1967
 5472TIP3    H240612   7.025   6.987   8.156 -1.7647  1.3246 -0.0902
 5473TIP3   OH240613   6.916   0.197   2.455 -0.0617  0.4341  0.3482
 5473TIP3    H140614   6.986   0.207   2.519 -0.2802 -2.3995  1.1648
 5473TIP3    H240615   6.941   0.120   2.404 -1.0062  1.2972 -1.5221
 5474TIP3   OH240616   2.082   1.422   1.580 -0.8999  0.2885  0.1617
 5474TIP3    H140617   2.017   1.383   1.522  0.0591  0.0207 -0.7490
 5474TIP3    H240618   2.083   1.515   1.557  0.7934 -0.1158 -1.5846
 5475TIP3   OH240619   1.798   3.857   1.228 -0.0745  0.0850 -0.3059
 5475TIP3    H140620   1.870   3.797   1.250  0.1185  0.7357  0.9088
 5475TIP3    H240621   1.749   3.811   1.160  2.3079  0.2402 -2.3027
 5476TIP3   OH240622   1.528   3.632   9.257  0.0675  0.1949 -0.7826
 5476TIP3    H140623   1.469   3.705   9.236 -1.7434 -1.6146 -2.4582
 5476TIP3    H240624   1.616   3.670   9.250 -0.8167  2.3872 -0.7985
 5477TIP3   OH240625   5.936   0.175   0.951  0.0679  0.2038 -1.0261
 5477TIP3    H140626   5.859   0.147   0.902 -0.4558  0.4263 -0.3398
 5477TIP3    H240627   6.009   0.132   0.906 -0.5029 -0.4416 -1.3611
 5478TIP3   OH240628   1.080   2.605   9.810 -0.6962  0.1661 -0.3025
 5478TIP3    H140629   0.993   2.645   9.800 -1.1348 -0.4173  1.0365
 5478TIP3    H240630   1.097   2.607   9.904  1.1505  1.0771 -0.6201
 5479TIP3   OH240631   5.618   3.316   8.647  0.5677  0.1505  0.0489
 5479TIP3    H140632   5.557   3.266   8.702  1.5278  1.7340  2.7253
 5479TIP3    H240633   5.572   3.397   8.628  1.2545  0.7634  0.9064
 5480TIP3   OH240634   3.510   2.444   9.856 -0.2260 -0.6471  0.0969
 5480TIP3    H140635   3.603   2.459   9.872 -0.0329 -0.7164 -0.9111
 5480TIP3    H240636   3.465   2.498   9.922  0.5090  0.7602 -0.5015
 5481TIP3   OH240637   3.896   2.498   9.735  0.4086  0.8307 -0.3295
 5481TIP3    H140638   3.974   2.443   9.736 -1.1374 -1.5447 -0.8640
 5481TIP3    H240639   3.912   2.565   9.800  1.7942 -1.2350  1.5825
 5482TIP3   OH240640   3.216   0.469   1.452 -0.0796  0.1695  0.3049
 5482TIP3    H140641   3.276   0.424   1.511 -0.1668  0.1099  0.3488
 5482TIP3    H240642   3.273   0.512   1.388 -0.0247 -0.5519 -0.1373
 5483TIP3   OH240643   4.419   3.037   0.948  0.2133 -0.0301 -0.0227
 5483TIP3    H140644   4.327   3.061   0.946  0.0720 -0.5721  0.0478
 5483TIP3    H240645   4.460   3.103   1.005  0.2240  1.4103 -1.5994
 5484TIP3   OH240646   0.797   0.730   9.546 -0.1534 -0.3523  0.1783
 5484TIP3    H140647   0.757   0.816   9.532 -2.0544 -1.4664 -2.0095
 5484TIP3    H240648   0.848   0.739   9.626 -2.6151  2.0111  1.6238
 5485TIP3   OH240649   1.462   2.194   7.616  0.1596  0.1670 -0.6104
 5485TIP3    H140650   1.411   2.266   7.654  1.8032  0.9370  0.2608
 5485TIP3    H240651   1.509   2.156   7.690  2.5835  0.9744 -1.6331
 5486TIP3   OH240652   0.917   7.292   2.083  0.2441 -0.2812 -0.0603
 5486TIP3    H140653   0.861   7.273   2.158 -0.3158 -0.1991 -0.4488
 5486TIP3    H240654   1.004   7.305   2.120 -0.3000  1.2994  0.7659
 5487TIP3   OH240655   2.542   6.378   1.986 -0.0690 -0.1518 -0.1913
 5487TIP3    H140656   2.497   6.323   1.923  0.0953  1.0569 -1.4126
 5487TIP3    H240657   2.633   6.378   1.958  0.4892 -1.4584  1.4469
 5488TIP3   OH240658   3.496   6.842   1.905 -0.4028 -0.0604  0.1844
 5488TIP3    H140659   3.412   6.829   1.949  0.4033 -1.9807  1.2778
 5488TIP3    H240660   3.559   6.797   1.961  1.1203  0.0205 -1.4049
 5489TIP3   OH240661   5.504   7.203   8.462 -0.1802  0.0321 -0.2772
 5489TIP3    H140662   5.496   7.203   8.367 -1.9533 -0.5983 -0.1594
 5489TIP3    H240663   5.550   7.122   8.482 -1.9604 -1.0793 -0.4952
 5490TIP3   OH240664   3.755   4.261   1.075  0.4412  0.0415 -0.0771
 5490TIP3    H140665   3.746   4.326   1.005  0.4384 -2.2810 -2.3779
 5490TIP3    H240666   3.674   4.210   1.071  1.3624 -1.4994  0.1047
 5491TIP3   OH240667   2.998   3.076   1.204 -0.2214  0.1741  0.2518
 5491TIP3    H140668   3.089   3.102   1.222  0.4575 -1.4561 -0.5328
 5491TIP3    H240669   2.945   3.145   1.242  1.3799  2.3693 -1.2184
 5492TIP3   OH240670   2.625   2.678   1.450 -0.4400  0.2542  0.5169
 5492TIP3    H140671   2.619   2.769   1.422 -2.6572 -0.1981 -0.6572
 5492TIP3    H240672   2.703   2.644   1.406 -1.5957  0.6538 -1.9734
 5493TIP3   OH240673   3.783   0.102   1.489 -0.0742 -0.9265  0.5895
 5493TIP3    H140674   3.828   0.052   1.421 -1.5131  1.2854 -2.1895
 5493TIP3    H240675   3.701   0.055   1.503 -0.9797 -0.0239 -1.2927
 5494TIP3   OH240676   4.324   2.566   9.252 -0.2049 -0.3532 -1.1976
 5494TIP3    H140677   4.295   2.556   9.162 -0.0606  1.9945 -1.5573
 5494TIP3    H240678   4.410   2.524   9.255 -0.1904 -0.4112 -2.1673
 5495TIP3   OH240679   0.505   2.483   8.092 -0.2368  0.2687  0.3026
 5495TIP3    H140680   0.556   2.443   8.163  0.1890  1.6759  0.8382
 5495TIP3    H240681   0.499   2.576   8.117 -0.9026  0.6070 -1.0334
 5496TIP3   OH240682   5.543   4.219   7.590 -0.0978 -0.4294 -0.1140
 5496TIP3    H140683   5.633   4.190   7.573 -0.0366 -1.3750  1.6071
 5496TIP3    H240684   5.554   4.302   7.636 -0.1524 -0.1444 -0.5995
 5497TIP3   OH240685   3.036   7.304   9.770 -0.3691  0.1856 -0.1543
 5497TIP3    H140686   3.129   7.327   9.769 -0.2513 -0.2489 -1.7689
 5497TIP3    H240687   3.020   7.272   9.859  1.6811 -2.2891 -0.5806
 5498TIP3   OH240688   3.324   1.183   8.164 -0.2832 -0.1737 -0.1031
 5498TIP3    H140689   3.272   1.231   8.228  0.3244 -0.1951  0.4140
 5498TIP3    H240690   3.377   1.250   8.121  0.5105 -0.3580  0.5677
 5499TIP3   OH240691   6.611   3.249   1.759 -0.0611  0.0673  0.0637
 5499TIP3    H140692   6.633   3.328   1.710  1.3479 -0.3454 -0.0037
 5499TIP3    H240693   6.516   3.243   1.753 -0.3978  2.6001  1.3707
 5500TIP3   OH240694   0.375   1.040   0.340  0.0855 -0.3294 -0.0643
 5500TIP3    H140695   0.396   0.973   0.405  0.4469  0.6296  0.8465
 5500TIP3    H240696   0.400   1.122   0.382 -2.0765  0.5636 -0.3833
 5501TIP3   OH240697   1.668   4.049   0.297  0.7740  0.3087  0.0316
 5501TIP3    H140698   1.667   4.134   0.342 -0.1131  0.5052 -0.3318
 5501TIP3    H240699   1.590   4.004   0.330  0.2745  0.3345 -1.0539
 5502TIP3   OH240700   4.019   3.586   8.072 -0.3231  0.0325  0.4058
 5502TIP3    H140701   4.065   3.504   8.089  0.2387  0.2213 -0.1744
 5502TIP3    H240702   4.080   3.654   8.101 -1.0796  0.2430  1.5835
 5503TIP3   OH240703   5.834   5.229   1.313  0.4110 -0.1640  0.6751
 5503TIP3    H140704   5.820   5.297   1.379  0.4369 -0.6514  1.1897
 5503TIP3    H240705   5.832   5.147   1.362 -4.5907 -1.0286 -0.5133
 5504TIP3   OH240706   1.190   7.062   9.850  0.1940  0.0961 -0.1089
 5504TIP3    H140707   1.205   7.099   9.763 -0.6428  0.5236 -0.0802
 5504TIP3    H240708   1.275   7.067   9.893  0.5332  0.2082 -0.7767
 5505TIP3   OH240709   1.350   4.424   9.477  0.3638 -0.1865 -0.2048
 5505TIP3    H140710   1.418   4.437   9.543 -0.6631 -2.8403  1.5557
 5505TIP3    H240711   1.396   4.385   9.402  0.9720 -0.9014  0.5275
 5506TIP3   OH240712   0.582   3.585   1.680 -0.4878 -0.2464  0.0691
 5506TIP3    H140713   0.587   3.658   1.618 -2.4804  0.2323  0.4227
 5506TIP3    H240714   0.643   3.520   1.645  1.1481  1.4609 -0.3868
 5507TIP3   OH240715   5.559   2.042   7.890  0.6002 -0.0519 -0.0160
 5507TIP3    H140716   5.511   2.047   7.807  1.1916  0.0390 -0.3581
 5507TIP3    H240717   5.574   2.133   7.915  0.3611 -0.0787  0.2306
 5508TIP3   OH240718   3.605   6.789   2.170  0.0724  0.0691  0.5870
 5508TIP3    H140719   3.622   6.835   2.253 -2.5092  2.1128  0.1381
 5508TIP3    H240720   3.551   6.714   2.195  0.9568 -0.4689  0.9241
 5509TIP3   OH240721   3.248   4.009   2.737 -0.2504  0.3135  0.1346
 5509TIP3    H140722   3.241   4.004   2.642 -1.4539  1.2836  0.1458
 5509TIP3    H240723   3.278   4.098   2.754 -0.9497  0.4578  0.6840
 5510TIP3   OH240724   5.320   4.492   8.562 -0.0900 -0.0534  0.4550
 5510TIP3    H140725   5.236   4.519   8.525  1.2000  2.2717 -0.9765
 5510TIP3    H240726   5.386   4.542   8.513  2.1025 -1.0993  2.1427
 5511TIP3   OH240727   3.903   6.690   8.564 -1.0308 -0.8620  0.2738
 5511TIP3    H140728   3.925   6.781   8.585 -2.8029 -0.7245  1.8076
 5511TIP3    H240729   3.862   6.695   8.478  0.5102 -0.4938 -0.4725
 5512TIP3   OH240730   1.525   1.959   2.201 -0.5909 -0.0572  0.7381
 5512TIP3    H140731   1.515   2.053   2.219 -3.1094 -0.6135  2.9440
 5512TIP3    H240732   1.605   1.934   2.246 -1.2570  0.6164  2.3780
 5513TIP3   OH240733   0.039   7.602   9.863 -0.0502 -0.2973 -0.6339
 5513TIP3    H140734   0.027   7.678   9.920 -1.7338 -0.3663 -0.8355
 5513TIP3    H240735   0.118   7.622   9.812  0.2378  0.7410  0.1797
 5514TIP3   OH240736   7.214   1.525   7.711 -0.1179  0.2290 -0.1757
 5514TIP3    H140737   7.198   1.450   7.768  0.2888  0.5431  0.3556
 5514TIP3    H240738   7.128   1.565   7.698 -0.1307  0.5054  0.7047
 5515TIP3   OH240739   2.151   4.982   2.355 -0.1731 -0.1774 -0.8936
 5515TIP3    H140740   2.096   5.035   2.413  1.8052 -0.1370  1.0948
 5515TIP3    H240741   2.096   4.964   2.279 -2.5456  0.6920  0.5113
 5516TIP3   OH240742   0.081   2.989   8.602  0.7296 -0.1161  0.6196
 5516TIP3    H140743   0.083   3.081   8.576 -1.1403 -0.2959 -0.3693
 5516TIP3    H240744   0.002   2.981   8.656  0.7527 -1.1667  0.5240
 5517TIP3   OH240745   2.494   3.977   8.655  0.2007 -0.4155 -0.3466
 5517TIP3    H140746   2.438   3.983   8.733  1.7378  0.1793  0.7620
 5517TIP3    H240747   2.583   3.973   8.689  1.1959  2.9370 -2.0391
 5518TIP3   OH240748   0.406   2.608   9.639 -1.1457  0.1785 -0.5236
 5518TIP3    H140749   0.435   2.523   9.670  0.7506  1.1861  0.6549
 5518TIP3    H240750   0.333   2.632   9.696 -0.4058  0.1816  0.4372
 5519TIP3   OH240751   4.054   5.741   8.556 -0.1539 -0.0431 -0.0994
 5519TIP3    H140752   4.089   5.823   8.522 -0.2447 -0.6641 -1.7918
 5519TIP3    H240753   3.977   5.766   8.606 -0.8492  0.8380 -1.5447
 5520TIP3   OH240754   3.228   6.823   8.511 -0.2866 -0.5744  0.3062
 5520TIP3    H140755   3.203   6.778   8.431  0.5921 -1.8503  0.7078
 5520TIP3    H240756   3.277   6.757   8.561 -1.7533 -0.2002  2.3979
 5521TIP3   OH240757   7.589   5.746   1.484  0.9011 -0.1579 -0.1534
 5521TIP3    H140758   7.547   5.683   1.543  0.0281  1.8625  1.4747
 5521TIP3    H240759   7.683   5.733   1.499  0.8132 -1.9461 -0.8547
 5522TIP3   OH240760   0.813   6.306   9.400 -0.4235 -0.2114  0.0998
 5522TIP3    H140761   0.720   6.322   9.414 -0.7229 -1.2118 -0.7002
 5522TIP3    H240762   0.825   6.313   9.305  0.3348 -0.0296  0.1986
 5523TIP3   OH240763   3.221   1.598   1.018  0.0397  0.2393 -0.5077
 5523TIP3    H140764   3.309   1.566   1.036 -0.3573 -0.6110 -0.0487
 5523TIP3    H240765   3.174   1.522   0.985 -0.8255  0.4210  0.2776
 5524TIP3   OH240766   2.995   2.414   8.807 -0.4209 -0.5600  0.6297
 5524TIP3    H140767   3.067   2.354   8.795 -0.2961 -0.5531  1.2698
 5524TIP3    H240768   2.975   2.447   8.720 -0.0285 -0.9922  0.3744
 5525TIP3   OH240769   1.987   6.543   8.233 -0.4610 -0.2503 -0.0673
 5525TIP3    H140770   1.959   6.615   8.290  2.3412  0.5389  0.5015
 5525TIP3    H240771   1.961   6.464   8.280  0.2552  0.4067  1.5353
 5526TIP3   OH240772   2.859   5.287   9.659 -0.6197 -0.0767 -0.3931
 5526TIP3    H140773   2.898   5.238   9.731 -0.5857  1.8890  0.9817
 5526TIP3    H240774   2.920   5.275   9.586 -0.6041 -2.0045 -0.1098
 5527TIP3   OH240775   2.575   0.356   2.656  0.0877 -0.2573 -0.5858
 5527TIP3    H140776   2.604   0.291   2.721 -0.3202 -0.7671 -0.9016
 5527TIP3    H240777   2.555   0.434   2.708 -1.4077 -1.0282  0.0888
 5528TIP3   OH240778   1.784   1.689   8.197  0.0715 -0.4276  0.1298
 5528TIP3    H140779   1.854   1.733   8.149 -0.1296 -0.2174  0.0238
 5528TIP3    H240780   1.771   1.607   8.150  1.6120 -1.3970  1.3252
 5529TIP3   OH240781   1.561   4.733   1.343  0.0353 -0.2539  0.0309
 5529TIP3    H140782   1.546   4.824   1.368  0.5956 -0.6122  1.8007
 5529TIP3    H240783   1.644   4.710   1.384 -1.3216 -2.3212  1.8700
 5530TIP3   OH240784   7.075   1.482   9.532  0.3103  0.2697 -0.1709
 5530TIP3    H140785   6.983   1.494   9.509  0.0894  0.3788  0.7224
 5530TIP3    H240786   7.089   1.540   9.607  0.1053 -2.4773  2.1567
 5531TIP3   OH240787   1.485   6.269   1.524  0.3593  0.0797 -0.0553
 5531TIP3    H140788   1.549   6.335   1.553  1.3575 -1.0801  0.4864
 5531TIP3    H240789   1.466   6.219   1.603  1.7998 -2.0496 -0.9548
 5532TIP3   OH240790   2.949   5.136   7.723  0.0845  0.1363 -0.2300
 5532TIP3    H140791   2.910   5.052   7.699  0.3595 -0.2638  0.6600
 5532TIP3    H240792   2.886   5.176   7.783  0.0597  0.4637 -0.4718
 5533TIP3   OH240793   5.943   2.280   8.229 -0.5387  0.4942 -0.1412
 5533TIP3    H140794   5.896   2.361   8.247 -2.4841 -0.3106 -1.2907
 5533TIP3    H240795   6.029   2.308   8.196 -0.5127  2.0241  1.1233
 5534TIP3   OH240796   6.205   0.826   2.213 -0.4069  0.2251 -0.3231
 5534TIP3    H140797   6.249   0.828   2.298 -0.1511  1.6053 -0.4591
 5534TIP3    H240798   6.215   0.736   2.183  2.4270  0.4536 -0.3769
 5535TIP3   OH240799   1.349   2.489   6.966 -0.1017  0.3077 -0.4100
 5535TIP3    H140800   1.367   2.571   7.012  0.3059  0.5276 -0.9564
 5535TIP3    H240801   1.258   2.468   6.989  0.1143  0.3771  0.5415
 5536TIP3   OH240802   0.868   6.088   7.454 -0.1264 -0.3538  0.3052
 5536TIP3    H140803   0.937   6.113   7.515 -0.1781 -1.5133  0.8497
 5536TIP3    H240804   0.850   5.996   7.473 -0.0992 -0.7690 -1.4969
 5537TIP3   OH240805   7.407   5.039   7.499 -0.5907 -0.0437  0.4649
 5537TIP3    H140806   7.435   5.122   7.461  0.2335 -0.4460  0.1750
 5537TIP3    H240807   7.316   5.054   7.524 -0.8116  0.5792 -0.6602
 5538TIP3   OH240808   5.336   2.451   0.897 -0.3463  0.0929 -0.3449
 5538TIP3    H140809   5.380   2.536   0.899 -1.1957  0.5495 -0.9412
 5538TIP3    H240810   5.325   2.432   0.804  1.0939 -1.3388 -0.2685
 5539TIP3   OH240811   6.954   1.076   2.760  0.1076  0.5732  0.4425
 5539TIP3    H140812   7.024   1.025   2.801  0.0175  0.7846  0.8616
 5539TIP3    H240813   6.907   1.012   2.705  1.5837  0.7510 -1.1189
 5540TIP3   OH240814   3.776   3.075   1.729 -0.1719  0.1905  0.1961
 5540TIP3    H140815   3.809   3.095   1.642  1.5175  0.2219  0.8119
 5540TIP3    H240816   3.688   3.040   1.714  0.5327 -0.9235 -1.6176
 5541TIP3   OH240817   1.743   2.829   9.433  0.2964 -0.0573  0.2669
 5541TIP3    H140818   1.674   2.766   9.414  1.9932 -1.2343 -2.5563
 5541TIP3    H240819   1.791   2.791   9.507  0.5495 -1.5188 -0.6137
 5542TIP3   OH240820   0.200   6.516   9.864 -0.1819 -0.4246  0.0127
 5542TIP3    H140821   0.194   6.468   9.947 -1.2696 -2.6314 -1.2546
 5542TIP3    H240822   0.243   6.455   9.804  0.4013  1.0576 -1.1190
 5543TIP3   OH240823   1.987   6.164   9.356 -0.3531  0.6086 -0.0365
 5543TIP3    H140824   2.053   6.113   9.309  0.3384  0.3826  1.1598
 5543TIP3    H240825   2.010   6.255   9.339 -0.1765  0.5306 -0.2249
 5544TIP3   OH240826   2.716   1.479   8.566  0.2735 -0.0786  0.0838
 5544TIP3    H140827   2.757   1.552   8.518 -0.9092  0.4347 -0.1954
 5544TIP3    H240828   2.712   1.408   8.502 -1.6184  0.7163 -0.7378
 5545TIP3   OH240829   6.122   5.360   2.057 -0.3048 -0.4033 -0.1696
 5545TIP3    H140830   6.190   5.296   2.082 -2.1104 -3.3551 -2.1891
 5545TIP3    H240831   6.167   5.421   1.999  1.2809 -0.3876  0.9974
 5546TIP3   OH240832   5.302   2.755   8.648 -0.1031 -0.2723  0.6742
 5546TIP3    H140833   5.277   2.738   8.738  0.4599  0.3335  0.9524
 5546TIP3    H240834   5.249   2.694   8.596  0.8971 -1.9241  1.5179
 5547TIP3   OH240835   6.767   5.870   0.531 -0.6713  0.0032  0.3284
 5547TIP3    H140836   6.690   5.892   0.584 -0.2830  2.3488  0.0241
 5547TIP3    H240837   6.839   5.866   0.594 -0.3665  1.9247  0.1695
 5548TIP3   OH240838   1.251   0.298   7.171  1.0802  0.1306 -0.2945
 5548TIP3    H140839   1.326   0.338   7.127  1.1576  1.3023  0.8392
 5548TIP3    H240840   1.184   0.367   7.170  0.2857 -0.6338 -0.6016
 5549TIP3   OH240841   0.822   1.951   7.996  0.2684 -0.1888  0.1572
 5549TIP3    H140842   0.877   1.874   8.008 -0.4830 -0.6880  0.5424
 5549TIP3    H240843   0.744   1.917   7.952 -0.2525  0.2701  0.7084
 5550TIP3   OH240844   0.299   1.913   7.599  0.2855  0.5729  0.5649
 5550TIP3    H140845   0.261   1.831   7.567 -0.2951  0.1730  2.1706
 5550TIP3    H240846   0.389   1.912   7.568  0.2240 -0.5794  0.3790
 5551TIP3   OH240847   4.440   4.958   0.563  0.0155 -0.0845 -0.4268
 5551TIP3    H140848   4.529   4.928   0.544 -0.7568 -1.3517 -2.3707
 5551TIP3    H240849   4.383   4.891   0.525 -1.8048  0.6282  0.8583
 5552TIP3   OH240850   0.147   6.277   9.516  0.7143 -0.2028 -0.3453
 5552TIP3    H140851   0.228   6.323   9.535  0.9456 -0.5819 -0.3966
 5552TIP3    H240852   0.085   6.308   9.582  1.0323 -0.2612 -0.0167
 5553TIP3   OH240853   3.688   2.335   2.229  0.0515 -0.1529  0.2748
 5553TIP3    H140854   3.696   2.311   2.321  0.1569  1.2988  0.6639
 5553TIP3    H240855   3.600   2.306   2.204  0.7296 -2.3429  0.2541
 5554TIP3   OH240856   5.407   0.998   8.728  0.5997  0.1126  1.0199
 5554TIP3    H140857   5.452   1.035   8.652  0.0402  0.5467  0.8912
 5554TIP3    H240858   5.477   0.962   8.782  1.0586  0.3671  0.6030
 5555TIP3   OH240859   6.678   1.304   7.677  0.2782 -0.4656  0.1179
 5555TIP3    H140860   6.715   1.324   7.591  1.7726  1.8378  1.1841
 5555TIP3    H240861   6.634   1.220   7.665  2.4867 -1.4461 -2.2971
 5556TIP3   OH240862   3.576   5.157   2.512  0.1626 -0.0993 -0.3193
 5556TIP3    H140863   3.503   5.096   2.523  1.2126 -1.2477  0.5349
 5556TIP3    H240864   3.654   5.101   2.508  1.0724  1.1360 -0.4633
 5557TIP3   OH240865   3.280   7.298   9.285  0.8706 -0.1686 -0.4463
 5557TIP3    H140866   3.337   7.357   9.334 -0.3864  0.1650  0.6983
 5557TIP3    H240867   3.308   7.210   9.311  1.0710 -0.0137 -0.1277
 5558TIP3   OH240868   6.030   0.872   8.574 -0.1498 -0.7807  0.0211
 5558TIP3    H140869   6.031   0.777   8.568  0.8665 -0.8779  1.2597
 5558TIP3    H240870   6.122   0.897   8.586 -0.5091  0.2451  0.8814
 5559TIP3   OH240871   0.147   5.523   1.081  0.0010 -1.1073  0.4291
 5559TIP3    H140872   0.106   5.602   1.045  0.6845 -1.1765 -0.5350
 5559TIP3    H240873   0.075   5.476   1.123 -0.4462 -0.0480  0.8917
 5560TIP3   OH240874   3.092   1.510   1.554 -0.1483  0.1669  0.3545
 5560TIP3    H140875   3.172   1.493   1.604  1.1269  2.2916 -0.8412
 5560TIP3    H240876   3.092   1.443   1.485  0.4877  0.0252  0.4862
 5561TIP3   OH240877   6.491   4.911   8.890  0.4038  0.3390 -0.0173
 5561TIP3    H140878   6.545   4.865   8.955 -0.5267 -0.7173  0.0354
 5561TIP3    H240879   6.500   5.004   8.913  0.4944  0.0161  1.3263
 5562TIP3   OH240880   7.603   6.895   9.810 -0.4541 -0.0344  0.2904
 5562TIP3    H140881   7.656   6.874   9.887  1.3100 -1.7554 -1.2711
 5562TIP3    H240882   7.552   6.815   9.793 -0.5118  0.1627 -0.5266
 5563TIP3   OH240883   7.589   6.585   0.730  0.3308  0.3261 -0.2060
 5563TIP3    H140884   7.670   6.585   0.780  0.1108  2.4519  0.2444
 5563TIP3    H240885   7.534   6.651   0.773 -1.5571 -0.8893 -0.6383
 5564TIP3   OH240886   1.307   0.042   0.737  0.6995 -0.0074  0.2565
 5564TIP3    H140887   1.379  -0.008   0.700  1.3717  0.4145  0.9509
 5564TIP3    H240888   1.318   0.034   0.832 -0.9663 -1.0597  0.4038
 5565TIP3   OH240889   3.961   7.411   8.145  0.1870 -0.4080 -0.5054
 5565TIP3    H140890   4.046   7.386   8.182  0.9937  0.1681 -1.8977
 5565TIP3    H240891   3.966   7.506   8.136 -0.6664 -0.3607 -0.4980
 5566TIP3   OH240892   2.587   1.079   9.974 -0.1631  0.4077  0.2042
 5566TIP3    H140893   2.678   1.056   9.991  1.2533  3.1427 -2.6040
 5566TIP3    H240894   2.560   1.020   9.903 -0.1295  0.4143  0.1860
 5567TIP3   OH240895   3.648   3.786   1.370  0.5372  0.1864 -0.5885
 5567TIP3    H140896   3.677   3.696   1.358  1.3231 -0.0470  2.3176
 5567TIP3    H240897   3.726   3.832   1.401 -0.5269  1.1886  0.6937
 5568TIP3   OH240898   2.296   3.284   2.697  0.4112 -0.2028  0.3857
 5568TIP3    H140899   2.333   3.199   2.720 -1.5208 -1.1087  0.3580
 5568TIP3    H240900   2.243   3.308   2.774 -0.0099  0.3910 -0.0824
 5569TIP3   OH240901   1.582   5.127   1.098  0.7213  0.4463 -0.5409
 5569TIP3    H140902   1.508   5.117   1.039 -0.4583  0.6401  0.8609
 5569TIP3    H240903   1.641   5.188   1.052 -0.5655  1.2848 -1.1479
 5570TIP3   OH240904   1.045   5.056   9.637 -0.6435 -0.2194 -0.0891
 5570TIP3    H140905   1.001   5.130   9.594 -0.1002  0.3192  0.2666
 5570TIP3    H240906   0.977   5.016   9.692 -1.5442 -1.3361 -1.9212
 5571TIP3   OH240907   2.886   3.890   8.317  0.1406 -0.6709 -0.2271
 5571TIP3    H140908   2.831   3.853   8.247 -1.2568 -0.9928  0.9804
 5571TIP3    H240909   2.964   3.835   8.318  0.0673 -0.8148 -1.3630
 5572TIP3   OH240910   1.498   6.480   9.709 -0.5437 -0.3351 -0.5471
 5572TIP3    H140911   1.513   6.532   9.630  0.5333  0.8389  0.3703
 5572TIP3    H240912   1.505   6.389   9.681  1.5884  0.0734 -1.5044
 5573TIP3   OH240913   7.026   7.307   1.033  0.3020 -0.2963  0.0184
 5573TIP3    H140914   6.976   7.387   1.051 -1.3916 -1.1692 -0.6269
 5573TIP3    H240915   7.005   7.285   0.943 -0.2166 -2.1253  0.5576
 5574TIP3   OH240916   1.627   6.880   1.187 -0.3603  0.0838 -0.7002
 5574TIP3    H140917   1.561   6.824   1.145 -0.6348  0.4420 -0.7574
 5574TIP3    H240918   1.610   6.967   1.150  0.5796  0.0568 -1.2177
 5575TIP3   OH240919   5.093   3.377   9.983 -0.1061  0.6113 -0.0296
 5575TIP3    H140920   5.188   3.369   9.985  0.0038  0.5976 -2.2120
 5575TIP3    H240921   5.066   3.323   9.908 -1.4624  3.1402 -1.5311
 5576TIP3   OH240922   6.263   4.909   9.145 -0.0912  0.0029 -0.1213
 5576TIP3    H140923   6.220   4.963   9.078 -0.7453  0.2998  0.5248
 5576TIP3    H240924   6.355   4.935   9.140  0.1186 -0.9331 -1.7902
 5577TIP3   OH240925   2.715   1.192   2.290 -0.0618 -0.7454 -0.5931
 5577TIP3    H140926   2.672   1.273   2.265 -0.3121  0.0413  2.0446
 5577TIP3    H240927   2.794   1.188   2.236  1.9774  3.2503  1.6784
 5578TIP3   OH240928   4.520   1.638   0.228  0.0690 -0.1439 -0.5571
 5578TIP3    H140929   4.546   1.561   0.178 -0.9081 -1.8130  1.3804
 5578TIP3    H240930   4.473   1.693   0.165  0.2425 -1.3960 -1.8252
 5579TIP3   OH240931   7.645   6.753   1.318  0.5784  0.3460  0.1594
 5579TIP3    H140932   7.740   6.747   1.319  0.5203 -1.0159  1.1853
 5579TIP3    H240933   7.626   6.841   1.285  2.1726  0.6110 -0.1237
 5580TIP3   OH240934   0.039   4.482   7.881  0.0159  0.3831 -0.3573
 5580TIP3    H140935   0.082   4.511   7.801 -1.1501  1.4984 -0.6093
 5580TIP3    H240936  -0.033   4.426   7.850  1.1959 -1.4642  0.0545
 5581TIP3   OH240937   1.572   5.660   8.489 -0.3384 -0.0675  0.6382
 5581TIP3    H140938   1.565   5.613   8.572 -1.7151 -0.8443  0.1071
 5581TIP3    H240939   1.564   5.592   8.422 -1.7881  0.8204 -0.1424
 5582TIP3   OH240940   4.591   3.349   0.165  0.1666  0.1257 -0.0372
 5582TIP3    H140941   4.676   3.309   0.149  0.5437  0.5476  0.8347
 5582TIP3    H240942   4.601   3.395   0.249 -0.7400  0.6696 -0.2056
 5583TIP3   OH240943   4.550   2.024   1.748 -0.4972  0.7887  0.1680
 5583TIP3    H140944   4.494   2.065   1.815 -1.0145  3.0830 -1.5550
 5583TIP3    H240945   4.491   2.008   1.674  0.5146  0.3868 -0.5665
 5584TIP3   OH240946   4.562   5.931   1.543 -0.2335  0.2783  0.2632
 5584TIP3    H140947   4.602   5.973   1.467 -2.1134  0.3070 -0.7675
 5584TIP3    H240948   4.633   5.882   1.584  1.4393  2.4093  0.0554
 5585TIP3   OH240949   6.521   1.115   0.448  0.3946 -0.1958  0.2230
 5585TIP3    H140950   6.483   1.178   0.509  0.4757  0.5074 -0.4423
 5585TIP3    H240951   6.481   1.031   0.472  0.3723  0.0785  1.1909
 5586TIP3   OH240952   5.802   4.188   7.515  0.2329  0.3906 -0.1361
 5586TIP3    H140953   5.895   4.190   7.537  0.6389 -0.4679 -1.6100
 5586TIP3    H240954   5.793   4.247   7.440 -0.2061 -0.2970 -0.6443
 5587TIP3   OH240955   3.211   2.003   0.368 -0.3577  0.3710 -0.2318
 5587TIP3    H140956   3.285   1.944   0.356 -1.0501 -0.7880  1.0740
 5587TIP3    H240957   3.175   1.981   0.453 -1.3935  1.8548 -0.2420
 5588TIP3   OH240958   3.054   4.222   7.207  0.0872 -0.0864 -0.2318
 5588TIP3    H140959   3.015   4.265   7.131  0.7626 -1.7339 -1.5945
 5588TIP3    H240960   2.983   4.171   7.245 -0.7186  2.0819  1.3943
 5589TIP3   OH240961   6.316   5.034   9.454 -0.6705  0.0760  0.0697
 5589TIP3    H140962   6.311   5.027   9.359  0.7745  0.4283 -0.0629
 5589TIP3    H240963   6.370   5.112   9.469 -0.6414 -0.1452  1.1777
 5590TIP3   OH240964   4.930   6.453   8.568  0.4126 -0.4236  0.3663
 5590TIP3    H140965   4.960   6.517   8.633  1.2103 -0.6893  0.2740
 5590TIP3    H240966   4.967   6.484   8.485 -0.3999 -0.2200  0.0779
 5591TIP3   OH240967   5.427   5.027   9.767  0.3407  0.0713 -0.0212
 5591TIP3    H140968   5.460   5.053   9.853 -0.9484  0.1283  0.4784
 5591TIP3    H240969   5.421   5.108   9.717 -2.7508  0.7449  1.2129
 5592TIP3   OH240970   2.121   2.539   9.482 -0.2446 -0.0715 -0.7420
 5592TIP3    H140971   2.168   2.622   9.471 -0.6212  0.2301 -0.1194
 5592TIP3    H240972   2.147   2.508   9.569 -1.1068  0.0380 -0.4390
 5593TIP3   OH240973   5.321   3.421   1.050 -0.0437  0.1693  0.1273
 5593TIP3    H140974   5.366   3.391   0.971  0.1942 -1.1102  0.7266
 5593TIP3    H240975   5.388   3.420   1.118 -0.1551  1.6442  0.2768
 5594TIP3   OH240976   5.219   3.888   1.176  0.0671 -0.2775  0.1244
 5594TIP3    H140977   5.214   3.973   1.131  0.2278 -0.5025 -0.3242
 5594TIP3    H240978   5.238   3.911   1.267  0.7128  0.1483 -0.1092
 5595TIP3   OH240979   3.467   1.340   9.713  0.1807 -0.5504 -0.4624
 5595TIP3    H140980   3.544   1.294   9.680  0.2972  0.2018 -1.2509
 5595TIP3    H240981   3.474   1.429   9.679 -1.2508 -0.5785 -0.9264
 5596TIP3   OH240982   1.699   3.257   7.562 -0.0688  0.0935  0.4797
 5596TIP3    H140983   1.680   3.178   7.512 -0.9753 -0.6700  1.9366
 5596TIP3    H240984   1.648   3.326   7.519 -0.3067 -0.3981 -0.0356
 5597TIP3   OH240985   5.047   1.374   9.539 -0.1300 -0.2484  0.1958
 5597TIP3    H140986   5.134   1.349   9.509 -0.1547 -0.1349  0.0204
 5597TIP3    H240987   4.991   1.363   9.462  0.2107  2.2121 -0.5129
 5598TIP3   OH240988   1.420   4.343   7.997  0.1172 -0.0083 -0.3118
 5598TIP3    H140989   1.383   4.354   8.085  0.0732 -0.9536 -0.2022
 5598TIP3    H240990   1.363   4.397   7.941 -0.8573 -0.6773  0.0023
 5599TIP3   OH240991   6.724   2.894   9.194 -0.3634 -0.0457 -0.3216
 5599TIP3    H140992   6.657   2.936   9.139 -1.7373 -0.7691  0.7104
 5599TIP3    H240993   6.680   2.881   9.279  0.9977 -0.8382  0.2954
 5600TIP3   OH240994   6.285   6.707   1.039 -0.0389  0.0632  0.1027
 5600TIP3    H140995   6.279   6.644   1.111  2.2977  0.4340  0.7262
 5600TIP3    H240996   6.326   6.784   1.079  0.8235  0.4681 -1.5037
 5601TIP3   OH240997   6.754   1.599   0.142  0.1284  0.2153 -0.0703
 5601TIP3    H140998   6.725   1.566   0.057  0.1459 -0.2346  0.0957
 5601TIP3    H240999   6.849   1.601   0.136  0.0766  2.3164 -0.8486
 5602TIP3   OH241000   0.678   5.664   2.321  0.1049  0.1386 -0.1855
 5602TIP3    H141001   0.722   5.613   2.252  1.8535 -1.1998  1.7656
 5602TIP3    H241002   0.587   5.668   2.293  0.4663 -1.6015 -1.8792
 5603TIP3   OH241003   1.780   7.482   1.779 -0.3499  0.6472  0.2362
 5603TIP3    H141004   1.836   7.478   1.856  1.4985  0.8608 -1.0439
 5603TIP3    H241005   1.771   7.391   1.751 -2.0329  0.4257  1.3417
 5604TIP3   OH241006   5.877   6.888   8.380 -0.1598 -0.2654  0.1759
 5604TIP3    H141007   5.883   6.947   8.456 -0.6530 -1.0222  0.8158
 5604TIP3    H241008   5.947   6.825   8.393  1.0725  0.7852 -1.0745
 5605TIP3   OH241009   0.957   4.186   0.480  0.0674  0.3643 -0.2863
 5605TIP3    H141010   1.010   4.248   0.530  0.0012  0.9984 -0.9749
 5605TIP3    H241011   0.936   4.116   0.542 -0.9711  1.6797  0.9031
 5606TIP3   OH241012   5.112   2.683   1.313  0.2353  0.0126 -0.1700
 5606TIP3    H141013   5.072   2.599   1.335 -0.3148  0.3485  0.1575
 5606TIP3    H241014   5.187   2.661   1.258  1.2480 -0.8170  1.4807
 5607TIP3   OH241015   2.645   6.035   1.737  0.3237  0.1860  0.2110
 5607TIP3    H141016   2.660   6.043   1.831  0.8770 -0.6275  0.2016
 5607TIP3    H241017   2.727   6.000   1.702  0.0722  0.3283 -0.5606
 5608TIP3   OH241018   1.894   0.964   8.467  0.7517 -0.3049  0.3387
 5608TIP3    H141019   1.890   1.056   8.442 -0.7472 -0.0554  1.3315
 5608TIP3    H241020   1.964   0.960   8.532 -0.0569  0.4122  1.2783
 5609TIP3   OH241021   6.359   4.673   0.820  0.1989 -0.0572 -0.7162
 5609TIP3    H141022   6.442   4.689   0.775  1.6204  0.8900  1.9970
 5609TIP3    H241023   6.341   4.754   0.867 -0.5717 -1.2912  1.2650
 5610TIP3   OH241024   1.769   7.415   8.663  0.0220 -0.1244 -0.7327
 5610TIP3    H141025   1.788   7.440   8.753 -0.2946 -2.7146  0.1139
 5610TIP3    H241026   1.795   7.492   8.611  2.6032  0.5216  1.3133
 5611TIP3   OH241027   3.143   1.881   8.913  0.0986  0.1089 -0.4242
 5611TIP3    H141028   3.062   1.835   8.889  0.6593 -0.2887 -1.6703
 5611TIP3    H241029   3.184   1.824   8.979  0.7007 -1.1523 -1.8276
 5612TIP3   OH241030   4.152   6.195   0.370 -0.4751 -0.4991  0.2822
 5612TIP3    H141031   4.132   6.277   0.326  0.8814 -2.1196 -3.8139
 5612TIP3    H241032   4.243   6.203   0.397 -0.4660 -0.5096  0.2541
 5613TIP3   OH241033   7.289   1.687   9.884  0.0959 -0.0136  0.3094
 5613TIP3    H141034   7.357   1.755   9.877 -0.6658  0.7860  0.4463
 5613TIP3    H241035   7.335   1.605   9.867  1.4403  0.3388  1.9718
 5614TIP3   OH241036   0.027   6.396   1.760 -0.6630 -0.3486  0.0849
 5614TIP3    H141037   0.111   6.367   1.725 -0.6220 -2.0181  1.4263
 5614TIP3    H241038  -0.008   6.454   1.693  1.4674  0.2790 -0.5766
 5615TIP3   OH241039   3.676   1.834   2.025 -0.4408 -0.0497 -0.1013
 5615TIP3    H141040   3.737   1.901   2.056 -0.2428 -0.6363  0.8241
 5615TIP3    H241041   3.605   1.883   1.985  0.1200  0.6836 -0.2199
 5616TIP3   OH241042   2.340   3.458   9.051  0.3763 -0.4469 -0.1742
 5616TIP3    H141043   2.319   3.365   9.050  0.8665 -0.5693  0.6622
 5616TIP3    H241044   2.374   3.475   8.963 -2.7035 -0.3259 -1.4481
 5617TIP3   OH241045   0.293   0.231   0.097 -0.1860  0.3313  0.0932
 5617TIP3    H141046   0.267   0.220   0.189  0.5630 -2.5372  0.0678
 5617TIP3    H241047   0.212   0.222   0.048 -0.7268  2.7250  0.4470
 5618TIP3   OH241048   3.400   2.035   0.615  0.1323  0.1699 -0.7374
 5618TIP3    H141049   3.428   1.949   0.584  0.1166 -0.9946  2.2106
 5618TIP3    H241050   3.348   2.017   0.693  2.0601  2.9408  1.3803
 5619TIP3   OH241051   2.974   7.321   7.149  0.5349 -0.0032  0.0098
 5619TIP3    H141052   2.962   7.227   7.134 -0.4046  0.2444 -0.8759
 5619TIP3    H241053   3.067   7.329   7.171  0.3560 -1.2909  1.4407
 5620TIP3   OH241054   4.374   7.516   8.848 -0.2469  0.4135  0.1543
 5620TIP3    H141055   4.318   7.438   8.848  0.1574  0.0695 -1.9706
 5620TIP3    H241056   4.460   7.484   8.821  0.0752  1.5008 -0.1464
 5621TIP3   OH241057   0.861   3.465   8.187 -0.6107  0.0459  0.1149
 5621TIP3    H141058   0.880   3.390   8.132  2.3997  0.3344  0.6068
 5621TIP3    H241059   0.806   3.431   8.257 -0.4610 -1.3756 -0.4394
 5622TIP3   OH241060   6.448   2.121   8.668 -0.0122  0.3551  0.1153
 5622TIP3    H141061   6.530   2.169   8.669 -0.3064  1.0519 -2.0121
 5622TIP3    H241062   6.381   2.187   8.688 -0.0963 -0.1774  1.7033
 5623TIP3   OH241063   3.042   0.004   1.398  0.1542  0.3201 -0.0740
 5623TIP3    H141064   2.999   0.048   1.324 -1.2269  3.0994  2.1608
 5623TIP3    H241065   3.130   0.040   1.399  0.1884  0.2439 -0.4020
 5624TIP3   OH241066   2.159   3.864   1.671 -0.3232 -0.4474 -0.3266
 5624TIP3    H141067   2.209   3.875   1.590  1.4934 -1.5413  0.5817
 5624TIP3    H241068   2.204   3.918   1.736 -1.5297  0.1225  0.0605
 5625TIP3   OH241069   0.457   5.401   1.654 -0.2482 -0.1514  0.1114
 5625TIP3    H141070   0.551   5.403   1.672 -0.1685 -1.6412 -0.0549
 5625TIP3    H241071   0.443   5.470   1.590  0.5294  0.8748  1.0128
 5626TIP3   OH241072   0.128   6.770   7.161 -0.3598  0.2826  0.1779
 5626TIP3    H141073   0.133   6.675   7.168 -3.0982  0.0422  0.0930
 5626TIP3    H241074   0.211   6.801   7.196  1.0195 -2.1356 -0.6609
 5627TIP3   OH241075   4.802   2.583   7.941  0.3165  0.1467  0.3641
 5627TIP3    H141076   4.804   2.636   7.862 -1.7583  2.6188  1.8291
 5627TIP3    H241077   4.833   2.497   7.912  1.2992  1.3770 -2.7065
 5628TIP3   OH241078   3.375   0.566   9.081  0.4664 -0.7492 -0.2329
 5628TIP3    H141079   3.364   0.505   9.008  0.6563 -1.1838  0.0978
 5628TIP3    H241080   3.367   0.653   9.042  0.7109 -0.9790 -0.7931
 5629TIP3   OH241081   1.614   5.013   0.299  0.5494 -0.3835 -0.6981
 5629TIP3    H141082   1.680   5.069   0.340  1.5713 -1.6501 -0.5658
 5629TIP3    H241083   1.536   5.069   0.292  0.9849  0.5202  1.0413
 5630TIP3   OH241084   6.347   4.639   9.734 -0.5841 -0.1587  0.0790
 5630TIP3    H141085   6.366   4.731   9.715 -1.2235 -0.5328 -3.0143
 5630TIP3    H241086   6.266   4.621   9.686 -1.0042 -2.1253  1.3753
 5631TIP3   OH241087   2.889   0.287   2.717  0.0208 -0.6853 -0.3231
 5631TIP3    H141088   2.825   0.281   2.788 -1.1329 -1.5923 -1.3759
 5631TIP3    H241089   2.902   0.381   2.704  1.3220 -0.4891  1.9600
 5632TIP3   OH241090   6.341   6.279   7.458  0.3544 -0.5342  0.6596
 5632TIP3    H141091   6.268   6.277   7.520 -0.8200 -2.1323 -0.6788
 5632TIP3    H241092   6.328   6.360   7.408 -1.2330 -1.3398 -0.3250
 5633TIP3   OH241093   7.116   2.139   0.323  0.2287 -0.0374  0.2089
 5633TIP3    H141094   7.129   2.196   0.398  1.6744  0.4763 -0.4026
 5633TIP3    H241095   7.180   2.168   0.258 -1.3395 -0.0751 -1.4638
 5634TIP3   OH241096   2.322   3.415   1.151 -0.0846 -0.1790  0.8581
 5634TIP3    H141097   2.286   3.389   1.236 -1.0608 -1.2127  0.1657
 5634TIP3    H241098   2.336   3.332   1.105 -0.8062  0.4116 -0.4754
 5635TIP3   OH241099   6.885   4.340   8.311 -0.0307 -0.3960 -0.1748
 5635TIP3    H141100   6.883   4.347   8.215  0.2375  0.0385 -0.1503
 5635TIP3    H241101   6.838   4.417   8.342 -2.3672 -1.8011  0.0239
 5636TIP3   OH241102   4.149   0.567   0.999  0.1400 -0.5475  0.0258
 5636TIP3    H141103   4.091   0.512   0.946  1.5929 -0.6074 -1.5960
 5636TIP3    H241104   4.206   0.611   0.935  1.2386  0.2627  1.4849
 5637TIP3   OH241105   1.305   1.274   7.851  0.1080  0.1453 -0.3974
 5637TIP3    H141106   1.240   1.206   7.868 -0.3757  0.8191  0.5600
 5637TIP3    H241107   1.375   1.230   7.804 -0.6193 -0.8054 -0.6179
 5638TIP3   OH241108   1.788   1.539   0.341  0.3253  0.1291 -0.5041
 5638TIP3    H141109   1.760   1.621   0.301  1.7066  1.4623  1.0860
 5638TIP3    H241110   1.709   1.502   0.380 -0.4356  0.3423 -1.7957
 5639TIP3   OH241111   4.440   4.687   1.081  0.4125 -0.3244 -0.0961
 5639TIP3    H141112   4.373   4.625   1.113  0.4331 -1.0429 -1.3839
 5639TIP3    H241113   4.389   4.758   1.042  0.3886  0.5138  1.4114
 5640TIP3   OH241114   0.362   4.818   2.782 -0.1151 -0.0373  0.6441
 5640TIP3    H141115   0.370   4.753   2.852  1.2157  1.0841  1.5760
 5640TIP3    H241116   0.399   4.774   2.705  1.0061 -0.3120  1.3207
 5641TIP3   OH241117   1.078   7.438   0.090  0.2346 -0.0636  0.2819
 5641TIP3    H141118   1.134   7.504   0.131 -0.4728  0.5644  0.2616
 5641TIP3    H241119   1.136   7.363   0.075  1.1773  0.7323 -0.1606
 5642TIP3   OH241120   5.634   6.669   9.847 -0.4307 -0.1053  0.0303
 5642TIP3    H141121   5.714   6.621   9.823 -0.5700 -0.0009 -0.6603
 5642TIP3    H241122   5.583   6.607   9.898  0.5366  0.1426  1.3690
 5643TIP3   OH241123   4.969   4.371   0.314 -0.5481 -0.2347  0.1253
 5643TIP3    H141124   5.055   4.411   0.319  0.3105 -1.9250 -0.3495
 5643TIP3    H241125   4.909   4.444   0.297  0.9223  0.8227 -0.6967
 5644TIP3   OH241126   3.508   3.489   7.270  0.4267 -0.0288 -0.5961
 5644TIP3    H141127   3.536   3.419   7.329  1.2270  0.6759 -0.1216
 5644TIP3    H241128   3.442   3.448   7.214 -2.3865 -0.1048  2.4524
 5645TIP3   OH241129   2.286   1.265   0.001  0.2879  0.4672  0.2328
 5645TIP3    H141130   2.327   1.232  -0.079 -0.1715  0.4730 -0.0083
 5645TIP3    H241131   2.301   1.197   0.066 -1.3074 -0.6018 -0.4561
 5646TIP3   OH241132   4.333   6.672   9.084 -0.1437  0.4120 -0.2703
 5646TIP3    H141133   4.336   6.628   9.169 -1.6060  0.5865 -0.1023
 5646TIP3    H241134   4.424   6.697   9.067  0.1518  0.5324  1.3199
 5647TIP3   OH241135   0.198   1.036   2.008 -0.2373  0.2205  0.2009
 5647TIP3    H141136   0.170   1.050   2.098  1.7910 -2.1496  1.3231
 5647TIP3    H241137   0.259   1.108   1.990 -0.0060  0.2428  1.0517
 5648TIP3   OH241138   2.581   0.957   9.706  0.1937 -0.1663 -0.3839
 5648TIP3    H141139   2.671   0.976   9.681  1.1834  0.5256  3.1912
 5648TIP3    H241140   2.531   1.031   9.671  1.3397  0.5276 -0.6284
 5649TIP3   OH241141   2.057   1.070   2.157  0.3124 -0.0797  0.3111
 5649TIP3    H141142   2.028   1.003   2.219 -3.0670  1.6493  0.8510
 5649TIP3    H241143   1.993   1.066   2.086  0.6405  1.8674 -0.1478
 5650TIP3   OH241144   2.345   6.194   1.840 -0.8699 -0.0076  0.5909
 5650TIP3    H141145   2.307   6.125   1.786 -1.2743  0.1780  0.6378
 5650TIP3    H241146   2.379   6.147   1.917  2.1266 -0.6623 -0.9779
 5651TIP3   OH241147   7.623   4.517   1.896 -0.2238  0.2421 -0.6141
 5651TIP3    H141148   7.558   4.554   1.955 -0.9541 -1.2416 -0.4483
 5651TIP3    H241149   7.686   4.474   1.954 -0.7115 -0.8475 -0.8567
 5652TIP3   OH241150   1.042   1.742   7.977  0.0656 -0.1978 -0.1420
 5652TIP3    H141151   1.109   1.782   8.032 -1.0722  0.4585  0.8065
 5652TIP3    H241152   1.071   1.760   7.887  0.5308  1.1316  0.2559
 5653TIP3   OH241153   3.154   3.033   7.786 -0.3630 -0.4118  0.2033
 5653TIP3    H141154   3.201   3.062   7.708 -0.7321 -0.4672 -0.0454
 5653TIP3    H241155   3.188   3.088   7.857  0.1803 -0.5565  0.0607
 5654TIP3   OH241156   6.731   1.029   9.865  0.0315  0.2349 -0.2672
 5654TIP3    H141157   6.777   0.945   9.868 -0.2432  0.0639 -0.6547
 5654TIP3    H241158   6.644   1.009   9.899 -0.2448  0.2149 -0.9722
 5655TIP3   OH241159   2.082   7.019   8.260 -0.1986  0.0375  0.0902
 5655TIP3    H141160   2.036   7.080   8.203 -0.7767 -0.6742 -0.2355
 5655TIP3    H241161   2.174   7.029   8.238 -0.3622  0.2374 -0.5143
 5656TIP3   OH241162   6.171   5.202   9.208 -0.1569  0.4202  0.3334
 5656TIP3    H141163   6.189   5.295   9.196 -0.1802  0.1816 -2.2842
 5656TIP3    H241164   6.167   5.167   9.118 -0.2730 -2.0756  1.2304
 5657TIP3   OH241165   3.492   7.122   9.958 -0.2298  0.3140 -0.8995
 5657TIP3    H141166   3.578   7.165   9.956 -0.1332  0.3333  1.1990
 5657TIP3    H241167   3.486   7.086  10.046 -2.5776  0.6762 -0.8603
 5658TIP3   OH241168   0.406   5.238   7.904 -0.2157  0.6677 -0.0125
 5658TIP3    H141169   0.455   5.156   7.904  0.1644  0.8759 -1.2827
 5658TIP3    H241170   0.442   5.288   7.831  2.0543  3.5090  2.7204
 5659TIP3   OH241171   6.691   2.485   8.787 -0.2897  0.2576 -0.3314
 5659TIP3    H141172   6.740   2.482   8.869  2.1401 -0.2542 -1.7145
 5659TIP3    H241173   6.601   2.503   8.814  0.4398  0.2562  2.4164
 5660TIP3   OH241174   5.384   7.586   1.475 -0.0881  0.4767  0.0271
 5660TIP3    H141175   5.390   7.546   1.562 -2.7872 -0.8911 -0.3017
 5660TIP3    H241176   5.370   7.679   1.492 -0.4338  0.2459  1.0478
 5661TIP3   OH241177   5.765   0.731   0.461 -0.1195  0.0738 -0.0010
 5661TIP3    H141178   5.737   0.646   0.428 -1.5247 -0.3872  2.1978
 5661TIP3    H241179   5.687   0.769   0.502  0.8618  1.7356  0.4523
 5662TIP3   OH241180   5.309   6.550   8.561  0.3382 -0.5098 -0.4570
 5662TIP3    H141181   5.287   6.462   8.589  0.2896 -1.1436 -2.3501
 5662TIP3    H241182   5.248   6.569   8.490  0.7403  0.8266 -0.4780
 5663TIP3   OH241183   1.723   7.159   2.958 -0.0719  0.3521 -0.3361
 5663TIP3    H141184   1.799   7.191   2.910 -0.3668 -1.3340 -2.0679
 5663TIP3    H241185   1.648   7.182   2.903 -0.3352 -2.6951 -1.4816
 5664TIP3   OH241186   1.893   3.885   6.388  0.1511  0.2626 -0.3330
 5664TIP3    H141187   1.960   3.825   6.356 -1.5134 -0.3797 -2.8878
 5664TIP3    H241188   1.908   3.966   6.338  0.1893  0.7992  0.5183
 5665TIP3   OH241189   2.176   3.970   8.720  0.2217 -0.3700  0.6875
 5665TIP3    H141190   2.168   3.970   8.816 -2.3868  0.4893  0.5734
 5665TIP3    H241191   2.116   3.901   8.691  0.4983 -0.1964 -0.3522
 5666TIP3   OH241192   0.239   6.074   2.511 -0.2158 -0.0007 -0.0401
 5666TIP3    H141193   0.332   6.063   2.493 -0.0946 -1.1879  1.1613
 5666TIP3    H241194   0.234   6.080   2.607 -1.6342 -3.2701  0.2233
 5667TIP3   OH241195   3.570   1.111   0.191 -0.2492  0.1194 -0.8670
 5667TIP3    H141196   3.641   1.060   0.229 -0.3528  1.3996  1.2099
 5667TIP3    H241197   3.491   1.062   0.215 -0.2945  0.7759  0.4512
 5668TIP3   OH241198   6.356   0.856   2.434  0.2762  0.1082  0.1481
 5668TIP3    H141199   6.425   0.915   2.465 -0.1982  0.7275  0.0446
 5668TIP3    H241200   6.277   0.889   2.477 -0.1187  0.0014 -0.4942
 5669TIP3   OH241201   3.605   5.409   9.585  0.0502 -0.4267 -0.2685
 5669TIP3    H141202   3.622   5.367   9.669  0.0933  0.9390  0.4459
 5669TIP3    H241203   3.516   5.443   9.592 -0.2260 -0.9624 -1.0767
 5670TIP3   OH241204   1.298   4.530   1.319 -0.0370 -0.2120 -0.2170
 5670TIP3    H141205   1.249   4.592   1.264  1.5095  2.4670  1.1990
 5670TIP3    H241206   1.390   4.546   1.296  0.4587 -1.4530  0.7803
 5671TIP3   OH241207   4.005   3.833   0.179  0.2004 -0.1594  0.0851
 5671TIP3    H141208   4.012   3.870   0.091 -0.0611  1.5825  0.7610
 5671TIP3    H241209   4.024   3.740   0.167 -0.3587 -0.0776 -1.8950
 5672TIP3   OH241210   2.773   7.090   2.496  0.1341 -0.6562  0.6102
 5672TIP3    H141211   2.743   7.169   2.451  0.0063 -0.0981  1.6493
 5672TIP3    H241212   2.718   7.020   2.459  0.3663 -0.3028 -0.4389
 5673TIP3   OH241213   5.937   7.250   9.526 -0.5747 -0.4596  0.2130
 5673TIP3    H141214   5.875   7.177   9.532  1.1283 -2.0353 -0.2685
 5673TIP3    H241215   6.015   7.219   9.571  0.0977  1.2073  0.2524
 5674TIP3   OH241216   1.857   2.189   9.005 -0.1661 -0.4224 -0.5125
 5674TIP3    H141217   1.837   2.102   9.041  0.6622  0.3106  1.9067
 5674TIP3    H241218   1.939   2.176   8.957 -0.6747 -1.1936 -1.2110
 5675TIP3   OH241219   7.312   5.383   9.199 -0.2506 -0.8775 -0.1467
 5675TIP3    H141220   7.283   5.469   9.168  1.6639 -0.1918 -0.2115
 5675TIP3    H241221   7.316   5.329   9.120  1.2847 -0.1436 -0.6223
 5676TIP3   OH241222   0.202   3.773   8.291  0.0828 -0.0935  0.3874
 5676TIP3    H141223   0.157   3.689   8.289 -0.2412  0.0424  1.5740
 5676TIP3    H241224   0.295   3.750   8.280  0.3437 -0.9200  3.3831
 5677TIP3   OH241225   1.100   7.145   8.423 -0.3249 -0.0073 -0.0089
 5677TIP3    H141226   1.192   7.139   8.398 -0.5103 -1.4077 -0.4371
 5677TIP3    H241227   1.101   7.131   8.518 -0.1417 -0.6055 -0.0940
 5678TIP3   OH241228   6.102   0.755   1.130 -0.3160 -0.1040 -0.2022
 5678TIP3    H141229   6.030   0.697   1.153  0.1749 -0.5383  0.2855
 5678TIP3    H241230   6.085   0.781   1.039 -2.1233  1.3935  0.5209
 5679TIP3   OH241231   5.820   0.120   8.809 -0.1492 -0.1895 -0.0542
 5679TIP3    H141232   5.795   0.052   8.747 -0.0493 -0.9345  0.7123
 5679TIP3    H241233   5.888   0.080   8.863 -0.8734  0.1336  1.1296
 5680TIP3   OH241234   1.344   6.067   1.655 -0.9441 -0.4057  0.0179
 5680TIP3    H141235   1.259   6.037   1.624 -1.2293  0.1812  0.2093
 5680TIP3    H241236   1.331   6.083   1.748 -0.7266  0.0250 -0.0234
 5681TIP3   OH241237   2.270   5.251   0.793  0.5878 -0.4200  0.9013
 5681TIP3    H141238   2.334   5.322   0.788 -1.4770  1.5642  1.2981
 5681TIP3    H241239   2.288   5.208   0.876 -0.7115  2.3523  2.7491
 5682TIP3   OH241240   0.372   2.377   2.471 -0.5479 -0.2440 -0.1117
 5682TIP3    H141241   0.344   2.332   2.551  2.1048  0.8884  1.5741
 5682TIP3    H241242   0.327   2.461   2.475 -0.3520 -0.1524  0.2580
 5683TIP3   OH241243   4.287   1.789   9.007 -0.5511  0.2680 -0.2588
 5683TIP3    H141244   4.363   1.830   9.047 -1.3937  0.4756  1.2113
 5683TIP3    H241245   4.320   1.750   8.926  1.1804  0.0607  0.5043
 5684TIP3   OH241246   1.473   0.138   0.217  0.1863 -0.3954 -0.0132
 5684TIP3    H141247   1.461   0.225   0.257  0.5680  0.2067 -1.1646
 5684TIP3    H241248   1.561   0.112   0.243 -0.2229 -0.8081  0.9983
 5685TIP3   OH241249   5.949   3.053   1.750  0.1873 -0.0331 -0.7209
 5685TIP3    H141250   5.866   3.045   1.704 -0.8247  0.6633  0.8760
 5685TIP3    H241251   5.945   2.987   1.819 -0.3503  1.8625  1.1695
 5686TIP3   OH241252   6.527   5.693   9.416  0.9748 -0.2592  0.1555
 5686TIP3    H141253   6.606   5.744   9.400  0.3044  0.6999 -0.1955
 5686TIP3    H241254   6.530   5.673   9.510  1.7429 -0.4332  0.1002
 5687TIP3   OH241255   4.809   5.492   2.128 -0.7544  0.1491  0.2302
 5687TIP3    H141256   4.756   5.422   2.165 -1.6547  0.5214 -0.2961
 5687TIP3    H241257   4.794   5.567   2.186 -0.1534  0.0304  0.5398
 5688TIP3   OH241258   6.885   2.009   9.360  0.1385 -0.7161 -0.7146
 5688TIP3    H141259   6.956   1.970   9.410  0.6156 -0.3613 -1.0963
 5688TIP3    H241260   6.907   2.103   9.357 -1.8520 -0.0894  1.6333
 5689TIP3   OH241261   2.751   6.263   7.626  0.0531  0.2621 -0.5334
 5689TIP3    H141262   2.696   6.248   7.550 -0.1699  0.8933 -0.5094
 5689TIP3    H241263   2.692   6.301   7.692  0.1320 -0.7434  0.1346
 5690TIP3   OH241264   2.071   3.515   7.203  0.2214 -0.3105 -0.5018
 5690TIP3    H141265   2.077   3.568   7.283 -1.2094  1.7072 -1.6545
 5690TIP3    H241266   2.155   3.469   7.200  0.5927  0.0553  1.7927
 5691TIP3   OH241267   7.299   2.532   9.314 -0.9443 -0.5011  0.1171
 5691TIP3    H141268   7.283   2.625   9.334  0.8076 -0.3190  0.8331
 5691TIP3    H241269   7.320   2.492   9.398 -0.0568 -1.1725 -0.4039
 5692TIP3   OH241270   6.063   3.627   8.795  0.2439 -0.9467 -0.0555
 5692TIP3    H141271   6.008   3.550   8.779 -0.6648 -0.6599  1.4394
 5692TIP3    H241272   6.000   3.699   8.806  0.8989 -0.5899  1.6213
 5693TIP3   OH241273   2.992   5.348   8.317  0.0032 -0.4330 -0.5647
 5693TIP3    H141274   2.905   5.327   8.352  0.0536 -0.5287 -0.4977
 5693TIP3    H241275   3.050   5.348   8.393  0.4771 -2.5245 -0.8617
 5694TIP3   OH241276   5.947   4.525   1.058 -0.3313  0.0910  0.6276
 5694TIP3    H141277   6.031   4.573   1.060  0.6208 -1.5289  0.8713
 5694TIP3    H241278   5.946   4.475   1.139 -2.2919  1.2437  1.3726
 5695TIP3   OH241279   7.600   3.855   2.212  0.3287 -0.0330 -0.3742
 5695TIP3    H141280   7.675   3.910   2.189  1.4303 -1.0026  0.7697
 5695TIP3    H241281   7.612   3.834   2.304 -0.5540 -1.4503 -0.5473
 5696TIP3   OH241282   4.134   6.805   8.202 -0.3606  0.3034  0.0748
 5696TIP3    H141283   4.111   6.717   8.171 -2.0257  1.3601 -2.0126
 5696TIP3    H241284   4.138   6.858   8.122 -2.9697  2.8383  1.4064
 5697TIP3   OH241285   5.449   1.583   1.798  0.3005 -0.1776  0.2242
 5697TIP3    H141286   5.514   1.652   1.783 -0.1168 -0.0560 -1.2335
 5697TIP3    H241287   5.446   1.573   1.893  1.6463  0.5755  0.3710
 5698TIP3   OH241288   1.706   6.053   2.134  0.0542  0.5960  0.1579
 5698TIP3    H141289   1.766   6.120   2.167  0.5735 -0.5766  1.6436
 5698TIP3    H241290   1.691   6.079   2.043  0.1380  2.7979  0.6966
 5699TIP3   OH241291   3.163   5.963   0.866  0.1463  0.0596 -0.0404
 5699TIP3    H141292   3.188   5.873   0.847 -2.1278 -0.6005 -0.1839
 5699TIP3    H241293   3.085   5.978   0.814 -1.0300  1.2414  1.9415
 5700TIP3   OH241294   7.555   1.991   1.557 -0.2184  0.3977 -0.0753
 5700TIP3    H141295   7.507   2.070   1.584 -0.9579  0.3342 -1.1355
 5700TIP3    H241296   7.486   1.930   1.529  0.4034 -0.2595 -0.1890
 5701TIP3   OH241297   4.210   4.377   0.065 -0.0678 -0.1606  0.2596
 5701TIP3    H141298   4.250   4.419   0.141  0.7525  0.5388 -0.5389
 5701TIP3    H241299   4.183   4.291   0.096  0.1565  0.1592  1.3668
 5702TIP3   OH241300   5.552   1.285   2.524 -0.1518  0.1772  0.1967
 5702TIP3    H141301   5.513   1.351   2.581 -0.6813 -0.0655  0.1206
 5702TIP3    H241302   5.580   1.334   2.447 -0.1021  0.3870  0.3447
 5703TIP3   OH241303   3.072   6.740   7.717  0.1712  0.0600 -0.1426
 5703TIP3    H141304   2.981   6.768   7.728  0.3114  0.1721  0.7907
 5703TIP3    H241305   3.093   6.763   7.626 -0.5928  0.4342 -0.2343
 5704TIP3   OH241306   5.695   1.980   0.823 -0.2038 -0.0080  0.5711
 5704TIP3    H141307   5.780   1.980   0.780 -0.3868 -0.6982  0.1875
 5704TIP3    H241308   5.647   2.052   0.783  0.6708  1.2879  1.7810
 5705TIP3   OH241309   1.736   6.143   7.919 -0.3459  0.4898  0.1423
 5705TIP3    H141310   1.804   6.205   7.895 -1.4242  1.3807 -0.7796
 5705TIP3    H241311   1.700   6.176   8.001 -0.7574  0.9871 -0.2255
 5706TIP3   OH241312   1.610   3.403   9.572  0.2274 -0.0726  0.0144
 5706TIP3    H141313   1.650   3.338   9.514 -0.0683 -0.4841  0.2588
 5706TIP3    H241314   1.560   3.460   9.514  0.6759  0.0785 -0.2262
 5707TIP3   OH241315   5.689   2.946   9.840 -0.0383 -0.0114  0.1611
 5707TIP3    H141316   5.686   2.968   9.933 -1.0883  0.3152  0.0727
 5707TIP3    H241317   5.643   3.019   9.797  0.7188  0.0074 -0.6439
 5708TIP3   OH241318   5.604   1.290   7.662  0.0038  0.0413 -0.2223
 5708TIP3    H141319   5.673   1.241   7.708 -0.3555 -0.0400  0.2381
 5708TIP3    H241320   5.584   1.237   7.585 -0.2956 -0.4835  0.2104
 5709TIP3   OH241321   1.375   5.260   7.277 -0.8854  0.0206  0.2958
 5709TIP3    H141322   1.301   5.317   7.257 -1.6486 -0.7488  0.8718
 5709TIP3    H241323   1.336   5.176   7.302  0.1557 -0.2570  1.0806
 5710TIP3   OH241324   4.828   7.102   1.500  0.2185  0.0599  0.7605
 5710TIP3    H141325   4.913   7.063   1.522  1.3894  0.3997 -2.5409
 5710TIP3    H241326   4.845   7.196   1.500 -0.0925  0.1214 -0.0566
 5711TIP3   OH241327   7.595   4.045   7.810  0.0053  0.5090 -0.0385
 5711TIP3    H141328   7.532   4.001   7.752  0.5574 -1.5425  0.8450
 5711TIP3    H241329   7.679   4.032   7.767  0.1921  0.6184  0.2953
 5712TIP3   OH241330   2.643   2.106   9.175 -0.0641 -0.3427  0.2438
 5712TIP3    H141331   2.618   2.161   9.101  0.8433 -0.7043 -0.3519
 5712TIP3    H241332   2.685   2.166   9.237 -0.7444 -0.0558  0.4264
 5713TIP3   OH241333   7.428   0.431   8.506 -0.4531  0.3870 -0.2411
 5713TIP3    H141334   7.512   0.395   8.534 -0.4500  0.8015  0.3036
 5713TIP3    H241335   7.431   0.429   8.410  0.0181  0.0435 -0.2214
 5714TIP3   OH241336   0.621   2.797   9.105 -0.3195  0.1063 -0.0789
 5714TIP3    H141337   0.601   2.887   9.080  2.6190  1.3149  1.3594
 5714TIP3    H241338   0.714   2.787   9.082 -0.0695 -1.8890  1.5564
 5715TIP3   OH241339   5.376   6.725   8.779  0.0383  0.2132  0.4018
 5715TIP3    H141340   5.390   6.685   8.693  1.2775 -0.2022  0.7757
 5715TIP3    H241341   5.313   6.796   8.763  0.0975  0.0084 -0.7991
 5716TIP3   OH241342   7.425   4.315   9.209 -0.5256 -0.2221 -0.5573
 5716TIP3    H141343   7.448   4.390   9.154  1.1759 -0.8836 -0.8127
 5716TIP3    H241344   7.436   4.346   9.298 -0.4904  0.0155 -0.6438
 5717TIP3   OH241345   7.409   0.923   8.906 -0.2948 -0.2187 -0.4606
 5717TIP3    H141346   7.494   0.922   8.863 -0.1673 -2.8614 -0.3138
 5717TIP3    H241347   7.347   0.948   8.838  0.4163  0.2461 -0.9481
 5718TIP3   OH241348   5.200   0.162   9.960  0.1491  0.3906 -0.8872
 5718TIP3    H141349   5.123   0.110   9.940 -0.3639 -0.1710  2.0442
 5718TIP3    H241350   5.274   0.105   9.938 -0.3385 -0.2151 -0.9942
 5719TIP3   OH241351   1.438   1.810   1.331  0.4095  0.2713  0.6790
 5719TIP3    H141352   1.494   1.766   1.267  1.1464  1.8413  0.1868
 5719TIP3    H241353   1.434   1.901   1.300 -0.8153  0.6229  1.8043
 5720TIP3   OH241354   3.047   7.496   0.502  0.4093 -0.2879  0.2297
 5720TIP3    H141355   3.127   7.459   0.539  0.0602  0.4390  1.8001
 5720TIP3    H241356   3.056   7.590   0.513 -0.5435 -0.1835  0.1890
 5721TIP3   OH241357   2.477   3.108   9.293 -0.2863  0.3765  0.1143
 5721TIP3    H141358   2.532   3.108   9.371 -0.1628  0.0633  0.0322
 5721TIP3    H241359   2.389   3.126   9.326 -0.5766 -1.6509  0.5985
 5722TIP3   OH241360   7.074   4.237   9.925  0.3878 -0.3676 -0.0870
 5722TIP3    H141361   7.064   4.188   9.844 -1.4673 -0.1049 -0.0690
 5722TIP3    H241362   7.107   4.323   9.898 -3.2674  0.9200 -1.0930
 5723TIP3   OH241363   0.249   5.878   8.840 -0.2776  0.2045  0.5889
 5723TIP3    H141364   0.216   5.824   8.768 -1.1845  0.7998  0.5373
 5723TIP3    H241365   0.332   5.837   8.865 -0.6922 -0.9045  0.2151
 5724TIP3   OH241366   0.386   6.236   7.819  0.3921 -0.2129 -0.0234
 5724TIP3    H141367   0.446   6.298   7.862  1.1769 -0.7179 -0.3698
 5724TIP3    H241368   0.382   6.266   7.728  1.0900 -0.8870 -0.2867
 5725TIP3   OH241369   7.050   6.520   1.541 -0.1149 -0.3225 -0.0915
 5725TIP3    H141370   7.130   6.478   1.511  0.8411  0.4577  1.2677
 5725TIP3    H241371   7.032   6.481   1.626 -1.3933 -0.7338 -0.5185
 5726TIP3   OH241372   1.314   6.060   0.704  0.1591  0.1646 -0.0263
 5726TIP3    H141373   1.384   6.086   0.764  0.1396  0.7807 -0.2682
 5726TIP3    H241374   1.335   6.104   0.622  1.0670 -1.9285 -0.9903
 5727TIP3   OH241375   7.081   4.430   2.224 -0.1764 -0.4280  0.1956
 5727TIP3    H141376   7.142   4.434   2.151 -1.6540 -0.8632 -1.1312
 5727TIP3    H241377   7.136   4.421   2.302  1.4298 -0.3384 -0.8872
 5728TIP3   OH241378   0.145   3.386   0.433 -0.1838 -0.3861 -0.1822
 5728TIP3    H141379   0.147   3.434   0.516 -1.0124 -1.2340  0.3534
 5728TIP3    H241380   0.129   3.453   0.367 -1.8066  0.0546  0.5989
 5729TIP3   OH241381   0.747   2.567   9.694 -0.2075 -0.8611 -0.7483
 5729TIP3    H141382   0.664   2.552   9.739  0.0632 -1.7268 -0.5217
 5729TIP3    H241383   0.746   2.507   9.620 -0.0493 -0.4311 -1.0987
 5730TIP3   OH241384   4.587   2.578   9.685 -0.7048 -0.9495 -0.6761
 5730TIP3    H141385   4.508   2.616   9.723 -0.0869 -0.6670  0.3836
 5730TIP3    H241386   4.617   2.644   9.623 -0.5829 -0.4595 -0.1068
 5731TIP3   OH241387   0.955   5.570   9.215  0.1491 -0.2404 -0.4468
 5731TIP3    H141388   1.001   5.601   9.293 -0.7875 -0.7526  0.3227
 5731TIP3    H241389   0.875   5.531   9.248 -0.6807  0.2922 -1.7360
 5732TIP3   OH241390   2.341   0.596   0.363  0.3823 -0.1787  0.0856
 5732TIP3    H141391   2.382   0.590   0.449 -0.0843  0.6490  0.3746
 5732TIP3    H241392   2.252   0.563   0.376  1.1841 -2.9890 -0.7651
 5733TIP3   OH241393   3.773   1.696   0.265  0.2043 -0.1241 -1.3677
 5733TIP3    H141394   3.722   1.633   0.316  0.6447 -0.5802 -1.4791
 5733TIP3    H241395   3.819   1.642   0.200 -1.2428  0.5511 -3.0509
 5734TIP3   OH241396   6.229   4.253   0.917  0.1426  0.1286  0.6514
 5734TIP3    H141397   6.139   4.233   0.943  0.3431 -0.7299  0.7190
 5734TIP3    H241398   6.281   4.180   0.952  0.6720 -0.0987 -0.5507
 5735TIP3   OH241399   3.133   3.467   1.388  0.1410 -0.3791 -0.5509
 5735TIP3    H141400   3.159   3.377   1.407  0.6370 -0.0144  0.5735
 5735TIP3    H241401   3.069   3.488   1.456  1.6704  0.8403  0.5882
 5736TIP3   OH241402   5.440   0.512   9.242  0.3163  0.2654 -0.1044
 5736TIP3    H141403   5.442   0.456   9.319  0.2042 -0.8777 -0.9004
 5736TIP3    H241404   5.488   0.590   9.267 -1.0847  0.6297  1.6486
 5737TIP3   OH241405   5.158   5.260   7.477 -0.8583 -0.3678 -0.6229
 5737TIP3    H141406   5.234   5.220   7.518  0.4716 -0.1486 -2.7178
 5737TIP3    H241407   5.164   5.353   7.500 -0.9109 -0.4653 -0.2046
 5738TIP3   OH241408   5.341   5.173   1.474  0.1573 -0.2349  0.6863
 5738TIP3    H141409   5.342   5.168   1.378  0.3676 -2.7465  0.7443
 5738TIP3    H241410   5.419   5.223   1.497  0.6365 -0.4296 -0.4475
 5739TIP3   OH241411   7.094   1.108   0.407  0.6072 -0.0348  1.1523
 5739TIP3    H141412   7.023   1.079   0.464  0.1181 -3.9513 -1.0594
 5739TIP3    H241413   7.049   1.153   0.335  0.7197  0.5462  1.4454
 5740TIP3   OH241414   1.312   7.606   1.354  0.0499 -0.3568  0.3386
 5740TIP3    H141415   1.262   7.658   1.417 -0.2848 -0.8371  0.4730
 5740TIP3    H241416   1.386   7.662   1.330 -0.0559 -0.0038  0.8286
 5741TIP3   OH241417   1.405   1.521   9.776 -0.1705  0.8342 -0.1153
 5741TIP3    H141418   1.425   1.434   9.811 -1.0828  0.2031 -1.1324
 5741TIP3    H241419   1.312   1.518   9.754  0.2194  1.4177 -1.9781
 5742TIP3   OH241420   1.971   2.671   1.604  0.0861  0.2489  0.3099
 5742TIP3    H141421   1.929   2.656   1.519 -1.9402 -4.1358  1.8204
 5742TIP3    H241422   2.060   2.638   1.593 -0.0135  0.1542 -0.2356
 5743TIP3   OH241423   6.174   5.819   8.360  0.1142  0.1635  0.1477
 5743TIP3    H141424   6.215   5.870   8.430  1.3863 -0.4428 -0.1365
 5743TIP3    H241425   6.082   5.815   8.385  0.2020  1.5929  0.7821
 5744TIP3   OH241426   7.526   2.562   1.489 -0.1667 -0.2227  0.5009
 5744TIP3    H141427   7.452   2.570   1.429  0.8150 -0.7308 -0.8355
 5744TIP3    H241428   7.600   2.538   1.433  0.5880 -1.7903  2.0390
 5745TIP3   OH241429   2.992   6.151   7.820  0.2636 -0.0366  0.2765
 5745TIP3    H141430   2.988   6.206   7.742  0.0346 -2.0311 -1.2084
 5745TIP3    H241431   3.084   6.125   7.827  0.6199  1.4757  1.7150
 5746TIP3   OH241432   3.698   4.596   0.980 -0.0426 -0.6633  0.1520
 5746TIP3    H141433   3.759   4.663   1.011 -1.2256  0.4139  0.2231
 5746TIP3    H241434   3.749   4.544   0.918  1.2767 -0.5211  1.0748
 5747TIP3   OH241435   3.822   0.532   7.445  0.4098 -0.0511 -0.2504
 5747TIP3    H141436   3.846   0.465   7.381 -0.2577  1.2645 -1.9518
 5747TIP3    H241437   3.734   0.559   7.420  0.9258  1.9545 -0.0703
 5748TIP3   OH241438   5.932   3.003   9.227  0.0224 -0.4339  0.8332
 5748TIP3    H141439   5.961   2.920   9.190 -1.3599 -0.7982  0.5404
 5748TIP3    H241440   6.006   3.063   9.211  0.2372 -1.0771 -0.7935
 5749TIP3   OH241441   5.766   1.557   1.427  0.5746 -0.1273 -0.4058
 5749TIP3    H141442   5.750   1.643   1.389  1.1489  0.0466 -0.2624
 5749TIP3    H241443   5.682   1.531   1.465  0.3863  0.3443 -0.4980
 5750TIP3   OH241444   4.547   7.515   9.787  1.1324  0.1794 -0.1078
 5750TIP3    H141445   4.552   7.607   9.760 -0.4863  0.3753  0.2062
 5750TIP3    H241446   4.638   7.492   9.809  1.5886  1.6380 -0.3650
 5751TIP3   OH241447   5.566   0.030   7.591 -0.0158 -0.3615  0.3003
 5751TIP3    H141448   5.639  -0.021   7.627  1.3172  1.4073  0.2535
 5751TIP3    H241449   5.532  -0.024   7.519  0.7208 -1.5783  0.8273
 5752TIP3   OH241450   4.799   0.978   9.850 -0.1565  0.6011  0.1014
 5752TIP3    H141451   4.780   1.048   9.788 -0.8242 -0.1054 -0.5136
 5752TIP3    H241452   4.747   0.904   9.819  0.5576 -0.1757  0.7228
 5753TIP3   OH241453   6.679   4.095   1.386 -0.2260 -0.2545  0.3639
 5753TIP3    H141454   6.706   4.077   1.295  0.8983 -0.2465  0.6767
 5753TIP3    H241455   6.608   4.033   1.402 -0.4767 -0.2207 -0.5432
 5754TIP3   OH241456   5.818   0.876   2.552 -0.1056 -0.2581  0.3143
 5754TIP3    H141457   5.873   0.804   2.581 -1.5493 -1.0224  1.2887
 5754TIP3    H241458   5.786   0.848   2.465  0.2510 -0.2671  0.1869
 5755TIP3   OH241459   6.781   5.827   8.198  0.7447 -0.4910 -0.0619
 5755TIP3    H141460   6.858   5.821   8.141 -1.1861  0.5997 -2.9953
 5755TIP3    H241461   6.765   5.736   8.225  2.4690 -0.8728 -0.1887
 5756TIP3   OH241462   0.934   0.695   0.031 -0.1594  0.0123  0.3757
 5756TIP3    H141463   0.934   0.759   0.102 -0.1461 -0.5913  0.9254
 5756TIP3    H241464   0.894   0.617   0.068  1.2349 -0.8181  0.1913
 5757TIP3   OH241465   1.031   5.193   8.513  0.1360 -0.0527 -0.1690
 5757TIP3    H141466   1.028   5.287   8.528  1.0607  0.0362 -0.5087
 5757TIP3    H241467   0.945   5.172   8.477  0.1693  0.7782 -0.7664
 5758TIP3   OH241468   2.676   5.925   1.308 -0.0040 -0.1620 -0.0187
 5758TIP3    H141469   2.740   5.856   1.327 -1.8571 -1.8366  0.5021
 5758TIP3    H241470   2.636   5.899   1.226 -1.8962 -0.6630  1.0207
 5759TIP3   OH241471   5.021   4.106   9.331 -0.6021  0.3329  0.2292
 5759TIP3    H141472   5.041   4.066   9.415 -1.3790 -0.1743  0.1861
 5759TIP3    H241473   4.926   4.099   9.323 -0.4508 -0.6522 -1.1769
 5760TIP3   OH241474   0.946   3.203   1.387 -0.1555 -0.2665  0.6274
 5760TIP3    H141475   0.968   3.296   1.383  1.1852 -0.5527  0.7281
 5760TIP3    H241476   0.886   3.189   1.313 -0.1114  0.6143  0.4170
 5761TIP3   OH241477   1.902   1.587   7.844 -0.2384  0.6432 -0.3284
 5761TIP3    H141478   1.966   1.522   7.815 -0.4836  0.3910 -0.3081
 5761TIP3    H241479   1.954   1.654   7.889  0.1027  0.8396 -0.9971
 5762TIP3   OH241480   1.294   2.848   0.446  0.0106 -0.6619 -0.2223
 5762TIP3    H141481   1.367   2.894   0.487 -0.3929 -1.0135  0.9307
 5762TIP3    H241482   1.330   2.814   0.364  1.1492 -0.8443  0.3388
 5763TIP3   OH241483   2.655   5.301   7.255  0.0072 -0.9451  0.1539
 5763TIP3    H141484   2.647   5.231   7.320 -1.5840 -1.7638 -0.8700
 5763TIP3    H241485   2.595   5.369   7.286 -2.3941 -2.2010 -1.4437
 5764TIP3   OH241486   6.930   1.463   0.702  0.3521 -0.0692 -0.1990
 5764TIP3    H141487   6.976   1.405   0.641  0.2788  0.2524 -0.5651
 5764TIP3    H241488   6.947   1.552   0.669 -1.2214  0.0302 -0.8529
 5765TIP3   OH241489   0.859   7.439   9.072 -0.1557  0.0831  0.0731
 5765TIP3    H141490   0.932   7.394   9.031  1.2708  0.6030  1.9136
 5765TIP3    H241491   0.873   7.532   9.050 -0.7733  0.0966 -0.2901
 5766TIP3   OH241492   2.219   5.447   2.480 -0.3297 -0.2323  0.2691
 5766TIP3    H141493   2.216   5.365   2.431  2.1516  0.7425 -1.7781
 5766TIP3    H241494   2.246   5.421   2.569 -1.8910 -1.7850  0.3337
 5767TIP3   OH241495   5.059   2.996   8.359  0.1741 -0.2342  0.3582
 5767TIP3    H141496   5.003   2.920   8.368 -0.1159  0.1395  2.0840
 5767TIP3    H241497   5.027   3.058   8.425  0.2838  1.4745 -1.1028
 5768TIP3   OH241498   6.875   5.190   1.151 -0.1364  0.2443 -0.2240
 5768TIP3    H141499   6.781   5.206   1.140 -0.3040  1.1543  1.8745
 5768TIP3    H241500   6.915   5.276   1.135  0.3495 -0.1426 -1.1183
 5769TIP3   OH241501   5.646   5.598   9.980  0.0548  0.0434  0.1170
 5769TIP3    H141502   5.678   5.625   9.894  1.2981 -0.3224  0.4562
 5769TIP3    H241503   5.659   5.675  10.035  1.4403 -0.4578  0.5242
 5770TIP3   OH241504   2.395   1.471   2.089  0.6851  0.2282  0.3186
 5770TIP3    H141505   2.434   1.432   2.167  0.1190 -2.1713 -0.4867
 5770TIP3    H241506   2.306   1.495   2.117  1.2015  1.4466  0.9606
 5771TIP3   OH241507   1.101   7.454   8.793 -0.0188  0.3345 -0.4745
 5771TIP3    H141508   1.120   7.418   8.880 -3.0197 -2.2887 -0.6873
 5771TIP3    H241509   1.092   7.548   8.807 -0.6952 -0.0426  2.1881
 5772TIP3   OH241510   7.410   7.128   9.504 -0.3572 -0.5940 -0.1815
 5772TIP3    H141511   7.477   7.063   9.481 -0.4837 -0.5936 -0.5467
 5772TIP3    H241512   7.448   7.175   9.579 -0.0746 -0.7893 -0.1991
 5773TIP3   OH241513   3.001   0.949   0.316 -0.2781  0.1278 -0.1142
 5773TIP3    H141514   2.910   0.977   0.326  0.0313  1.0320  0.2828
 5773TIP3    H241515   3.051   1.014   0.365  0.5259 -0.7835  0.2875
 5774TIP3   OH241516   1.296   0.289   1.123  0.5738  0.6555 -0.2649
 5774TIP3    H141517   1.247   0.367   1.095 -1.4423 -0.1281  0.9018
 5774TIP3    H241518   1.300   0.296   1.218  0.9930 -0.3196 -0.1994
 5775TIP3   OH241519   5.143   4.401   1.172  0.2115 -0.8184 -0.5500
 5775TIP3    H141520   5.218   4.342   1.168 -0.8686 -2.1645 -2.2882
 5775TIP3    H241521   5.166   4.473   1.112  1.3740  0.4457  1.2986
 5776TIP3   OH241522   7.603   3.617   2.675 -0.0162  0.2232  0.2347
 5776TIP3    H141523   7.603   3.524   2.699  2.4806 -0.0592 -0.5157
 5776TIP3    H241524   7.679   3.653   2.722 -0.7727  1.8325  0.2744
 5777TIP3   OH241525   2.382   1.876   1.765  0.2080  0.1336  0.2996
 5777TIP3    H141526   2.375   1.784   1.740 -0.0426 -0.4152  2.2147
 5777TIP3    H241527   2.319   1.921   1.708  1.9496 -0.4609 -2.2678
 5778TIP3   OH241528   5.449   1.187   9.506  0.0363  0.3267  0.0699
 5778TIP3    H141529   5.470   1.234   9.587  0.2853 -0.7311  0.6361
 5778TIP3    H241530   5.526   1.199   9.451 -0.4816  1.7834 -0.3776
 5779TIP3   OH241531   0.476   5.027   9.666 -0.4315  0.1248 -0.2573
 5779TIP3    H141532   0.402   5.087   9.655 -1.5169 -1.3190 -1.0969
 5779TIP3    H241533   0.447   4.945   9.626  0.6928 -1.2429  1.5706
 5780TIP3   OH241534   7.288   6.298   1.700  0.1413 -0.1086 -0.6478
 5780TIP3    H141535   7.209   6.316   1.751  0.5517 -3.3929  1.4166
 5780TIP3    H241536   7.358   6.296   1.765  1.7792  1.3829 -2.2495
 5781TIP3   OH241537   3.154   3.232   8.283  0.4962 -0.0956 -0.0578
 5781TIP3    H141538   3.183   3.250   8.373 -2.9719 -0.0777  1.2152
 5781TIP3    H241539   3.167   3.138   8.272  1.2398 -0.0453  0.3317
 5782TIP3   OH241540   3.413   3.943   9.986  0.0419  0.5464  0.2528
 5782TIP3    H141541   3.409   3.925   9.892  0.8234  1.1857  0.0863
 5782TIP3    H241542   3.455   3.865  10.023 -1.6446 -0.3880  0.2992
 5783TIP3   OH241543   1.022   5.823   7.239  0.3486 -0.0610 -0.1822
 5783TIP3    H141544   1.074   5.769   7.179  0.3425 -0.5426  0.2433
 5783TIP3    H241545   1.018   5.773   7.320 -0.9416 -0.1349 -0.2583
 5784TIP3   OH241546   4.029   1.688   0.403  0.3461 -0.0225  0.1772
 5784TIP3    H141547   4.069   1.605   0.428  1.4896 -0.0326 -1.5104
 5784TIP3    H241548   3.943   1.664   0.367  1.4625 -0.8026 -2.2285
 5785TIP3   OH241549   7.109   3.960   7.452  0.6571  0.2286 -0.1813
 5785TIP3    H141550   7.068   3.949   7.366 -1.2388  0.7246  0.5958
 5785TIP3    H241551   7.061   4.033   7.491  1.3371 -0.1312  1.3784
 5786TIP3   OH241552   5.385   0.213   8.022  0.5096  0.0454 -0.6298
 5786TIP3    H141553   5.413   0.247   7.937  0.3293  0.3992 -0.5491
 5786TIP3    H241554   5.467   0.205   8.071  0.6778 -0.6739 -1.0144
 5787TIP3   OH241555   1.450   0.304   2.505  0.0769 -0.1362  0.1565
 5787TIP3    H141556   1.366   0.351   2.497 -0.2330 -0.7413 -0.2585
 5787TIP3    H241557   1.500   0.354   2.569 -0.0693  1.0181 -0.6051
 5788TIP3   OH241558   1.843   5.618   9.251  0.0092  0.1213  0.1737
 5788TIP3    H141559   1.824   5.690   9.312  1.8156  0.3219  0.5425
 5788TIP3    H241560   1.938   5.608   9.255  0.3276  0.6732 -3.2109
 5789TIP3   OH241561   1.772   4.866   1.675  0.1162  0.1609 -0.7708
 5789TIP3    H141562   1.827   4.838   1.601 -0.0235  0.0484 -0.8331
 5789TIP3    H241563   1.768   4.961   1.667 -0.8139  0.0739 -1.5682
 5790TIP3   OH241564   4.737   3.032   0.041  0.3117 -0.1073  0.4185
 5790TIP3    H141565   4.745   3.116  -0.004  0.0058 -1.5320 -2.5735
 5790TIP3    H241566   4.654   2.995   0.010  1.5118 -2.4675 -0.2741
 5791TIP3   OH241567   4.407   2.226   1.865 -0.1124  0.2392  0.6949
 5791TIP3    H141568   4.447   2.267   1.942 -0.7905  0.5259  0.8998
 5791TIP3    H241569   4.332   2.281   1.844 -1.1583 -0.9807  1.0941
 5792TIP3   OH241570   2.639   1.315   7.368  0.1793 -0.3248 -0.1372
 5792TIP3    H141571   2.657   1.320   7.274 -0.2381  1.1258 -0.1506
 5792TIP3    H241572   2.702   1.249   7.400 -1.2626 -2.6546 -1.7785
 5793TIP3   OH241573   2.562   3.351   0.583 -0.4514 -0.1850  0.1130
 5793TIP3    H141574   2.655   3.371   0.595 -0.6211  0.8326 -0.2189
 5793TIP3    H241575   2.562   3.277   0.522  0.1637 -0.8795  0.9194
 5794TIP3   OH241576   7.479   0.727   9.101 -0.2008  0.0537 -0.1310
 5794TIP3    H141577   7.486   0.798   9.037  1.5952 -0.2431 -0.3127
 5794TIP3    H241578   7.413   0.757   9.163 -0.1624  1.4600 -0.7375
 5795TIP3   OH241579   1.332   0.876   8.211  0.5830 -0.0324 -0.3244
 5795TIP3    H141580   1.412   0.902   8.256  0.8662  1.4163 -1.5634
 5795TIP3    H241581   1.353   0.886   8.118 -1.5122  2.1514 -0.6833
 5796TIP3   OH241582   6.741   4.164   1.107  0.3026  0.1697 -0.2837
 5796TIP3    H141583   6.822   4.215   1.114  0.5061  0.1399 -1.9457
 5796TIP3    H241584   6.701   4.196   1.026 -0.3001 -1.2840 -0.5782
 5797TIP3   OH241585   3.567   4.147   9.600  0.0904  0.1458 -0.4089
 5797TIP3    H141586   3.588   4.132   9.508 -0.4545 -0.8326 -0.3943
 5797TIP3    H241587   3.487   4.096   9.614  0.5999 -0.3535  0.8025
 5798TIP3   OH241588   1.511   1.948   8.465 -0.2563 -0.1087 -0.7766
 5798TIP3    H141589   1.560   1.951   8.383  0.3522  0.2516 -0.4120
 5798TIP3    H241590   1.570   1.904   8.526 -0.2760  0.5612 -0.2617
 5799TIP3   OH241591   3.471   2.156   9.898 -0.4793  0.4681  0.0538
 5799TIP3    H141592   3.514   2.238   9.920  0.0651  0.6475 -1.5472
 5799TIP3    H241593   3.378   2.173   9.910 -0.3096  1.0059  0.6579
 5800TIP3   OH241594   1.003   6.001   1.934 -0.4900 -0.2261  0.0508
 5800TIP3    H141595   0.937   6.070   1.942 -0.3639 -0.2529  1.5685
 5800TIP3    H241596   0.995   5.950   2.015  0.5254 -1.0053 -0.3144
 5801TIP3   OH241597   6.150   1.204   9.837 -0.2282  0.7837  0.1122
 5801TIP3    H141598   6.229   1.258   9.848  0.1690  0.3314 -0.4207
 5801TIP3    H241599   6.078   1.267   9.835  0.3943  1.5438 -2.6982
 5802TIP3   OH241600   5.976   3.399   0.185 -0.4481 -0.0942  0.2297
 5802TIP3    H141601   6.069   3.380   0.184 -0.3263  0.5074 -0.2679
 5802TIP3    H241602   5.934   3.315   0.201  0.1810 -0.3446  0.5817
 5803TIP3   OH241603   6.220   7.408   7.810  0.0522  0.1339  0.3931
 5803TIP3    H141604   6.216   7.451   7.725  1.3875  1.2696  0.8572
 5803TIP3    H241605   6.170   7.465   7.868  0.5253  0.2596  0.6902
 5804TIP3   OH241606   4.786   7.082   9.014 -0.0163 -0.5700  0.4629
 5804TIP3    H141607   4.822   7.156   9.064  0.8473 -1.2138  0.8135
 5804TIP3    H241608   4.713   7.120   8.965  1.2947  0.8717 -0.4973
 5805TIP3   OH241609   2.524   3.786   8.332 -0.0212 -0.2537 -0.0301
 5805TIP3    H141610   2.572   3.815   8.410  0.9661  0.5268 -0.9053
 5805TIP3    H241611   2.551   3.695   8.320  0.6754 -0.0464 -0.0805
 5806TIP3   OH241612   0.414   6.960   7.938 -0.1106  0.6788 -0.3624
 5806TIP3    H141613   0.418   6.989   8.029  1.5048 -1.2757  0.2704
 5806TIP3    H241614   0.462   6.877   7.938 -2.6109 -0.9059 -2.4097
 5807TIP3   OH241615   2.126   3.850   8.011 -0.1759 -0.3367 -0.7543
 5807TIP3    H141616   2.044   3.803   8.031  1.4940 -3.6971 -1.1242
 5807TIP3    H241617   2.194   3.799   8.054  1.8561  2.0033 -0.9732
 5808TIP3   OH241618   1.075   2.355   9.152  0.2605  0.4077  0.4401
 5808TIP3    H141619   0.992   2.312   9.168  1.1427 -1.5337  0.1450
 5808TIP3    H241620   1.135   2.316   9.216  0.7010  2.7064  1.5220
 5809TIP3   OH241621   6.242   2.856   0.642 -0.3800  0.4654 -0.0861
 5809TIP3    H141622   6.330   2.844   0.680 -0.2291 -3.1536 -1.1992
 5809TIP3    H241623   6.184   2.812   0.703 -0.7575 -1.1419 -1.5316
 5810TIP3   OH241624   3.067   1.812   0.971 -0.5242  0.0061 -0.0441
 5810TIP3    H141625   3.115   1.735   1.001 -0.5511 -0.1484 -0.3836
 5810TIP3    H241626   2.982   1.807   1.016 -0.1162  0.4455  0.7910
 5811TIP3   OH241627   5.259   0.625   1.686 -0.6504 -0.0821  0.1796
 5811TIP3    H141628   5.232   0.613   1.595 -0.1063  0.6566 -0.0932
 5811TIP3    H241629   5.214   0.705   1.714  1.5837  1.4968 -0.4601
 5812TIP3   OH241630   3.407   5.733   1.752  0.1121 -0.2624 -0.1273
 5812TIP3    H141631   3.456   5.699   1.827 -1.1122 -1.2503  0.2610
 5812TIP3    H241632   3.399   5.657   1.693  0.6448  0.3775 -1.0465
 5813TIP3   OH241633   3.257   2.468   6.930 -0.2129  0.0781  0.6046
 5813TIP3    H141634   3.165   2.477   6.903  0.1402 -0.9772 -1.1877
 5813TIP3    H241635   3.267   2.375   6.948  1.1687 -0.4391 -2.2491
 5814TIP3   OH241636   1.499   6.322   3.259  0.3271 -0.0405  0.4581
 5814TIP3    H141637   1.431   6.371   3.213 -0.0100 -1.8256 -1.0263
 5814TIP3    H241638   1.544   6.389   3.311 -1.1106  1.5679 -0.2449
 5815TIP3   OH241639   5.558   1.708   0.559  0.0045 -1.1709  0.0815
 5815TIP3    H141640   5.594   1.673   0.477 -0.0104 -2.4828  0.6059
 5815TIP3    H241641   5.634   1.714   0.618  0.1789  0.6191 -0.2743
 5816TIP3   OH241642   2.067   5.896   3.142  0.0919 -0.0238 -0.0547
 5816TIP3    H141643   2.156   5.928   3.130  0.0809 -0.0595 -0.2382
 5816TIP3    H241644   2.060   5.876   3.235  0.3634 -0.2932 -0.0945
 5817TIP3   OH241645   2.793   6.466   7.898  0.1763  0.3038 -0.0473
 5817TIP3    H141646   2.757   6.549   7.927 -1.0761  0.1029 -0.9307
 5817TIP3    H241647   2.733   6.400   7.934  1.1970 -0.2302  0.7081
 5818TIP3   OH241648   5.426   6.569   0.153  0.2035 -0.5392 -0.1839
 5818TIP3    H141649   5.346   6.520   0.135  0.0784 -0.6211  0.5560
 5818TIP3    H241650   5.474   6.515   0.215 -0.0452  0.3639  0.8229
 5819TIP3   OH241651   4.368   7.147   9.625  0.0223  0.3300 -0.3853
 5819TIP3    H141652   4.380   7.144   9.530 -0.7221 -1.3914 -0.4645
 5819TIP3    H241653   4.425   7.078   9.659 -1.5074 -0.7271  0.1669
 5820TIP3   OH241654   0.971   5.558   8.768 -0.2057  0.2752  0.3261
 5820TIP3    H141655   0.878   5.580   8.775 -0.5213 -1.0528  0.4951
 5820TIP3    H241656   1.007   5.577   8.855 -0.2975  0.7935  0.2583
 5821TIP3   OH241657   3.661   5.877   0.072 -0.0408  0.1761 -0.3308
 5821TIP3    H141658   3.640   5.853  -0.018 -0.9189  0.5103 -0.2319
 5821TIP3    H241659   3.585   5.928   0.101 -0.0454 -0.4335  0.7912
 5822TIP3   OH241660   7.629   3.381   8.838  0.6211 -0.4673 -0.0112
 5822TIP3    H141661   7.672   3.424   8.912  0.4187 -1.6405  0.8142
 5822TIP3    H241662   7.684   3.404   8.762  1.1913  0.2263  0.5959
 5823TIP3   OH241663   0.212   2.387   0.363  0.5947 -0.2817 -0.7206
 5823TIP3    H141664   0.261   2.469   0.368 -0.2679  0.1687  1.7763
 5823TIP3    H241665   0.146   2.394   0.433 -0.1731 -2.6746 -1.1129
 5824TIP3   OH241666   0.748   1.472   1.303  0.4622  0.1589 -0.7425
 5824TIP3    H141667   0.794   1.515   1.231  1.1323  0.1748 -0.3200
 5824TIP3    H241668   0.818   1.446   1.364 -0.0092 -0.6972 -0.5465
 5825TIP3   OH241669   0.923   2.072   0.890  0.4241  0.7832 -0.0833
 5825TIP3    H141670   0.863   2.053   0.962 -0.4498 -1.5246 -1.3193
 5825TIP3    H241671   0.866   2.083   0.814  1.4611 -0.1294 -1.0342
 5826TIP3   OH241672   2.380   5.437   9.709 -0.0493 -0.0743  0.3395
 5826TIP3    H141673   2.466   5.395   9.717 -0.8916 -2.2498 -1.0443
 5826TIP3    H241674   2.377   5.469   9.619 -0.2500  1.1508  0.7590
 5827TIP3   OH241675   6.253   7.329   1.522  0.6499  0.1827 -0.3163
 5827TIP3    H141676   6.318   7.276   1.566  0.9381 -0.0702 -1.0328
 5827TIP3    H241677   6.175   7.324   1.578  1.3241  0.7457  0.7094
 5828TIP3   OH241678   1.375   3.843   9.191  0.3000 -0.3423  0.4988
 5828TIP3    H141679   1.325   3.904   9.246 -0.6469 -0.7077  0.0714
 5828TIP3    H241680   1.405   3.896   9.118 -1.3456 -0.5403 -0.3823
 5829TIP3   OH241681   2.345   7.118   8.795  0.0494 -0.3228  0.5450
 5829TIP3    H141682   2.348   7.107   8.890  2.8877  0.8287  0.6613
 5829TIP3    H241683   2.377   7.035   8.760 -1.7121 -1.0315  0.4953
 5830TIP3   OH241684   4.791   6.537   0.769  0.8781  0.0204 -0.5610
 5830TIP3    H141685   4.798   6.610   0.831 -0.4275  1.0790 -1.6075
 5830TIP3    H241686   4.750   6.466   0.820 -1.6785  1.3876 -0.5304
 5831TIP3   OH241687   2.757   1.737   6.659  0.5385 -0.7943  0.1554
 5831TIP3    H141688   2.830   1.706   6.605  1.1891  1.0561 -0.0958
 5831TIP3    H241689   2.749   1.830   6.637 -1.3736 -0.7619  0.7968
 5832TIP3   OH241690   0.038   4.466   8.929  0.5713 -0.1711 -0.1182
 5832TIP3    H141691   0.057   4.374   8.946  0.0347 -0.3029 -0.2365
 5832TIP3    H241692  -0.001   4.498   9.010  0.0677 -0.2357 -0.3369
 5833TIP3   OH241693   5.994   1.154   8.854  0.2978 -0.4262 -0.0781
 5833TIP3    H141694   5.953   1.192   8.932  2.1614 -0.3320  0.9165
 5833TIP3    H241695   5.979   1.060   8.862  1.2729 -0.5136  0.9166
 5834TIP3   OH241696   1.543   7.127   9.845  0.1709 -0.1728 -0.1010
 5834TIP3    H141697   1.541   7.139   9.940 -0.6051 -0.4546 -0.0792
 5834TIP3    H241698   1.574   7.211   9.812  1.1938 -0.3129  0.4319
 5835TIP3   OH241699   7.280   6.163   9.686  0.3101 -0.1796 -0.5819
 5835TIP3    H141700   7.276   6.221   9.762 -0.1252 -0.2928 -0.5163
 5835TIP3    H241701   7.373   6.143   9.676  0.5126  0.8106 -0.8213
 5836TIP3   OH241702   5.174   2.262   8.925 -0.3744 -0.1585 -0.2973
 5836TIP3    H141703   5.138   2.285   8.839 -0.8863 -1.0406 -0.3331
 5836TIP3    H241704   5.116   2.193   8.957  0.4703 -0.6204  0.2642
 5837TIP3   OH241705   7.611   0.278   7.653 -0.2607 -0.2311 -0.2350
 5837TIP3    H141706   7.591   0.353   7.598 -0.7329 -1.0840 -1.2541
 5837TIP3    H241707   7.667   0.313   7.722 -2.2029  1.4793  0.5532
 5838TIP3   OH241708   4.672   0.592   8.698 -0.1209  0.4803 -0.3427
 5838TIP3    H141709   4.698   0.573   8.608 -2.4473  1.7861 -1.3816
 5838TIP3    H241710   4.709   0.678   8.717  3.0465 -1.0521  1.2160
 5839TIP3   OH241711   6.969   0.180   9.027  0.0166  0.0028 -0.8167
 5839TIP3    H141712   6.952   0.154   9.117  0.9605  0.2684 -0.5516
 5839TIP3    H241713   7.046   0.129   9.001  1.5153  2.0002 -0.4953
 5840TIP3   OH241714   2.377   6.037   6.784 -0.7025 -0.0595  0.5697
 5840TIP3    H141715   2.411   5.951   6.758 -1.2124 -0.0734 -0.0862
 5840TIP3    H241716   2.384   6.091   6.705  0.0065  0.6329  1.0933
 5841TIP3   OH241717   5.918   7.043   8.602  0.3969 -0.5837  0.6135
 5841TIP3    H141718   5.987   7.105   8.577  0.1450  0.0089  1.3252
 5841TIP3    H241719   5.844   7.099   8.626 -0.1892 -1.1986  0.2744
 5842TIP3   OH241720   1.593   3.110   8.443  0.5198 -0.6483 -0.3091
 5842TIP3    H141721   1.650   3.134   8.369 -0.4973  0.4407 -0.7651
 5842TIP3    H241722   1.632   3.155   8.518 -0.1202  0.7078 -0.7570
 5843TIP3   OH241723   7.168   4.734   9.498  0.1849  0.2365 -0.3803
 5843TIP3    H141724   7.175   4.704   9.588 -0.0520  1.6775  0.1311
 5843TIP3    H241725   7.076   4.759   9.488  0.3551  0.6831 -0.8326
 5844TIP3   OH241726   3.422   1.566   1.854 -0.2781  0.6063  0.4133
 5844TIP3    H141727   3.420   1.582   1.948 -1.0975  1.4719  0.2712
 5844TIP3    H241728   3.492   1.623   1.821 -0.9509  1.4071  0.3325
 5845TIP3   OH241729   5.432   2.853   0.678 -0.3791  0.3674  0.2786
 5845TIP3    H141730   5.392   2.858   0.591  3.2700 -2.0717 -1.7995
 5845TIP3    H241731   5.466   2.941   0.693 -1.2538  0.8887 -0.6192
 5846TIP3   OH241732   0.999   2.922   6.754  0.2532 -0.7229  0.1079
 5846TIP3    H141733   1.076   2.883   6.796  0.5939 -0.8263 -0.6078
 5846TIP3    H241734   1.028   3.009   6.729  0.1140 -0.7382 -0.1019
 5847TIP3   OH241735   2.296   6.978   0.139  0.2742  0.2617 -0.1639
 5847TIP3    H141736   2.255   7.057   0.174  0.6390  0.1367  0.5631
 5847TIP3    H241737   2.272   6.909   0.201  0.3796 -0.0954 -0.5163
 5848TIP3   OH241738   0.117   3.176   9.315 -0.5217  0.2024  0.3444
 5848TIP3    H141739   0.148   3.267   9.311  0.2287 -0.0275  0.7621
 5848TIP3    H241740   0.062   3.167   9.237 -0.3175  0.9133  0.1051
 5849TIP3   OH241741   3.417   0.006   2.306 -0.1447  0.9009  0.0918
 5849TIP3    H141742   3.343   0.018   2.366 -1.1314 -0.0268 -0.8885
 5849TIP3    H241743   3.378   0.011   2.219  1.1724  1.6587 -0.4860
 5850TIP3   OH241744   4.897   1.025   1.581 -0.0883  0.0712  0.2657
 5850TIP3    H141745   4.985   1.031   1.618 -0.6031 -0.4866  1.6303
 5850TIP3    H241746   4.840   1.011   1.656 -1.2479 -0.4979 -0.6850
 5851TIP3   OH241747   1.016   3.988   2.765 -0.4227 -0.3114 -0.1963
 5851TIP3    H141748   0.950   4.056   2.752 -0.2517  0.0485  0.7122
 5851TIP3    H241749   0.989   3.916   2.708 -1.2097  0.1029 -0.3542
 5852TIP3   OH241750   4.088   2.941   0.873  0.2962  0.8944  0.0010
 5852TIP3    H141751   4.128   2.856   0.893  0.1017  0.8614  0.2591
 5852TIP3    H241752   4.074   2.940   0.779  0.1109  0.5558  0.0302
 5853TIP3   OH241753   6.097   1.984   1.737 -0.2417  0.5025 -0.0639
 5853TIP3    H141754   6.141   1.981   1.652 -0.4090  0.8431 -0.1659
 5853TIP3    H241755   6.165   1.959   1.800 -0.5534 -1.4827 -0.4455
 5854TIP3   OH241756   0.924   0.272   9.756 -0.2219  0.1580 -0.0596
 5854TIP3    H141757   0.980   0.349   9.771 -1.2848  0.9463 -0.0536
 5854TIP3    H241758   0.908   0.237   9.844  0.5942 -0.3231 -0.0934
 5855TIP3   OH241759   2.471   2.975   6.604  0.1821  0.1885 -0.1898
 5855TIP3    H141760   2.412   3.006   6.673  0.1993  1.1268 -0.5737
 5855TIP3    H241761   2.417   2.917   6.551  0.4979 -1.5280  1.2851
 5856TIP3   OH241762   1.028   2.266   0.292 -0.1937 -0.1435  0.1894
 5856TIP3    H141763   1.046   2.185   0.340  1.1678  0.1879  0.2831
 5856TIP3    H241764   1.011   2.236   0.202 -0.4745 -0.5881  0.3851
 5857TIP3   OH241765   1.792   3.007   0.467 -0.5337 -0.0957 -0.5192
 5857TIP3    H141766   1.728   3.054   0.413  0.3031 -0.7053 -2.1382
 5857TIP3    H241767   1.760   3.015   0.556 -1.1449  2.3417 -0.8881
 5858TIP3   OH241768   1.846   0.965   2.032  0.0848 -0.1120  0.2461
 5858TIP3    H141769   1.879   0.921   1.954  1.1715  0.5677  0.3067
 5858TIP3    H241770   1.782   1.028   1.998 -3.0696 -3.0147  0.3007
 5859TIP3   OH241771   7.442   4.545   1.252 -0.7411  0.2904 -0.6335
 5859TIP3    H141772   7.373   4.481   1.268 -0.9431  0.4741 -0.7720
 5859TIP3    H241773   7.444   4.555   1.157 -2.4916  2.4235 -0.5266
 5860TIP3   OH241774   3.821   3.355   0.002 -0.2181 -0.3967 -0.0355
 5860TIP3    H141775   3.883   3.416   0.043 -0.7160  1.3119 -1.6822
 5860TIP3    H241776   3.754   3.412  -0.037 -2.2167 -2.1446  0.6861
 5861TIP3   OH241777   2.384   4.104   7.789  1.1770  0.7487  0.0749
 5861TIP3    H141778   2.440   4.100   7.867 -0.7675 -0.8784  1.4786
 5861TIP3    H241779   2.296   4.118   7.823  0.2547 -0.1117 -1.8212
 5862TIP3   OH241780   7.469   7.076   7.757 -0.1355 -0.2839  0.6682
 5862TIP3    H141781   7.487   7.080   7.663 -2.6420 -0.9591  0.0759
 5862TIP3    H241782   7.460   7.167   7.784 -0.7573 -0.1195 -0.0619
 5863TIP3   OH241783   3.572   7.568   1.543 -0.2944  0.0116 -0.0131
 5863TIP3    H141784   3.604   7.556   1.633 -2.6327 -0.1979  0.8542
 5863TIP3    H241785   3.562   7.479   1.509  0.6552  0.0911 -0.5466
 5864TIP3   OH241786   1.344   1.541   0.103 -0.1878 -0.3728  0.5411
 5864TIP3    H141787   1.357   1.447   0.089 -1.2367 -0.4757  0.1603
 5864TIP3    H241788   1.432   1.577   0.106  0.2123 -1.2615 -0.0511
 5865TIP3   OH241789   1.795   3.251   1.167 -0.4903 -0.0991  0.0498
 5865TIP3    H141790   1.832   3.260   1.255 -1.5645 -0.2991  0.5426
 5865TIP3    H241791   1.871   3.239   1.110  0.2624  0.7302  0.8536
 5866TIP3   OH241792   1.826   1.580   1.625 -0.0656 -0.0759  0.3685
 5866TIP3    H141793   1.815   1.592   1.720 -1.0315  1.1533  0.1369
 5866TIP3    H241794   1.880   1.654   1.598 -1.3988  0.6779 -0.3041
 5867TIP3   OH241795   4.358   5.279   7.268 -0.6100 -0.4071  0.0158
 5867TIP3    H141796   4.284   5.238   7.223 -1.5433 -0.8862  1.8779
 5867TIP3    H241797   4.435   5.235   7.233 -1.0010  1.0199 -2.9776
 5868TIP3   OH241798   2.362   7.614   9.473  0.4197  0.6474  0.1077
 5868TIP3    H141799   2.370   7.676   9.546  0.9927  0.3986  0.2600
 5868TIP3    H241800   2.359   7.670   9.395 -0.4137  0.9260  0.3213
 5869TIP3   OH241801   6.143   6.253   0.690 -0.5012  0.0405 -0.0409
 5869TIP3    H141802   6.122   6.181   0.749 -0.2647  0.0617  0.0687
 5869TIP3    H241803   6.195   6.313   0.743  0.1734 -0.1970 -0.4179
 5870TIP3   OH241804   1.853   0.880   9.469 -0.8772  0.0983 -0.5778
 5870TIP3    H141805   1.855   0.845   9.380 -2.1176  0.9699 -0.9783
 5870TIP3    H241806   1.926   0.836   9.514  0.3217  0.2851 -2.2471
 5871TIP3   OH241807   2.672   0.327   0.468 -0.0121  0.4207  0.4086
 5871TIP3    H141808   2.699   0.235   0.468  1.5422  0.7974  2.4103
 5871TIP3    H241809   2.580   0.326   0.496 -0.0642 -0.5279  0.2156
 5872TIP3   OH241810   6.093   4.726   9.320 -0.3131 -0.3367  0.4978
 5872TIP3    H141811   6.158   4.775   9.269 -0.1802 -2.5575 -1.6579
 5872TIP3    H241812   6.033   4.793   9.353  1.5614  1.5275  0.3342
 5873TIP3   OH241813   4.595   2.440   0.557  0.4351 -0.0690 -0.2729
 5873TIP3    H141814   4.622   2.351   0.537 -1.4333 -0.8204  0.3816
 5873TIP3    H241815   4.625   2.492   0.482  2.3208 -1.0607 -0.2556
 5874TIP3   OH241816   1.754   7.044   8.968 -0.5177 -0.0333 -0.1919
 5874TIP3    H141817   1.782   7.103   9.038 -0.4457 -0.1144 -0.1535
 5874TIP3    H241818   1.769   7.093   8.887 -2.5709  0.9191 -0.0685
 5875TIP3   OH241819   2.298   3.034   8.450 -0.3425 -0.5343 -0.1366
 5875TIP3    H141820   2.216   3.071   8.482  0.5472 -0.9769  3.1030
 5875TIP3    H241821   2.280   2.940   8.444 -0.2246 -0.5803  0.1769
 5876TIP3   OH241822   2.549   1.496   9.488  0.4430  0.3651 -0.2692
 5876TIP3    H141823   2.555   1.445   9.407 -0.6412  0.1957 -0.2610
 5876TIP3    H241824   2.630   1.548   9.490  0.2240  0.8275 -1.7807
 5877TIP3   OH241825   3.394   4.135   2.096 -0.6138  0.3925  0.3187
 5877TIP3    H141826   3.359   4.171   2.177  0.0447  0.4777  0.5730
 5877TIP3    H241827   3.461   4.073   2.124 -2.7171 -2.2111 -0.0592
 5878TIP3   OH241828   7.603   7.275   8.506  0.4015  0.3722  0.2998
 5878TIP3    H141829   7.644   7.263   8.591  0.3596 -2.0385  0.0430
 5878TIP3    H241830   7.510   7.284   8.525  0.3726 -0.3423  0.4976
 5879TIP3   OH241831   1.946   4.589   0.761  0.0337 -0.1809 -0.2892
 5879TIP3    H141832   1.931   4.678   0.729  0.2269  0.5513  1.5394
 5879TIP3    H241833   2.029   4.563   0.721  0.2641  0.6861 -0.4021
 5880TIP3   OH241834   5.797   6.681   1.643  0.1439 -0.7957 -0.1580
 5880TIP3    H141835   5.766   6.716   1.727  1.3458  0.4819 -0.1971
 5880TIP3    H241836   5.853   6.607   1.668  0.5535 -0.3802  0.1867
 5881TIP3   OH241837   1.537   5.998   9.140  0.0736 -0.9086 -0.4596
 5881TIP3    H141838   1.592   6.035   9.071  0.0837  0.2710  0.1459
 5881TIP3    H241839   1.552   5.904   9.135  1.4040 -0.6976 -0.9554
 5882TIP3   OH241840   6.025   3.882   1.302  0.8977 -0.1249  0.6642
 5882TIP3    H141841   5.991   3.923   1.382  2.3578 -1.0751  1.8359
 5882TIP3    H241842   6.105   3.930   1.283  1.8905 -1.4660  1.2591
 5883TIP3   OH241843   4.451   4.147   0.099  0.2238  0.0397  0.0507
 5883TIP3    H141844   4.495   4.069   0.063 -0.1779 -0.3156  0.3238
 5883TIP3    H241845   4.502   4.220   0.064 -0.6515 -0.2324 -1.9672
 5884TIP3   OH241846   1.313   5.619   2.189  0.0084  0.0375 -0.4770
 5884TIP3    H141847   1.382   5.643   2.250  1.3133 -0.1254 -1.8435
 5884TIP3    H241848   1.234   5.615   2.243  0.3121  3.7982  0.5178
 5885TIP3   OH241849   5.621   7.566   9.741 -0.3504 -0.1745  0.2313
 5885TIP3    H141850   5.671   7.558   9.822 -0.1958  2.3654  0.4714
 5885TIP3    H241851   5.639   7.485   9.694  0.9137 -0.9868  1.9974
 5886TIP3   OH241852   6.350   2.926   8.726  0.6480 -0.0855 -0.0443
 5886TIP3    H141853   6.342   2.874   8.646  1.0465  1.3756 -1.0651
 5886TIP3    H241854   6.260   2.944   8.752  0.5137 -0.7623 -0.0097
 5887TIP3   OH241855   5.918   4.016   0.032 -0.2934  0.1443  0.2799
 5887TIP3    H141856   5.954   4.012   0.121  0.2751 -0.5785  0.0317
 5887TIP3    H241857   5.936   4.104   0.001  0.0563  0.2026  0.6559
 5888TIP3   OH241858   7.551   0.533   9.543 -0.2205  0.6310 -0.0412
 5888TIP3    H141859   7.557   0.616   9.496  0.1393  0.9176  0.5012
 5888TIP3    H241860   7.613   0.475   9.498  1.1537  1.3133  0.9016
 5889TIP3   OH241861   1.200   3.184   7.921  0.1199  0.2062  0.0441
 5889TIP3    H141862   1.260   3.253   7.950 -0.8102  1.5132 -0.9948
 5889TIP3    H241863   1.157   3.154   8.002 -0.6823  2.0659  0.3707
 5890TIP3   OH241864   2.380   7.636   8.435 -0.2684 -0.4293 -0.0877
 5890TIP3    H141865   2.445   7.566   8.427  0.4643 -0.0089  1.7705
 5890TIP3    H241866   2.429   7.717   8.424 -0.6138 -0.1322  0.5014
 5891TIP3   OH241867   7.507   5.880   9.373  0.0033  0.3832 -0.1560
 5891TIP3    H141868   7.488   5.820   9.302 -1.1953 -1.0006  1.2557
 5891TIP3    H241869   7.526   5.964   9.330  0.6922 -0.7323 -2.1237
 5892TIP3   OH241870   3.936   0.771   7.555  0.1575  0.0007  0.3500
 5892TIP3    H141871   4.007   0.804   7.500 -1.2280  1.4734 -0.6448
 5892TIP3    H241872   3.903   0.694   7.508  0.4705 -0.1155  0.3175
 5893TIP3   OH241873   0.471   1.631   2.104 -0.3054 -0.2632 -0.0082
 5893TIP3    H141874   0.397   1.653   2.048 -0.0417 -0.3748 -0.4022
 5893TIP3    H241875   0.530   1.707   2.096  0.0081 -0.5384 -0.3551
 5894TIP3   OH241876   5.727   0.806   0.948  0.2900  0.1249  0.0327
 5894TIP3    H141877   5.814   0.768   0.935  0.0733 -0.6924  0.8456
 5894TIP3    H241878   5.671   0.757   0.888  0.5826  1.5543 -1.4888
 5895TIP3   OH241879   5.010   0.920   8.172  0.0080 -0.4436 -0.1584
 5895TIP3    H141880   5.042   1.009   8.154 -0.7499  0.1091  1.0403
 5895TIP3    H241881   4.916   0.924   8.154 -0.2209 -0.6955  0.9073
 5896TIP3   OH241882   7.644   3.990   1.127 -0.1388 -0.3565 -0.2549
 5896TIP3    H141883   7.555   4.013   1.153 -0.3762 -0.2491 -1.1541
 5896TIP3    H241884   7.659   4.037   1.045  1.4178  1.1353  0.7837
 5897TIP3   OH241885   6.099   0.387   9.961  0.1054  0.7017  0.1069
 5897TIP3    H141886   6.080   0.478   9.937  0.3966  0.8201  0.3256
 5897TIP3    H241887   6.168   0.361   9.900  0.9588  1.0523  0.9012
 5898TIP3   OH241888   1.143   7.381   2.204  0.3248 -0.6226  0.0759
 5898TIP3    H141889   1.161   7.447   2.271  2.1326 -3.3157  2.4942
 5898TIP3    H241890   1.226   7.369   2.159 -0.4519 -0.0473 -1.5930
 5899TIP3   OH241891   4.997   6.042   9.269  0.4821  0.3499  0.5668
 5899TIP3    H141892   4.938   6.050   9.343  1.8672  1.9565  1.5780
 5899TIP3    H241893   5.076   6.002   9.306 -0.5576 -3.9796 -1.1921
 5900TIP3   OH241894   6.891   6.666   0.205 -0.4038  0.2319 -0.2619
 5900TIP3    H141895   6.833   6.656   0.130  0.2574 -0.7728 -0.6645
 5900TIP3    H241896   6.900   6.760   0.217 -1.1717  0.3905 -0.9292
 5901TIP3   OH241897   0.611   4.308   9.150 -0.4169  0.4165 -0.0141
 5901TIP3    H141898   0.686   4.332   9.096  0.3190 -0.4193  0.6033
 5901TIP3    H241899   0.630   4.348   9.235 -1.4712  1.5646 -0.2907
 5902TIP3   OH241900   2.874   4.390   1.889  0.4187 -0.1271 -0.0164
 5902TIP3    H141901   2.886   4.379   1.983 -0.2315 -1.9737 -0.1269
 5902TIP3    H241902   2.955   4.434   1.860  0.8714 -0.0533  1.3042
 5903TIP3   OH241903   1.851   2.242   1.576 -0.4275  0.1470  0.1228
 5903TIP3    H141904   1.925   2.244   1.515 -0.5646 -0.3420 -0.0651
 5903TIP3    H241905   1.851   2.329   1.617  0.2348  0.1561  0.1092
 5904TIP3   OH241906   0.388   0.843   8.549 -0.2246 -0.5745 -0.4841
 5904TIP3    H141907   0.475   0.881   8.543  0.2240 -1.1897  1.4389
 5904TIP3    H241908   0.391   0.766   8.493  0.9092 -1.2881  0.4951
 5905TIP3   OH241909   3.308   4.845   8.095 -0.2473  0.5687  0.4461
 5905TIP3    H141910   3.252   4.885   8.028 -0.1226 -2.9899 -2.1249
 5905TIP3    H241911   3.394   4.839   8.053 -0.0245 -1.2612  1.0851
 5906TIP3   OH241912   7.004   6.180   9.646 -0.7312 -0.0966 -0.0397
 5906TIP3    H141913   7.015   6.182   9.551 -2.4270  0.3791 -0.2506
 5906TIP3    H241914   7.094   6.187   9.680  0.0789 -2.0916 -1.5687
 5907TIP3   OH241915   6.481   1.137   9.094  0.0741  0.6318 -0.0606
 5907TIP3    H141916   6.509   1.202   9.159 -2.2170  1.4143  0.2333
 5907TIP3    H241917   6.424   1.186   9.034 -0.8852 -0.8697 -0.4367
 5908TIP3   OH241918   0.603   0.802   3.089 -0.2717  0.0422  0.3548
 5908TIP3    H141919   0.637   0.754   3.164  0.8018  0.3898  0.1147
 5908TIP3    H241920   0.681   0.839   3.048 -1.0547  2.1996  0.6802
 5909TIP3   OH241921   2.459   6.013   2.014 -0.1940 -0.7067 -0.4482
 5909TIP3    H141922   2.536   6.004   1.958 -1.8765  2.2418 -3.5403
 5909TIP3    H241923   2.410   5.931   2.001  0.9802 -1.3898 -0.7190
 5910TIP3   OH241924   2.273   0.142   3.216  0.1222  0.1791 -0.2275
 5910TIP3    H141925   2.340   0.176   3.157  0.0058 -0.1897 -0.5753
 5910TIP3    H241926   2.214   0.217   3.231 -0.1506  0.1321 -1.0147
 5911TIP3   OH241927   1.541   7.108   7.801  0.3622 -0.6080  0.0843
 5911TIP3    H141928   1.601   7.131   7.872 -0.6767  0.4519  0.6452
 5911TIP3    H241929   1.590   7.045   7.748  1.6443 -0.4141  0.9952
 5912TIP3   OH241930   3.753   7.145   2.194 -0.1262  0.6138  0.7601
 5912TIP3    H141931   3.747   7.061   2.240 -1.2264  0.9523  1.2695
 5912TIP3    H241932   3.706   7.130   2.111  1.5962  0.0933 -0.1740
 5913TIP3   OH241933   1.167   0.873   9.500 -0.0709  0.3367 -0.4683
 5913TIP3    H141934   1.142   0.784   9.527  1.2651  0.3071  0.7978
 5913TIP3    H241935   1.123   0.930   9.563 -0.6381  0.5652 -1.0620
 5914TIP3   OH241936   0.095   2.018   8.826 -0.0342  0.3833  0.5714
 5914TIP3    H141937   0.080   2.036   8.733 -1.5748 -2.1042  0.2285
 5914TIP3    H241938   0.188   1.995   8.831  0.1600  0.9338 -0.2742
 5915TIP3   OH241939   6.460   6.376   9.937  0.6787  0.0673 -0.0947
 5915TIP3    H141940   6.533   6.322   9.966  0.3956 -0.3434 -0.1359
 5915TIP3    H241941   6.471   6.381   9.842  1.1014  0.6708 -0.0192
 5916TIP3   OH241942   7.584   0.984   0.425 -0.8478 -0.3443 -0.5584
 5916TIP3    H141943   7.504   0.939   0.401 -0.5091 -1.6566  0.6515
 5916TIP3    H241944   7.648   0.959   0.358 -1.6207  1.4594 -2.0774
 5917TIP3   OH241945   7.239   0.107   9.092 -0.0874  0.5490  0.0881
 5917TIP3    H141946   7.269   0.021   9.121 -0.5004 -0.3868 -2.0151
 5917TIP3    H241947   7.309   0.139   9.035 -0.4389  1.0811 -0.0581
 5918TIP3   OH241948   6.613   3.572   0.276  0.0196 -0.1502  0.0009
 5918TIP3    H141949   6.663   3.647   0.308 -1.9600  1.0657  0.4785
 5918TIP3    H241950   6.553   3.552   0.348 -0.4498 -1.2632 -0.6779
 5919TIP3   OH241951   4.273   5.853   1.209  0.4827  0.3173 -0.5555
 5919TIP3    H141952   4.275   5.948   1.215 -0.4649  0.2827  0.9929
 5919TIP3    H241953   4.278   5.823   1.300  0.2091 -1.0870 -0.9803
 5920TIP3   OH241954   0.242   2.804   1.153 -0.0219 -0.2041  0.2049
 5920TIP3    H141955   0.236   2.891   1.193 -1.6094 -0.3371  0.3477
 5920TIP3    H241956   0.152   2.772   1.154  0.7153 -2.4230  1.3712
 5921TIP3   OH241957   4.525   6.058   7.513  0.3861  0.0652 -0.2038
 5921TIP3    H141958   4.548   5.965   7.510  0.5197  0.0153  1.5581
 5921TIP3    H241959   4.474   6.072   7.433  2.6447 -0.8700 -1.9279
 5922TIP3   OH241960   5.268   7.416   1.942  0.3259 -0.2606  0.2563
 5922TIP3    H141961   5.208   7.426   2.015  1.9272 -1.5527  1.8526
 5922TIP3    H241962   5.300   7.326   1.950  0.1791 -0.6146 -2.3777
 5923TIP3   OH241963   1.309   4.998   0.758  0.0239  0.2084  0.4044
 5923TIP3    H141964   1.248   4.928   0.735 -2.9514  2.5285  0.6567
 5923TIP3    H241965   1.359   5.014   0.678  0.5241 -1.8626  0.2483
 5924TIP3   OH241966   5.506   4.749   8.085 -0.1161  0.5573  0.8541
 5924TIP3    H141967   5.560   4.765   8.162  0.3122  1.7189  0.3317
 5924TIP3    H241968   5.497   4.835   8.043  0.2247 -0.1513 -0.7550
 5925TIP3   OH241969   6.065   4.950   8.706  0.0781 -0.0860 -0.3249
 5925TIP3    H141970   6.028   4.869   8.739 -0.3969  0.5591  0.7810
 5925TIP3    H241971   6.132   4.922   8.644 -1.5102 -1.2882 -1.5827
 5926TIP3   OH241972   3.667   0.863   9.023  0.1242 -0.0108 -0.2215
 5926TIP3    H141973   3.721   0.904   9.091 -1.0576 -0.6577  1.1548
 5926TIP3    H241974   3.640   0.780   9.061 -1.8605  0.2979 -0.8465
 5927TIP3   OH241975   4.327   5.212   0.556  0.0276  0.1764 -0.1268
 5927TIP3    H141976   4.411   5.254   0.535  0.4438 -1.5462 -2.1861
 5927TIP3    H241977   4.348   5.119   0.566 -1.7353 -0.4232 -1.5591
 5928TIP3   OH241978   5.857   2.498   0.250  0.0822 -0.1115 -0.4487
 5928TIP3    H141979   5.902   2.557   0.310 -0.1341  1.4879 -1.7750
 5928TIP3    H241980   5.927   2.453   0.202  0.3069  0.9811 -1.1918
 5929TIP3   OH241981   7.261   0.927   1.612  0.2213  0.4085  0.2369
 5929TIP3    H141982   7.173   0.902   1.584  0.2834  1.3020 -0.8505
 5929TIP3    H241983   7.268   1.020   1.589  1.8862  0.0455 -0.8977
 5930TIP3   OH241984   1.946   0.495   9.415  0.0374  0.3356  0.4256
 5930TIP3    H141985   1.900   0.466   9.493  0.7956 -0.1593  0.6995
 5930TIP3    H241986   1.925   0.430   9.348 -1.5922  1.4065 -0.1552
 5931TIP3   OH241987   0.927   0.824   7.566 -0.5674 -0.0435 -0.1628
 5931TIP3    H141988   1.021   0.825   7.547 -0.5275  0.4999  0.0258
 5931TIP3    H241989   0.922   0.842   7.660 -0.7970 -1.7702  0.1737
 5932TIP3   OH241990   4.499   5.817   2.131  0.4497 -0.0850  0.7586
 5932TIP3    H141991   4.487   5.755   2.059 -0.3922  0.8187  0.0878
 5932TIP3    H241992   4.446   5.783   2.202 -0.9231  0.4154  0.0203
 5933TIP3   OH241993   1.849   5.205   8.355  0.5026  0.0262 -0.1088
 5933TIP3    H141994   1.782   5.215   8.423 -0.5156 -0.9170 -0.9330
 5933TIP3    H241995   1.808   5.242   8.276  0.6497 -1.2441 -0.8037
 5934TIP3   OH241996   4.229   5.650   7.327 -0.0916  0.2961  0.6161
 5934TIP3    H141997   4.279   5.625   7.249 -0.8184 -1.9054  0.7905
 5934TIP3    H241998   4.149   5.689   7.293  0.9525  2.2669  0.3221
 5935TIP3   OH241999   7.171   3.474   8.200  0.4040  0.3146 -0.2911
 5935TIP3    H142000   7.212   3.391   8.224  0.0954 -0.0430 -0.9724
 5935TIP3    H242001   7.159   3.469   8.105 -2.2159 -0.0938 -0.0301
 5936TIP3   OH242002   5.301   0.318   0.220 -0.1375  0.1663 -0.7951
 5936TIP3    H142003   5.329   0.333   0.311 -0.5508 -0.6820 -0.5237
 5936TIP3    H242004   5.337   0.393   0.172 -0.9309  1.2814  0.2685
 5937TIP3   OH242005   3.187   2.234   8.071 -0.0300 -0.0268  0.4846
 5937TIP3    H142006   3.280   2.237   8.093  0.2811 -0.9609 -0.6039
 5937TIP3    H242007   3.162   2.143   8.088 -0.2642 -0.2657 -1.0461
 5938TIP3   OH242008   3.577   5.144   7.575 -0.0906  0.1030  0.0686
 5938TIP3    H142009   3.579   5.049   7.576 -0.7667  0.0920  0.5383
 5938TIP3    H242010   3.486   5.167   7.559  0.3304  0.6775 -1.7958
 5939TIP3   OH242011   0.733   3.750   8.458 -0.8848 -0.1077 -0.2629
 5939TIP3    H142012   0.757   3.800   8.379 -1.1864 -2.8912 -2.2792
 5939TIP3    H242013   0.702   3.816   8.520  2.3447  2.5930 -1.2217
 5940TIP3   OH242014   4.871   3.861   1.531 -0.3697  0.2213  0.2156
 5940TIP3    H142015   4.790   3.901   1.565 -0.1661 -0.1349  1.1520
 5940TIP3    H242016   4.850   3.839   1.440 -1.3372  0.1198  0.4456
 5941TIP3   OH242017   6.229   6.554   9.718 -0.4605  0.3708  0.1677
 5941TIP3    H142018   6.291   6.485   9.697  0.0099  0.4234  1.3171
 5941TIP3    H242019   6.231   6.560   9.814 -1.1053  1.4115  0.1306
 5942TIP3   OH242020   5.451   6.525   9.644 -0.2117 -0.5144  0.4629
 5942TIP3    H142021   5.418   6.599   9.696  1.0703 -1.2868  2.5064
 5942TIP3    H242022   5.373   6.473   9.625 -0.8201  0.1434  1.0611
 5943TIP3   OH242023   4.434   0.941   9.466 -0.7492 -0.0692 -0.8066
 5943TIP3    H142024   4.442   0.891   9.547 -0.9581 -0.0369 -0.7679
 5943TIP3    H242025   4.358   0.997   9.479  0.5162  1.5875 -0.1292
 5944TIP3   OH242026   2.598   1.625   9.147  0.3445 -0.0938 -0.1247
 5944TIP3    H142027   2.519   1.610   9.095  0.8554  0.6626 -1.1682
 5944TIP3    H242028   2.622   1.539   9.181 -0.9993 -0.3056  0.3188
 5945TIP3   OH242029   0.707   0.259   0.463  0.2485 -0.2343  0.2045
 5945TIP3    H142030   0.799   0.232   0.465  0.0127 -1.0440  0.4978
 5945TIP3    H242031   0.679   0.243   0.373 -0.1780 -2.0330  0.6179
 5946TIP3   OH242032   7.252   5.483   8.149  0.5049  0.9105  0.5839
 5946TIP3    H142033   7.189   5.530   8.203  0.2151  1.3966 -0.1616
 5946TIP3    H242034   7.201   5.447   8.077  0.6093 -1.1117  1.4514
 5947TIP3   OH242035   2.637   4.311   1.217 -0.1036 -0.3589  0.5865
 5947TIP3    H142036   2.668   4.285   1.130  0.7698  2.0362  0.0973
 5947TIP3    H242037   2.585   4.390   1.200 -1.0041 -0.5780  2.1382
 5948TIP3   OH242038   6.182   3.937   0.921 -0.1739 -1.2405  0.0997
 5948TIP3    H142039   6.234   3.983   0.986  0.9211 -0.2091 -1.4616
 5948TIP3    H242040   6.242   3.873   0.882 -0.2750 -0.5881 -1.1618
 5949TIP3   OH242041   1.263   4.003   2.660  0.1046  0.0895 -0.0995
 5949TIP3    H142042   1.325   3.957   2.717  0.4215  1.1282  0.4176
 5949TIP3    H242043   1.177   3.986   2.700  0.0385 -1.2584 -0.7538
 5950TIP3   OH242044   7.406   6.072   8.544  0.0636  0.6020 -0.3032
 5950TIP3    H142045   7.417   5.981   8.572  0.2019  0.7847  0.2342
 5950TIP3    H242046   7.377   6.065   8.453 -1.0554 -0.0151  0.0741
 5951TIP3   OH242047   4.246   6.087   9.107  0.3387  0.4514 -0.2734
 5951TIP3    H142048   4.331   6.104   9.066  0.9374  0.8840  1.0807
 5951TIP3    H242049   4.249   5.994   9.128 -0.0888  0.1597 -1.4247
 5952TIP3   OH242050   4.270   1.920   7.526  0.3673  0.2152  0.2054
 5952TIP3    H142051   4.221   1.899   7.446  0.4644 -2.2752  0.7083
 5952TIP3    H242052   4.335   1.984   7.498 -0.1053 -0.0123 -1.5356
 5953TIP3   OH242053   4.531   4.833   9.329 -0.0361  0.2458 -0.3583
 5953TIP3    H142054   4.445   4.797   9.312 -0.8298  1.2352  1.2932
 5953TIP3    H242055   4.521   4.927   9.314  0.5808  0.4473  0.4064
 5954TIP3   OH242056   2.433   6.928   9.446 -0.2615 -0.1685  1.1619
 5954TIP3    H142057   2.373   6.855   9.463  1.8846 -2.3012  0.1727
 5954TIP3    H242058   2.416   6.952   9.355  0.2964 -0.7090  0.9110
 5955TIP3   OH242059   7.053   2.243   1.745 -0.4453  0.2747 -0.1075
 5955TIP3    H142060   7.062   2.326   1.791 -1.1284  1.6131 -2.2440
 5955TIP3    H242061   7.025   2.181   1.812 -0.5938  1.9245  1.4128
 5956TIP3   OH242062   7.197   6.143   1.253 -0.5798  0.3657 -0.1433
 5956TIP3    H142063   7.131   6.088   1.211  1.5793 -0.7145 -2.4599
 5956TIP3    H242064   7.265   6.081   1.280  0.8771  1.6579 -0.7041
 5957TIP3   OH242065   2.512   1.774   7.651  0.1571  0.2776  0.0970
 5957TIP3    H142066   2.534   1.689   7.688  1.7824  0.7677  0.3241
 5957TIP3    H242067   2.420   1.788   7.674 -0.8077 -2.3066 -1.6913
 5958TIP3   OH242068   6.319   5.949   8.186 -0.1542  0.0064  0.0943
 5958TIP3    H142069   6.363   6.016   8.238  1.6441 -0.3163 -0.9184
 5958TIP3    H242070   6.277   5.892   8.250 -0.4035  1.2043  1.0323
 5959TIP3   OH242071   5.150   4.151   8.298 -0.6448  0.2611  0.1847
 5959TIP3    H142072   5.105   4.215   8.244 -0.5415 -0.4791 -0.8182
 5959TIP3    H242073   5.144   4.069   8.248  0.8966 -0.0861  0.5234
 5960TIP3   OH242074   6.654   0.885   9.190 -0.0788 -0.6003  0.2350
 5960TIP3    H142075   6.648   0.965   9.139 -0.5352 -0.1734  0.9501
 5960TIP3    H242076   6.575   0.884   9.244 -0.0788 -1.5295  0.2357
 5961TIP3   OH242077   1.431   6.252   9.143  0.1833 -0.2601 -0.4240
 5961TIP3    H142078   1.345   6.273   9.178  0.2051  0.0982 -0.5778
 5961TIP3    H242079   1.441   6.158   9.158 -0.0688 -0.2314 -0.0428
 5962TIP3   OH242080   1.691   6.863   9.853  0.0835 -0.2970  0.4205
 5962TIP3    H142081   1.766   6.862   9.794 -0.3431 -0.6897 -0.1165
 5962TIP3    H242082   1.689   6.952   9.886  0.0046  0.0800 -0.5704
 5963TIP3   OH242083   5.533   6.821   1.099 -0.1277 -0.0894 -0.1978
 5963TIP3    H142084   5.492   6.746   1.057 -1.5066  0.9370 -0.7441
 5963TIP3    H242085   5.475   6.843   1.172  0.3005  0.4070  0.0019
 5964TIP3   OH242086   4.549   6.292   0.182 -0.1791  0.5268  0.1789
 5964TIP3    H142087   4.480   6.340   0.227  0.5428  2.2214 -0.4331
 5964TIP3    H242088   4.552   6.330   0.095 -0.2361 -1.3582 -0.6867
 5965TIP3   OH242089   5.061   4.209   0.768 -0.3183 -0.1742 -0.1553
 5965TIP3    H142090   5.130   4.189   0.704 -0.9093  0.4714 -1.0209
 5965TIP3    H242091   5.019   4.288   0.734 -1.4996 -0.5580  0.3482
 5966TIP3   OH242092   0.825   3.803   1.544 -0.1055  0.2704  1.1137
 5966TIP3    H142093   0.779   3.823   1.626 -0.5287  0.1506  0.9117
 5966TIP3    H242094   0.868   3.885   1.520  0.3136  0.2052  1.6409
 5967TIP3   OH242095   7.349   1.118   8.244  0.0485  0.0279 -0.0801
 5967TIP3    H142096   7.439   1.093   8.263 -0.4336 -1.8022 -0.0409
 5967TIP3    H242097   7.304   1.036   8.224 -0.9359  1.1469 -3.1220
 5968TIP3   OH242098   0.741   0.250   1.853 -0.4870 -0.0991  0.7215
 5968TIP3    H142099   0.647   0.268   1.850 -0.5927 -0.3290  2.0206
 5968TIP3    H242100   0.780   0.314   1.792 -1.4787 -0.0424  0.1310
 5969TIP3   OH242101   4.693   1.981   8.506  0.5202  0.9011  0.5250
 5969TIP3    H142102   4.614   1.973   8.453  0.8486 -0.7718  0.2183
 5969TIP3    H242103   4.662   2.016   8.589 -0.3647  1.3660  0.0165
 5970TIP3   OH242104   5.322   0.111   0.759  0.2386 -0.2833 -0.2974
 5970TIP3    H142105   5.392   0.049   0.779  0.2638  0.1496  0.9941
 5970TIP3    H242106   5.344   0.143   0.671 -0.8253 -3.5230 -1.9279
 5971TIP3   OH242107   4.478   2.131   7.722 -0.0608 -0.4677  0.7727
 5971TIP3    H142108   4.509   2.188   7.793 -0.4195  0.2317  0.3841
 5971TIP3    H242109   4.389   2.108   7.748  0.7005 -2.3922  1.8406
 5972TIP3   OH242110   4.097   0.810   0.392  0.8527 -0.2592  0.2662
 5972TIP3    H142111   4.169   0.770   0.344  1.4551  0.6774  0.3752
 5972TIP3    H242112   4.054   0.868   0.329 -0.4329 -1.5368 -0.0855
 5973TIP3   OH242113   3.316   5.122   2.228 -0.6366  0.2691 -0.2262
 5973TIP3    H142114   3.350   5.207   2.257  1.6520 -0.4995 -0.3948
 5973TIP3    H242115   3.291   5.077   2.308 -1.9597  1.1051 -0.1427
 5974TIP3   OH242116   7.532   1.530   0.330 -0.2965  0.5897 -0.0648
 5974TIP3    H142117   7.592   1.561   0.262 -0.8880  1.6569 -0.1292
 5974TIP3    H242118   7.483   1.609   0.355 -0.3497  0.1329  1.3211
 5975TIP3   OH242119   0.562   6.832   7.653  0.4185  0.1189 -0.5061
 5975TIP3    H142120   0.524   6.763   7.708  0.4408  0.9481  0.6041
 5975TIP3    H242121   0.598   6.787   7.577  1.5012 -1.2320  0.7555
 5976TIP3   OH242122   2.017   1.268   9.912  0.2451  0.8058 -0.3389
 5976TIP3    H142123   2.110   1.246   9.905  0.8071  2.8795  0.0835
 5976TIP3    H242124   1.983   1.255   9.823  1.2559  1.3600 -0.8176
 5977TIP3   OH242125   5.274   5.929   0.685 -0.1290 -0.3147  1.0646
 5977TIP3    H142126   5.245   5.942   0.594 -4.2593  0.7772  2.3164
 5977TIP3    H242127   5.316   6.012   0.709  0.0492 -0.2294  0.4739
 5978TIP3   OH242128   4.078   5.271   0.014  0.1343 -0.6315  0.3524
 5978TIP3    H142129   4.133   5.304  -0.057 -1.3664 -1.0282 -1.0524
 5978TIP3    H242130   4.091   5.333   0.085 -0.5910  1.5255 -1.2919
 5979TIP3   OH242131   2.787   2.945   8.374 -0.4245  0.0789  0.2741
 5979TIP3    H142132   2.733   3.024   8.369  0.1923  0.4323 -2.3622
 5979TIP3    H242133   2.723   2.874   8.377 -1.2005  0.4987 -2.5598
 5980TIP3   OH242134   3.006   6.484   8.101  0.5233 -0.3647 -0.1709
 5980TIP3    H142135   2.919   6.519   8.121  0.6291  0.4519 -1.0587
 5980TIP3    H242136   3.003   6.467   8.007  1.5884  0.4458 -0.3575
 5981TIP3   OH242137   1.635   1.475   1.446 -0.1686 -0.6507 -0.2988
 5981TIP3    H142138   1.704   1.526   1.487  0.3711 -0.1339 -1.8053
 5981TIP3    H242139   1.616   1.405   1.509  0.8040 -0.0437  0.6943
 5982TIP3   OH242140   5.923   2.164   1.903 -0.3106  0.3264 -0.3075
 5982TIP3    H142141   5.961   2.088   1.858 -0.2541  0.0112  0.2577
 5982TIP3    H242142   5.918   2.232   1.836 -0.4588 -0.2114 -0.8477
 5983TIP3   OH242143   0.205   7.192   1.000 -0.0426  0.6425  0.3153
 5983TIP3    H142144   0.287   7.169   1.043 -0.6942 -1.5457  0.5154
 5983TIP3    H242145   0.191   7.122   0.935 -0.3015  2.5468 -1.7931
 5984TIP3   OH242146   4.551   3.332   0.731 -0.1193  0.4388 -0.0378
 5984TIP3    H142147   4.593   3.373   0.807 -0.4720  0.6580  0.0438
 5984TIP3    H242148   4.623   3.308   0.674  0.1720 -0.0063  0.5012
 5985TIP3   OH242149   5.475   6.456   8.115  0.2207 -0.6629 -0.0804
 5985TIP3    H142150   5.546   6.485   8.057  0.3837 -0.6324  0.1328
 5985TIP3    H242151   5.489   6.362   8.124 -0.6127 -0.9248 -1.1901
 5986TIP3   OH242152   5.104   6.218   0.861 -0.5075 -0.0774  0.0398
 5986TIP3    H142153   5.065   6.142   0.819 -2.0942  0.6126  0.1730
 5986TIP3    H242154   5.131   6.275   0.789 -1.0730  0.0608 -0.0708
 5987TIP3   OH242155   6.479   4.322   8.055 -0.2660  0.6000  0.9434
 5987TIP3    H142156   6.574   4.330   8.048 -0.1116 -1.1324  0.7518
 5987TIP3    H242157   6.453   4.282   7.972 -0.9893 -0.2038  1.5446
 5988TIP3   OH242158   1.151   0.638   8.511  0.3108 -0.0019  0.1693
 5988TIP3    H142159   1.096   0.560   8.502 -0.0722  0.4498 -1.9768
 5988TIP3    H242160   1.166   0.646   8.605 -1.6760 -1.2592  0.6538
 5989TIP3   OH242161   4.797   0.398   8.846  0.8049 -0.2561  0.2261
 5989TIP3    H142162   4.878   0.424   8.890  1.4407 -0.4085 -0.8121
 5989TIP3    H242163   4.766   0.478   8.804 -0.0809  0.0130  1.3335
 5990TIP3   OH242164   1.318   7.359   2.533 -0.0633 -0.4366  0.5020
 5990TIP3    H142165   1.390   7.318   2.486  0.5939 -0.0030  1.1135
 5990TIP3    H242166   1.279   7.288   2.584  1.5994 -0.2037  2.2205
 5991TIP3   OH242167   5.428   3.033   2.333 -0.1976 -0.2450 -0.5072
 5991TIP3    H142168   5.392   2.976   2.265 -1.7686 -0.6046  0.5710
 5991TIP3    H242169   5.352   3.056   2.387  0.5909  1.9509 -0.2405
 5992TIP3   OH242170   5.068   5.601   0.161 -0.3800  0.1708  0.1507
 5992TIP3    H142171   5.078   5.522   0.107  1.9787  0.5362 -0.0833
 5992TIP3    H242172   5.060   5.672   0.098  0.4771  0.3973  0.2804
 5993TIP3   OH242173   6.928   0.544   9.806 -0.2347  0.4687  0.6155
 5993TIP3    H142174   6.923   0.492   9.726 -2.7168  0.8470  0.4452
 5993TIP3    H242175   6.851   0.517   9.857 -0.6013  2.6457  1.3336
 5994TIP3   OH242176   3.770   0.321   9.568 -0.0470  0.1799 -0.0370
 5994TIP3    H142177   3.737   0.376   9.639  0.0858  0.2622 -0.0395
 5994TIP3    H242178   3.837   0.375   9.525  0.7928 -0.3682  0.5734
 5995TIP3   OH242179   7.107   4.570   1.423 -0.3100 -0.1053  0.3076
 5995TIP3    H142180   7.058   4.619   1.490  1.9111 -0.2817  2.1760
 5995TIP3    H242181   7.123   4.484   1.463 -1.9451 -1.5671 -1.9141
 5996TIP3   OH242182   5.350   4.490   8.974  0.5196  0.1484  0.2216
 5996TIP3    H142183   5.417   4.498   9.043  0.5639  0.9754  0.1023
 5996TIP3    H242184   5.270   4.521   9.016  0.5938  0.8769 -0.1534
 5997TIP3   OH242185   2.404   6.502   0.964  0.0549 -0.0159 -0.4735
 5997TIP3    H142186   2.325   6.452   0.942 -0.0695  0.2796 -0.7026
 5997TIP3    H242187   2.371   6.581   1.007  0.2378 -0.0011 -0.3593
 5998TIP3   OH242188   2.263   0.446   9.289 -0.0904 -0.2464 -0.3312
 5998TIP3    H142189   2.192   0.510   9.286 -0.6238 -0.7712  0.8056
 5998TIP3    H242190   2.226   0.367   9.250 -0.6470 -0.9764  1.5738
 5999TIP3   OH242191   5.083   0.740   0.086  0.3378 -0.0981  0.2430
 5999TIP3    H142192   5.106   0.791   0.163  2.5924  0.3110 -0.6049
 5999TIP3    H242193   5.018   0.677   0.117 -0.7511  1.7092  1.8397
 6000TIP3   OH242194   0.958   0.975   0.048 -0.2320  0.5272 -0.0126
 6000TIP3    H142195   1.016   0.986   0.124  0.2376 -2.5564  0.2435
 6000TIP3    H242196   0.874   1.012   0.076  0.4663  1.2391  1.2382
 6001TIP3   OH242197   6.637   2.277   9.967 -0.0543  0.1211 -0.2771
 6001TIP3    H142198   6.560   2.227   9.941  0.4474 -1.0110  0.3561
 6001TIP3    H242199   6.707   2.246   9.909  0.3319 -0.1585  0.3279
 6002TIP3   OH242200   5.999   6.855   9.658 -0.2205 -0.4251 -0.9297
 6002TIP3    H142201   5.939   6.795   9.702  0.7761 -2.3103 -2.0262
 6002TIP3    H242202   6.084   6.812   9.663  1.4718  2.7170  1.7093
 6003TIP3   OH242203   1.076   4.246   1.585 -0.1991 -0.3774  0.2688
 6003TIP3    H142204   1.143   4.231   1.651  1.2668  0.5429 -0.9120
 6003TIP3    H242205   1.087   4.338   1.561 -0.1995 -0.8336 -1.6960
 6004TIP3   OH242206   6.680   3.441   8.373  0.0013  0.5792  0.1742
 6004TIP3    H142207   6.712   3.477   8.456  0.7584 -0.1062  0.1934
 6004TIP3    H242208   6.729   3.488   8.306 -0.2075  0.7387  0.1319
 6005TIP3   OH242209   4.134   6.301   8.136 -0.3514 -0.2569 -0.0830
 6005TIP3    H142210   4.116   6.390   8.105 -0.2614 -0.1757  0.0969
 6005TIP3    H242211   4.051   6.255   8.126 -0.5993  0.0488  0.5246
 6006TIP3   OH242212   6.467   1.463   8.505 -0.1036 -0.0557 -0.1579
 6006TIP3    H142213   6.382   1.423   8.519 -0.5659  1.4492  1.7541
 6006TIP3    H242214   6.519   1.436   8.581  0.5826  0.3602 -0.4721
 6007TIP3   OH242215   7.609   0.962   8.710 -0.0333 -0.5873 -0.0978
 6007TIP3    H142216   7.652   1.046   8.726 -0.7855 -0.2994  0.4704
 6007TIP3    H242217   7.677   0.908   8.670  0.5006  0.2479 -0.3627
 6008TIP3   OH242218   4.169   5.725   9.036 -0.6220 -0.0130 -0.4557
 6008TIP3    H142219   4.227   5.763   9.102 -1.0327 -0.3373  0.1020
 6008TIP3    H242220   4.081   5.754   9.061 -0.7862 -0.1670 -0.8378
 6009TIP3   OH242221   7.033   2.891   0.723  0.4939  0.0986  0.0009
 6009TIP3    H142222   7.008   2.848   0.805  0.6735 -0.2537 -0.1272
 6009TIP3    H242223   7.072   2.974   0.750  0.8430 -0.1558  0.2895
 6010TIP3   OH242224   0.982   1.235   7.030 -0.0857 -0.0117  0.0932
 6010TIP3    H142225   0.940   1.149   7.029 -1.6073  0.6978 -0.3930
 6010TIP3    H242226   1.069   1.220   6.991 -0.7900 -1.1110 -1.1278
 6011TIP3   OH242227   5.535   5.318   9.785  0.5621  0.2457  0.1659
 6011TIP3    H142228   5.480   5.304   9.708  0.8131  2.5374 -0.5040
 6011TIP3    H242229   5.477   5.362   9.848  1.0983  1.0106  0.1461
 6012TIP3   OH242230   5.878   1.260   1.476 -0.1128 -0.0549 -0.2289
 6012TIP3    H142231   5.808   1.300   1.424 -0.6369 -2.1981 -1.3184
 6012TIP3    H242232   5.834   1.194   1.528  1.1494 -2.4961 -2.0216
 6013TIP3   OH242233   5.051   4.301   0.030 -0.1930  0.0243  0.0144
 6013TIP3    H142234   5.124   4.361   0.048 -0.4872  0.7312 -1.0412
 6013TIP3    H242235   5.031   4.262   0.115 -0.7696  2.3042  1.0193
 6014TIP3   OH242236   3.558   0.628   1.220 -0.0723 -0.4783 -0.1307
 6014TIP3    H142237   3.498   0.664   1.285  0.8974 -0.8575  1.0046
 6014TIP3    H242238   3.548   0.533   1.228 -1.1040 -0.5468 -1.6752
 6015TIP3   OH242239   0.002   1.225   2.283  0.2182  0.1733  0.7291
 6015TIP3    H142240  -0.072   1.282   2.263 -0.8162 -1.9129 -1.9553
 6015TIP3    H242241  -0.037   1.144   2.314  1.2502 -1.2838 -1.5579
 6016TIP3   OH242242   2.121   2.319   8.156 -0.0400 -0.4506  0.1254
 6016TIP3    H142243   2.053   2.282   8.211  1.3136 -1.1583  1.4031
 6016TIP3    H242244   2.163   2.244   8.115  1.9241 -0.3794  1.7818
 6017TIP3   OH242245   4.164   3.492   8.748 -0.3032  0.2037 -0.9402
 6017TIP3    H142246   4.084   3.485   8.799 -0.3533 -0.1953 -1.0728
 6017TIP3    H242247   4.225   3.538   8.806  0.0610 -1.3689 -0.0046
 6018TIP3   OH242248   6.038   1.459   2.141 -0.0125 -0.3400 -0.3414
 6018TIP3    H142249   6.019   1.466   2.234 -0.9418 -0.5392 -0.5093
 6018TIP3    H242250   5.961   1.417   2.103  0.0295  0.4150 -1.3184
 6019TIP3   OH242251   6.827   0.891   8.496  0.1842 -0.2812  0.4059
 6019TIP3    H142252   6.740   0.875   8.533 -0.0296 -1.9702 -0.7511
 6019TIP3    H242253   6.864   0.804   8.482  2.0976  0.4001  0.8846
 6020TIP3   OH242254   0.193   2.414   1.918  0.4549 -0.6785  0.0532
 6020TIP3    H142255   0.187   2.335   1.972 -0.8431 -0.0472  0.8910
 6020TIP3    H242256   0.148   2.390   1.837  0.8098 -1.0662 -0.0328
 6021TIP3   OH242257   3.303   0.773   1.406 -0.3859  0.0107 -0.5288
 6021TIP3    H142258   3.340   0.858   1.380  0.7201 -0.2551  0.0832
 6021TIP3    H242259   3.312   0.772   1.502 -2.7152  0.2316 -0.2578
 6022TIP3   OH242260   7.333   6.272   9.441  0.9498 -0.1913 -0.4061
 6022TIP3    H142261   7.398   6.338   9.467  1.3362 -0.9337  0.5322
 6022TIP3    H242262   7.312   6.225   9.521 -0.9436  0.1683 -0.6326
 6023TIP3   OH242263   1.854   3.425   7.353 -0.0124  0.3534  0.2264
 6023TIP3    H142264   1.935   3.453   7.311  3.0095 -0.3169  4.8202
 6023TIP3    H242265   1.849   3.331   7.337 -0.5348  0.5659 -0.9364
 6024TIP3   OH242266   3.692   5.314   7.955  0.3452 -0.4555 -0.2319
 6024TIP3    H142267   3.609   5.298   7.911  0.2031 -0.1731 -0.0714
 6024TIP3    H242268   3.671   5.306   8.049  0.4898 -0.3519 -0.1902
 6025TIP3   OH242269   0.974   7.124   7.274 -0.5880  0.6529 -0.2964
 6025TIP3    H142270   1.028   7.150   7.199 -0.8353  1.6701 -0.1368
 6025TIP3    H242271   1.016   7.166   7.349 -1.0989  0.7348 -0.0500
 6026TIP3   OH242272   5.071   3.355   8.943  0.5208 -0.2902  0.1140
 6026TIP3    H142273   5.076   3.450   8.932  0.8867 -0.2015  0.9688
 6026TIP3    H242274   5.138   3.320   8.884 -0.7879 -0.1445 -1.5376
 6027TIP3   OH242275   6.765   0.144   9.967  0.0877  0.2924 -0.9046
 6027TIP3    H142276   6.803   0.105  10.046 -1.0871 -1.4547 -1.1485
 6027TIP3    H242277   6.837   0.194   9.928  0.4427  2.1434  1.7991
 6028TIP3   OH242278   4.443   1.823   1.456 -0.0150  0.9394 -0.3943
 6028TIP3    H142279   4.390   1.868   1.390  0.7350 -0.5190 -2.0586
 6028TIP3    H242280   4.514   1.783   1.407  1.3666  0.9268  1.4971
 6029TIP3   OH242281   3.548   3.683   9.067  0.5897 -0.2474  0.2300
 6029TIP3    H142282   3.534   3.597   9.027 -3.0722  0.5032 -0.4244
 6029TIP3    H242283   3.479   3.690   9.133  1.5938  1.7118  1.1535
 6030TIP3   OH242284   3.961   2.897   0.098  0.3153  0.1616 -0.3687
 6030TIP3    H142285   3.965   2.838   0.174 -1.2623  0.8037  0.2470
 6030TIP3    H242286   3.911   2.973   0.129  0.9554  1.1208 -1.6175
 6031TIP3   OH242287   4.340   6.712   9.659 -1.1092 -0.2207  0.4804
 6031TIP3    H142288   4.361   6.756   9.576  2.2431 -0.4846  1.0419
 6031TIP3    H242289   4.244   6.704   9.658 -1.3118  0.8972 -2.7653
 6032TIP3   OH242290   5.121   6.496   0.307 -0.1218  0.1766  0.5052
 6032TIP3    H142291   5.144   6.587   0.326 -1.6147  0.4473  1.1737
 6032TIP3    H242292   5.054   6.501   0.240  0.6890 -0.5149 -0.3844
 6033TIP3   OH242293   6.431   4.009   9.417  0.0508  0.2437  0.2246
 6033TIP3    H142294   6.412   3.916   9.424  0.5784  0.1899  0.9754
 6033TIP3    H242295   6.355   4.052   9.457 -0.3629  0.1575 -0.4513
 6034TIP3   OH242296   3.510   0.016   8.743 -0.2965 -0.2127  0.7014
 6034TIP3    H142297   3.483  -0.056   8.685  1.3771  0.1803 -0.6590
 6034TIP3    H242298   3.529  -0.026   8.827 -0.6148 -1.1555  0.3146
 6035TIP3   OH242299   0.854   4.207   8.810 -0.3671 -0.1511 -0.0054
 6035TIP3    H142300   0.865   4.218   8.904  0.7560  0.7739 -0.2084
 6035TIP3    H242301   0.881   4.291   8.773 -0.3534 -0.6482 -1.1757
 6036TIP3   OH242302   1.552   1.302   8.948  0.1335  0.2779  0.1433
 6036TIP3    H142303   1.626   1.256   8.988  0.2380  1.1650  1.0112
 6036TIP3    H242304   1.482   1.297   9.013 -0.4210 -0.1274 -0.4686
 6037TIP3   OH242305   4.437   1.358   1.048  0.2842  0.0106  0.5028
 6037TIP3    H142306   4.383   1.413   1.104 -0.8270 -1.5791  1.0721
 6037TIP3    H242307   4.393   1.273   1.048  1.7165 -0.7853 -0.6427
 6038TIP3   OH242308   4.494   1.265   8.790  0.4296  0.0813 -0.4822
 6038TIP3    H142309   4.580   1.304   8.780  0.4841  0.6850  1.8014
 6038TIP3    H242310   4.433   1.329   8.754  0.7070  1.2817  1.0783
 6039TIP3   OH242311   2.610   6.602   2.668  0.2625 -0.1991 -0.3146
 6039TIP3    H142312   2.554   6.679   2.659  0.2435 -0.3301 -1.4587
 6039TIP3    H242313   2.649   6.611   2.755 -0.6481  0.4848  0.0417
 6040TIP3   OH242314   7.377   2.493   0.446 -0.3794 -0.3754  0.0283
 6040TIP3    H142315   7.362   2.537   0.529 -1.5831  0.6990 -0.7271
 6040TIP3    H242316   7.305   2.521   0.390 -1.2992 -3.4167 -0.4846
 6041TIP3   OH242317   3.874   6.368   1.977  0.7540 -0.3808 -0.5989
 6041TIP3    H142318   3.786   6.400   1.994  1.4850  0.8412  1.2851
 6041TIP3    H242319   3.864   6.274   1.965 -1.0377  0.0118 -2.6956
 6042TIP3   OH242320   2.395   7.052   1.933  0.1340  0.0482  0.1439
 6042TIP3    H142321   2.472   7.040   1.988  0.6750  0.4395 -0.5133
 6042TIP3    H242322   2.396   6.977   1.874 -1.0505 -0.9637  1.3308
 6043TIP3   OH242323   7.349   4.027   0.879 -0.2989 -0.0541 -0.3159
 6043TIP3    H142324   7.279   4.090   0.898 -0.8347 -1.1122  1.4458
 6043TIP3    H242325   7.400   4.068   0.809 -2.0253  1.2430 -0.8852
 6044TIP3   OH242326   0.334   2.319   8.413  0.2274  0.6972  1.0560
 6044TIP3    H142327   0.275   2.289   8.344  2.0155  2.1168 -1.2431
 6044TIP3    H242328   0.391   2.245   8.431  0.8336  0.8079 -0.2884
 6045TIP3   OH242329   3.753   6.741   9.851 -0.0565  0.4217  0.7054
 6045TIP3    H142330   3.796   6.826   9.840 -0.4635  0.7030  1.2472
 6045TIP3    H242331   3.816   6.688   9.901 -0.3101  0.8247  1.4765
 6046TIP3   OH242332   4.274   5.997   9.533 -0.1554 -0.0462 -0.6864
 6046TIP3    H142333   4.303   5.983   9.443 -1.5547 -1.6810 -0.9461
 6046TIP3    H242334   4.344   5.959   9.586  0.4880  0.5565 -1.0817
 6047TIP3   OH242335   1.338   1.546   7.759  0.1382 -0.2041  0.2658
 6047TIP3    H142336   1.322   1.451   7.761 -1.2546 -0.0444 -1.1647
 6047TIP3    H242337   1.433   1.554   7.753  0.2478 -1.5251 -0.0773
 6048TIP3   OH242338   1.644   5.060   8.660 -0.2447 -0.0520  0.8655
 6048TIP3    H142339   1.560   5.038   8.699  0.5390 -1.0898  2.0358
 6048TIP3    H242340   1.671   4.979   8.616  0.3223  0.1562  0.8274
 6049TIP3   OH242341   2.907   1.713   1.395  0.0894  0.1744  0.4086
 6049TIP3    H142342   2.957   1.644   1.438 -0.7436 -1.0527 -0.5430
 6049TIP3    H242343   2.849   1.746   1.464  0.5164 -0.0431  0.8815
 6050TIP3   OH242344   4.144   3.782   7.735 -0.6267  0.2165  0.4666
 6050TIP3    H142345   4.136   3.808   7.827 -0.8581  1.2353  0.1788
 6050TIP3    H242346   4.141   3.865   7.687 -0.1103 -0.2714 -0.4379
 6051TIP3   OH242347   4.155   0.141   9.083  0.1946  0.1682 -0.2629
 6051TIP3    H142348   4.096   0.213   9.106  1.0085  0.7596  0.0296
 6051TIP3    H242349   4.139   0.074   9.150 -2.2174 -0.9505 -1.8234
 6052TIP3   OH242350   2.740   0.193   1.733 -0.4291  0.4170 -0.6763
 6052TIP3    H142351   2.669   0.226   1.678 -0.9133 -0.5668 -0.6551
 6052TIP3    H242352   2.698   0.175   1.817  0.0815  0.8663 -0.3181
 6053TIP3   OH242353   0.417   5.405   8.842  0.7466 -0.3304  0.3423
 6053TIP3    H142354   0.333   5.422   8.799  0.5926 -0.5700  0.5474
 6053TIP3    H242355   0.396   5.401   8.935  1.5112  3.1880  0.8066
 6054TIP3   OH242356   6.232   2.863   9.155  0.8515  0.1771  1.2447
 6054TIP3    H142357   6.238   2.854   9.059  2.5464 -0.6517  1.3897
 6054TIP3    H242358   6.155   2.813   9.179  1.4608 -1.2104  0.4686
 6055TIP3   OH242359   1.462   5.912   0.425  0.1301  0.3647  0.7626
 6055TIP3    H142360   1.373   5.917   0.392 -0.0896 -2.0340  0.7899
 6055TIP3    H242361   1.454   5.867   0.509  1.5372 -2.2453 -0.3792
 6056TIP3   OH242362   5.470   3.182   8.830 -0.1182  0.1005  0.9134
 6056TIP3    H142363   5.441   3.115   8.892  2.5971 -1.4415  0.7303
 6056TIP3    H242364   5.520   3.244   8.883  0.0319  0.2160  0.6390
 6057TIP3   OH242365   3.642   6.777   9.264 -0.2413  0.4084 -0.2589
 6057TIP3    H142366   3.674   6.832   9.335 -1.3687 -0.0178  0.6049
 6057TIP3    H242367   3.590   6.709   9.307 -3.0316  1.5468 -1.5744
 6058TIP3   OH242368   1.908   6.338   9.665 -0.3417  0.5231 -0.3112
 6058TIP3    H142369   1.889   6.247   9.640 -0.1209  0.9420 -2.1446
 6058TIP3    H242370   1.993   6.333   9.709  0.8157  0.0709 -2.4287
 6059TIP3   OH242371   0.579   6.306   7.987 -0.6764  0.1390  0.8555
 6059TIP3    H142372   0.628   6.364   8.045 -1.2078  0.7516  0.6972
 6059TIP3    H242373   0.615   6.219   8.006  2.5067  0.8031 -1.2461
 6060TIP3   OH242374   1.471   3.755   7.732 -0.2632 -0.0120  0.1978
 6060TIP3    H142375   1.491   3.847   7.751 -2.1609  0.5511 -0.3278
 6060TIP3    H242376   1.517   3.706   7.800  2.3166  1.1538 -0.6125
 6061TIP3   OH242377   4.620   1.735   6.971 -0.2145  0.1359 -0.6372
 6061TIP3    H142378   4.642   1.794   7.044 -3.4757  0.7781 -0.0116
 6061TIP3    H242379   4.691   1.748   6.908  0.6942  2.5704  0.7245
 6062TIP3   OH242380   6.521   0.092   0.193  0.0556 -0.3544 -0.1905
 6062TIP3    H142381   6.543   0.048   0.110  3.0081  0.7785 -0.1481
 6062TIP3    H242382   6.514   0.021   0.257  0.8412 -1.0497 -0.8482
 6063TIP3   OH242383   2.868   2.306   8.143  0.3558  0.1578 -0.2177
 6063TIP3    H142384   2.817   2.304   8.223  0.4812  0.7077 -0.1226
 6063TIP3    H242385   2.891   2.214   8.127  1.1146  0.1384  0.8806
 6064TIP3   OH242386   2.577   1.558   1.114  0.2059 -0.0755  0.3292
 6064TIP3    H142387   2.609   1.554   1.024 -0.8860  1.0154 -0.1329
 6064TIP3    H242388   2.507   1.623   1.112  1.0810  1.0180  2.2674
 6065TIP3   OH242389   5.977   0.005   0.614  0.7686  0.5196 -0.4922
 6065TIP3    H142390   5.886   0.025   0.635  1.1581  1.5655  0.2942
 6065TIP3    H242391   5.979  -0.090   0.600 -0.1802  0.2900  0.8053
 6066TIP3   OH242392   3.351   5.039   8.752  0.0278 -0.2721  0.3223
 6066TIP3    H142393   3.329   5.132   8.763  0.0742  0.2799 -3.0637
 6066TIP3    H242394   3.272   4.993   8.779 -0.6392  0.8883  0.4396
 6067TIP3   OH242395   6.949   7.150   8.514  0.7801  0.3534  0.2832
 6067TIP3    H142396   6.988   7.207   8.447  0.4186  0.5432  0.2257
 6067TIP3    H242397   6.936   7.208   8.589  2.4916 -0.1907  1.0347
 6068TIP3   OH242398   4.469   7.215   0.962 -0.2441 -0.1360  0.2580
 6068TIP3    H142399   4.404   7.264   1.013 -0.0721 -0.1170  0.4605
 6068TIP3    H242400   4.538   7.195   1.025  1.1927  2.0827 -0.5323
 6069TIP3   OH242401   4.967   4.551   7.978  0.1249 -0.1835 -0.1891
 6069TIP3    H142402   4.920   4.621   8.023 -0.4480 -0.6781 -0.0101
 6069TIP3    H242403   4.926   4.545   7.892 -0.0304 -0.5019 -0.0940
 6070TIP3   OH242404   6.486   4.292   9.712  0.3308 -0.1722  0.1156
 6070TIP3    H142405   6.476   4.336   9.628 -0.0418  0.9068  0.7117
 6070TIP3    H242406   6.461   4.201   9.694 -0.4328  0.1953 -0.7874
 6071TIP3   OH242407   4.698   1.882   7.201  0.1652 -0.0284  0.5052
 6071TIP3    H142408   4.605   1.898   7.213  0.1626  0.2497  0.1344
 6071TIP3    H242409   4.738   1.911   7.283  0.1563  1.8486 -0.0989
 6072TIP3   OH242410   6.310   5.075   0.727 -0.2034  0.0828 -0.3962
 6072TIP3    H142411   6.271   5.117   0.804  0.4078  2.9139 -1.5030
 6072TIP3    H242412   6.385   5.027   0.762  1.8696  3.6907  0.6628
 6073TIP3   OH242413   3.502   1.610   2.119  0.9588 -0.8657 -0.2729
 6073TIP3    H142414   3.561   1.680   2.090 -0.2442  0.7883  1.1096
 6073TIP3    H242415   3.548   1.570   2.193  0.9346 -0.4421 -0.0240
 6074TIP3   OH242416   1.559   7.310   7.009 -0.1064  1.0447  0.1611
 6074TIP3    H142417   1.647   7.285   7.039 -0.7397 -0.1483  1.0828
 6074TIP3    H242418   1.515   7.341   7.088 -0.3138  2.3061 -0.4273
 6075TIP3   OH242419   4.666   5.240   8.245  0.2805  0.0718 -0.1439
 6075TIP3    H142420   4.727   5.187   8.194  0.3192 -0.7966  0.7902
 6075TIP3    H242421   4.603   5.177   8.281  1.2364  0.4083  2.2951
 6076TIP3   OH242422   1.214   0.268   9.347  0.4507 -0.1145  0.0144
 6076TIP3    H142423   1.122   0.285   9.364  0.3745 -0.6535  0.1711
 6076TIP3    H242424   1.244   0.345   9.298 -0.0587  0.0984  0.0270
 6077TIP3   OH242425   2.325   6.244   8.941 -0.3868 -0.6860 -0.1865
 6077TIP3    H142426   2.254   6.308   8.948  1.4717  1.4083  1.0660
 6077TIP3    H242427   2.360   6.237   9.029  1.7931 -0.5502 -0.9607
 6078TIP3   OH242428   4.488   7.321   1.639  0.4034  0.1138  0.5154
 6078TIP3    H142429   4.447   7.264   1.705  0.8768 -0.7918  0.0454
 6078TIP3    H242430   4.425   7.322   1.567 -0.4931  1.7590  1.2655
 6079TIP3   OH242431   2.721   5.918   2.869  0.2525 -0.5998  0.1682
 6079TIP3    H142432   2.646   5.899   2.924 -0.0627  0.5468  0.1644
 6079TIP3    H242433   2.791   5.940   2.930 -0.1820  0.9734  0.1376
 6080TIP3   OH242434   4.091   6.912   0.834  0.0460  0.3237 -0.3741
 6080TIP3    H142435   4.069   6.991   0.785 -1.3754 -0.0239 -0.3380
 6080TIP3    H242436   4.171   6.935   0.882 -0.5972  1.8953  0.0054
 6081TIP3   OH242437   1.371   4.656   7.051 -0.3285 -0.0350 -0.3343
 6081TIP3    H142438   1.292   4.644   7.105 -0.1928 -0.0621 -0.1417
 6081TIP3    H242439   1.337   4.675   6.964 -0.5546 -1.4231 -0.5659
 6082TIP3   OH242440   4.921   6.408   2.057  0.8019 -0.6118  0.3205
 6082TIP3    H142441   4.970   6.446   2.129 -0.2439 -1.4431  1.5093
 6082TIP3    H242442   4.882   6.329   2.093 -1.4096 -0.0010 -0.5541
 6083TIP3   OH242443   4.209   6.161   0.961 -0.5696 -0.2977 -0.2497
 6083TIP3    H142444   4.201   6.256   0.971 -2.4088 -0.4699  0.2132
 6083TIP3    H242445   4.175   6.126   1.043 -1.5652 -1.3783 -1.0924
 6084TIP3   OH242446   6.772   2.010   8.529 -0.2206 -0.6833 -0.3412
 6084TIP3    H142447   6.686   1.978   8.557 -1.0459  1.2767 -0.4787
 6084TIP3    H242448   6.786   2.089   8.581  2.5162 -2.0653  1.2568
 6085TIP3   OH242449   0.458   4.011   1.321  0.2644 -0.3844 -0.0117
 6085TIP3    H142450   0.400   4.040   1.251  1.0832  0.3442 -0.4157
 6085TIP3    H242451   0.531   4.073   1.318  0.2063 -0.2025  1.6485
 6086TIP3   OH242452   5.097   5.715   9.147  0.0763 -0.0052  0.1372
 6086TIP3    H142453   5.158   5.789   9.142 -1.8029  1.5926 -0.3556
 6086TIP3    H242454   5.061   5.707   9.059  0.5396 -1.8325  0.0697
 6087TIP3   OH242455   2.293   7.431   9.785  0.2241 -0.1028  1.0612
 6087TIP3    H142456   2.361   7.487   9.749  0.4590 -0.3060  1.1805
 6087TIP3    H242457   2.335   7.345   9.793 -1.0324 -1.2320 -2.2747
 6088TIP3   OH242458   5.484   3.901   2.492  0.5229  0.1147  0.0150
 6088TIP3    H142459   5.431   3.965   2.445 -0.5009 -0.1512  0.7525
 6088TIP3    H242460   5.569   3.942   2.502  0.5520  0.4565 -1.4303
 6089TIP3   OH242461   3.135   4.709   6.716 -0.0672 -0.4522 -0.4327
 6089TIP3    H142462   3.131   4.804   6.725 -0.9086 -0.6099  1.7247
 6089TIP3    H242463   3.209   4.693   6.658  0.5105  1.5030 -0.3208
 6090TIP3   OH242464   0.756   5.934   0.461 -0.3177  0.4004  0.4391
 6090TIP3    H142465   0.835   5.891   0.429 -0.7221 -1.0396  1.2949
 6090TIP3    H242466   0.727   5.880   0.534 -0.8435  2.1784  1.6036
 6091TIP3   OH242467   0.664   1.586   7.144 -0.0782  0.4113  0.0690
 6091TIP3    H142468   0.724   1.632   7.203 -0.1347 -0.0645  0.5072
 6091TIP3    H242469   0.582   1.580   7.193  0.3494 -1.4488  0.6355
 6092TIP3   OH242470   2.162   4.514   7.839  0.1085  0.1673  0.4087
 6092TIP3    H142471   2.093   4.525   7.773  1.7987  1.2938 -1.2927
 6092TIP3    H242472   2.214   4.441   7.807 -0.1383 -0.5174  1.5426
 6093TIP3   OH242473   5.088   2.482   9.624  0.0179 -0.0656 -0.3643
 6093TIP3    H142474   5.083   2.515   9.535  0.6618  1.0873  0.0013
 6093TIP3    H242475   5.001   2.448   9.643 -0.2293  0.0364 -1.2955
 6094TIP3   OH242476   1.058   1.858   8.815 -0.3262 -0.0784  0.0753
 6094TIP3    H142477   1.019   1.781   8.856  0.5707 -1.7313 -2.0088
 6094TIP3    H242478   1.149   1.833   8.800 -0.2917  0.9429 -1.6436
 6095TIP3   OH242479   7.396   3.338   2.160  0.8758  0.0500  0.1677
 6095TIP3    H142480   7.306   3.333   2.127  1.2936 -1.2760 -0.8435
 6095TIP3    H242481   7.387   3.361   2.252 -0.5906 -1.6972  0.5046
 6096TIP3   OH242482   1.719   3.049   0.727  0.7548 -0.0469  0.4192
 6096TIP3    H142483   1.734   2.981   0.792  0.7926 -0.9229 -0.4744
 6096TIP3    H242484   1.639   3.093   0.756  0.3378 -0.9275  0.6583
 6097TIP3   OH242485   6.758   0.609   2.309  0.7102  0.6130  0.2139
 6097TIP3    H142486   6.669   0.591   2.338  0.7066  1.0762  0.5126
 6097TIP3    H242487   6.748   0.652   2.224  0.7054 -0.4587 -0.3368
 6098TIP3   OH242488   6.146   2.443   8.872 -0.3237  0.1733  0.0747
 6098TIP3    H142489   6.067   2.390   8.884 -0.3969  0.2291 -0.1570
 6098TIP3    H242490   6.154   2.453   8.778  0.2822 -0.3227  0.0654
 6099TIP3   OH242491   4.477   7.580   0.685 -0.2553  0.3042  0.5453
 6099TIP3    H142492   4.452   7.584   0.778  0.2261  0.8463  0.6618
 6099TIP3    H242493   4.527   7.661   0.671 -0.5547  0.3537 -0.2569
 6100TIP3   OH242494   1.303   7.432   8.599  0.1999 -0.0383 -0.5474
 6100TIP3    H142495   1.278   7.515   8.641  1.7756 -1.2205  3.1286
 6100TIP3    H242496   1.226   7.376   8.609  0.1941  0.0292 -0.1953
 6101TIP3   OH242497   0.203   0.668   7.954  0.2961 -0.3596 -0.4356
 6101TIP3    H142498   0.263   0.606   7.995 -0.5946  1.0421  3.4659
 6101TIP3    H242499   0.228   0.753   7.990 -2.9393  0.4867  0.1440
 6102TIP3   OH242500   0.031   3.060   0.655  0.0579  0.6065 -0.0610
 6102TIP3    H142501  -0.007   3.145   0.636  1.8852  1.4602 -0.1104
 6102TIP3    H242502  -0.012   3.031   0.735  1.2260  2.7832  1.4323
 6103TIP3   OH242503   5.508   4.153   0.946  0.3423 -0.5442  0.6143
 6103TIP3    H142504   5.514   4.202   0.864 -0.1012 -0.6458  0.5148
 6103TIP3    H242505   5.523   4.062   0.920 -2.7002 -1.0385  0.0938
 6104TIP3   OH242506   4.289   6.676   8.415  0.3115 -0.2887  0.0796
 6104TIP3    H142507   4.282   6.585   8.384 -1.8654 -0.4194  0.7449
 6104TIP3    H242508   4.251   6.728   8.345 -0.9291 -0.1942  0.7859
 6105TIP3   OH242509   0.663   5.638   6.772 -0.5491 -0.1610 -0.2821
 6105TIP3    H142510   0.737   5.578   6.767  1.1651  1.8942 -1.5897
 6105TIP3    H242511   0.669   5.676   6.860 -0.8762 -0.9188  0.0808
 6106TIP3   OH242512   1.094   5.541   0.828  0.5321 -0.3894 -0.2448
 6106TIP3    H142513   1.159   5.547   0.758  1.0916 -1.7206  0.1182
 6106TIP3    H242514   1.069   5.631   0.847 -0.0045 -0.0256 -2.4931
 6107TIP3   OH242515   3.952   3.413   9.377  0.0515 -0.3052  0.1807
 6107TIP3    H142516   3.885   3.344   9.380  1.8582 -2.1742 -0.0407
 6107TIP3    H242517   3.950   3.452   9.464  0.7650 -2.4997  1.2638
 6108TIP3   OH242518   3.272   2.386   1.575 -0.3420 -0.0128  0.1647
 6108TIP3    H142519   3.302   2.469   1.537 -1.4628  0.7400  0.8961
 6108TIP3    H242520   3.277   2.324   1.502 -3.2092  1.5538 -1.5339
 6109TIP3   OH242521   3.603   3.355   8.362 -0.1464  0.3509  0.2222
 6109TIP3    H142522   3.685   3.369   8.315 -0.2227  1.4990  0.3922
 6109TIP3    H242523   3.602   3.423   8.430 -1.4446  0.6468 -0.0633
 6110TIP3   OH242524   6.370   5.275   0.539  0.4194 -0.2502 -0.2246
 6110TIP3    H142525   6.366   5.191   0.585 -0.1595 -0.1811 -0.1459
 6110TIP3    H242526   6.452   5.271   0.490  2.4619  0.7309  2.8227
 6111TIP3   OH242527   1.697   7.500   1.168 -0.5413  0.4620 -0.4573
 6111TIP3    H142528   1.734   7.579   1.207  0.7030  0.6851 -1.9958
 6111TIP3    H242529   1.759   7.431   1.190  0.4079  0.6665 -2.2868
 6112TIP3   OH242530   0.518   1.850   7.976 -0.5717 -0.4643  0.1170
 6112TIP3    H142531   0.428   1.882   7.965 -0.1760  1.6152  2.1140
 6112TIP3    H242532   0.558   1.861   7.890 -1.9529 -0.5451 -0.5704
 6113TIP3   OH242533   1.254   1.725   9.157 -0.3054 -0.4104  0.0689
 6113TIP3    H142534   1.328   1.696   9.211 -0.1890 -1.2114 -0.5006
 6113TIP3    H242535   1.230   1.647   9.106  0.1178  0.5399 -1.6509
 6114TIP3   OH242536   0.609   3.018   0.077 -0.0280 -0.0041 -0.0056
 6114TIP3    H142537   0.584   3.016  -0.015 -1.1770  1.0911  0.2569
 6114TIP3    H242538   0.534   3.058   0.122 -0.2607 -2.1325  1.6695
 6115TIP3   OH242539   2.552   5.702   9.396 -0.4336  0.4175  0.2820
 6115TIP3    H142540   2.483   5.637   9.409  2.2102 -3.0495 -1.2165
 6115TIP3    H242541   2.547   5.725   9.304  2.0865 -2.3493 -0.7163
 6116TIP3   OH242542   1.372   0.376   8.467  0.9237  0.0331  0.5981
 6116TIP3    H142543   1.367   0.438   8.394 -0.3309 -1.0865 -0.3309
 6116TIP3    H242544   1.465   0.362   8.481  1.2087 -0.4133 -1.4408
 6117TIP3   OH242545   1.068   2.904   1.990  0.1255  0.4303 -0.0023
 6117TIP3    H142546   0.995   2.934   2.044 -0.7612  0.8593 -1.3834
 6117TIP3    H242547   1.121   2.983   1.976 -1.1976  1.0360 -2.0755
 6118TIP3   OH242548   5.356   3.449   9.270 -0.2541  0.1681 -0.0332
 6118TIP3    H142549   5.394   3.534   9.293  0.6734 -0.5966  1.3818
 6118TIP3    H242550   5.263   3.459   9.291  0.2330  0.1164  2.5100
 6119TIP3   OH242551   0.648   0.817   7.527 -0.2170 -0.3219  0.1988
 6119TIP3    H142552   0.741   0.819   7.547  0.4761  0.1812 -2.6988
 6119TIP3    H242553   0.609   0.882   7.586  1.4436  0.3358  0.6136
 6120TIP3   OH242554   1.379   3.842   2.043 -0.3422  0.3119 -0.2997
 6120TIP3    H142555   1.331   3.768   2.081  1.0295 -0.0539  0.7999
 6120TIP3    H242556   1.414   3.808   1.961 -0.0580 -0.1350  0.0033
 6121TIP3   OH242557   1.424   0.590   7.108 -0.7777  0.0717 -0.6226
 6121TIP3    H142558   1.366   0.648   7.158 -1.0034 -0.5614 -0.1383
 6121TIP3    H242559   1.512   0.621   7.127 -0.9050  0.3294 -0.4563
 6122TIP3   OH242560   7.191   6.433   8.501  0.1633 -0.0643  0.1677
 6122TIP3    H142561   7.108   6.472   8.474 -1.1145 -1.0805  2.3034
 6122TIP3    H242562   7.169   6.383   8.580  2.8735 -0.1654  0.9615
 6123TIP3   OH242563   1.541   4.747   7.983 -0.0010 -0.0430 -0.2299
 6123TIP3    H142564   1.554   4.682   8.053  3.2698 -1.5087 -1.9544
 6123TIP3    H242565   1.477   4.708   7.925 -0.5095 -0.1791  0.4086
 6124TIP3   OH242566   0.981   7.588   7.735  0.2666 -0.4895 -0.2352
 6124TIP3    H142567   0.885   7.584   7.726  0.1855  0.2648  0.1769
 6124TIP3    H242568   1.012   7.615   7.648  0.2121 -1.8847 -0.7120
 6125TIP3   OH242569   5.878   1.023   1.203  0.4919 -0.1119 -0.2203
 6125TIP3    H142570   5.933   1.037   1.280  2.1340  0.6218 -1.4634
 6125TIP3    H242571   5.939   0.996   1.135 -1.0725 -1.9673 -0.9924
 6126TIP3   OH242572   7.028   2.533   8.875  0.2767 -0.1709 -0.3558
 6126TIP3    H142573   7.038   2.628   8.879  1.1187 -0.2145 -1.2308
 6126TIP3    H242574   6.942   2.516   8.914 -0.7406  1.1188 -1.9255
 6127TIP3   OH242575   5.765   7.231   8.746  0.1058  0.5019  0.0717
 6127TIP3    H142576   5.675   7.232   8.778  0.1340 -0.0755  0.1864
 6127TIP3    H242577   5.766   7.291   8.671 -0.3902  0.4456  0.0226
 6128TIP3   OH242578   6.889   2.988   1.183 -0.1586  0.0367  0.2772
 6128TIP3    H142579   6.810   2.936   1.201 -0.3450 -0.0945 -0.8766
 6128TIP3    H242580   6.961   2.934   1.216 -0.4097 -0.6329 -0.2562
 6129TIP3   OH242581   5.699   2.549   1.249  0.1469 -0.2398  0.2972
 6129TIP3    H142582   5.622   2.607   1.256  1.3527  1.3827  0.7189
 6129TIP3    H242583   5.763   2.601   1.201  0.7022 -1.9137 -0.8327
 6130TIP3   OH242584   4.517   0.528   0.578  0.5764 -0.2860  0.4720
 6130TIP3    H142585   4.486   0.619   0.574 -1.8042 -0.9976  0.9958
 6130TIP3    H242586   4.537   0.514   0.671  1.3644 -0.2092  0.3260
 6131TIP3   OH242587   0.195   3.500   1.809 -0.4245  0.3486 -0.4941
 6131TIP3    H142588   0.111   3.543   1.827 -0.5680 -0.2605  0.3599
 6131TIP3    H242589   0.254   3.572   1.788 -1.6123  0.6546 -3.1559
 6132TIP3   OH242590   1.896   0.570   0.052 -0.5435  0.1450 -0.1374
 6132TIP3    H142591   1.873   0.602  -0.036  0.5199 -0.6883 -0.7483
 6132TIP3    H242592   1.836   0.496   0.066 -2.3875  1.7452  0.9008
 6133TIP3   OH242593   6.383   2.706   1.691 -0.8199  0.1836 -0.0066
 6133TIP3    H142594   6.338   2.664   1.618  0.8809 -0.1917 -0.8751
 6133TIP3    H242595   6.375   2.642   1.763 -0.9638 -0.2303 -0.3815
 6134TIP3   OH242596   1.687   0.703   7.165  0.1361 -0.0030  0.0759
 6134TIP3    H142597   1.710   0.760   7.092 -0.8955 -0.8117 -0.9181
 6134TIP3    H242598   1.697   0.758   7.243 -2.3795  2.0860 -0.9372
 6135TIP3   OH242599   3.185   3.107   0.019 -0.6400  0.4099 -0.7443
 6135TIP3    H142600   3.144   3.175   0.073  1.0473  0.8655  0.0170
 6135TIP3    H242601   3.163   3.133  -0.071 -1.6694  0.8434 -0.3949
 6136TIP3   OH242602   1.025   5.753   9.025  0.0298 -0.5619 -0.1496
 6136TIP3    H142603   1.115   5.729   9.047  0.0341 -2.3634 -1.8580
 6136TIP3    H242604   0.972   5.703   9.087  0.1576  1.5592  1.7836
 6137TIP3   OH242605   5.188   5.257   8.160 -0.3107 -0.1098 -0.0408
 6137TIP3    H142606   5.112   5.238   8.106 -1.2052  0.4307  0.9975
 6137TIP3    H242607   5.152   5.291   8.242  1.0467  0.4494  0.3588
 6138TIP3   OH242608   7.285   7.371   8.971 -0.7917 -0.0354  0.3087
 6138TIP3    H142609   7.357   7.310   8.986 -0.7008 -0.1577 -0.5431
 6138TIP3    H242610   7.285   7.429   9.047 -1.4394 -1.6339  1.5710
 6139TIP3   OH242611   2.945   1.974   1.221  0.0825 -0.1177 -0.2192
 6139TIP3    H142612   2.900   1.895   1.193 -0.5606  0.2955 -0.3749
 6139TIP3    H242613   3.032   1.944   1.249  0.0695 -0.7840 -0.8768
 6140TIP3   OH242614   3.283   7.670   1.784  0.6058 -0.6558  0.2522
 6140TIP3    H142615   3.286   7.597   1.723  0.5869  0.2605 -0.8908
 6140TIP3    H242616   3.278   7.748   1.728  0.3724  0.2087  1.4290
 6141TIP3   OH242617   4.788   1.655   9.611 -0.9285 -0.0878  0.1222
 6141TIP3    H142618   4.780   1.560   9.625 -1.3651 -0.1148 -0.3086
 6141TIP3    H242619   4.803   1.664   9.517  3.3998 -0.0092  0.6115
 6142TIP3   OH242620   0.695   5.048   0.408 -0.3293  0.3133  0.1999
 6142TIP3    H142621   0.694   4.954   0.393  0.4454  0.1804  0.8451
 6142TIP3    H242622   0.690   5.057   0.504 -0.1481  0.9067  0.1606
 6143TIP3   OH242623   6.841   5.214   1.432 -0.3906 -0.1883 -0.2292
 6143TIP3    H142624   6.873   5.189   1.346 -0.3954 -0.3510 -0.1843
 6143TIP3    H242625   6.749   5.186   1.433 -0.4713  0.0766 -0.2775
 6144TIP3   OH242626   0.270   2.386   9.431  0.3865 -0.4686  0.0300
 6144TIP3    H142627   0.295   2.293   9.433 -0.2116 -0.7168 -1.8927
 6144TIP3    H242628   0.352   2.433   9.438  0.6547 -1.1123  1.6021
 6145TIP3   OH242629   1.540   2.416   0.048  0.5794 -0.3134 -0.5739
 6145TIP3    H142630   1.481   2.481   0.086  1.8497  0.5557 -0.0296
 6145TIP3    H242631   1.527   2.423  -0.046  1.5700  1.6335 -0.6129
 6146TIP3   OH242632   2.289   0.277   1.898  0.3791 -0.1080 -0.7233
 6146TIP3    H142633   2.241   0.297   1.817 -0.1975  0.0249 -0.3572
 6146TIP3    H242634   2.380   0.296   1.877 -0.0439  2.5109 -0.5701
 6147TIP3   OH242635   2.248   0.198   0.641 -0.0442  0.0868 -0.1153
 6147TIP3    H142636   2.327   0.213   0.693  0.4125 -2.0372 -0.1196
 6147TIP3    H242637   2.179   0.243   0.690  0.9978  1.2302  0.3595
 6148TIP3   OH242638   5.482   2.292   8.132 -0.1538  0.0624  0.4106
 6148TIP3    H142639   5.528   2.320   8.211  0.5902  0.6798 -0.2123
 6148TIP3    H242640   5.544   2.310   8.061 -0.6815 -0.7639 -0.2864
 6149TIP3   OH242641   2.752   4.870   7.802  0.6153  0.7087 -0.3847
 6149TIP3    H142642   2.697   4.862   7.725 -0.5777  0.1745  0.4927
 6149TIP3    H242643   2.821   4.804   7.790 -0.5057 -0.5220 -0.2500
 6150TIP3   OH242644   7.099   3.754   9.319  0.4518  0.6952 -0.8724
 6150TIP3    H142645   7.134   3.685   9.262 -2.6664 -1.0801 -0.8391
 6150TIP3    H242646   7.050   3.811   9.260  0.7099  1.2975 -0.5096
 6151TIP3   OH242647   7.014   4.985   0.757  0.0170 -0.4009  0.2938
 6151TIP3    H142648   7.080   4.998   0.825  0.6306 -1.3748 -0.0838
 6151TIP3    H242649   7.065   4.960   0.679 -0.7525 -0.5590 -0.1699
 6152TIP3   OH242650   1.901   7.179   7.433  0.2567 -0.1644 -0.3998
 6152TIP3    H142651   1.888   7.189   7.528  1.3148 -0.8495 -0.1616
 6152TIP3    H242652   1.962   7.106   7.425 -0.4105 -0.6212 -1.6558
 6153TIP3   OH242653   3.825   0.142   9.329  0.1800 -0.1347  0.5550
 6153TIP3    H142654   3.733   0.119   9.315 -0.4705  2.7122 -0.5596
 6153TIP3    H242655   3.828   0.173   9.419 -0.3872  1.4021  0.0710
 6154TIP3   OH242656   7.158   1.035   0.867  0.4367 -0.2195  0.0373
 6154TIP3    H142657   7.136   0.961   0.923 -0.4904  0.6833  0.9066
 6154TIP3    H242658   7.075   1.060   0.826  0.7797  0.1983 -0.4181
 6155TIP3   OH242659   3.958   6.138   8.414 -0.4923 -0.2425 -0.3466
 6155TIP3    H142660   4.022   6.067   8.414  1.5428  1.4041 -3.4667
 6155TIP3    H242661   3.994   6.203   8.474 -0.5163 -0.3191 -0.2475
 6156TIP3   OH242662   3.804   6.504   8.718 -0.3023  0.4524  0.4545
 6156TIP3    H142663   3.850   6.495   8.801 -1.4125  1.1902  1.1841
 6156TIP3    H242664   3.840   6.584   8.679  0.9719 -0.4628 -0.2984
 6157TIP3   OH242665   2.863   5.682   9.127 -0.0834 -0.2687  0.2266
 6157TIP3    H142666   2.932   5.616   9.130  1.1481  0.6671 -3.0776
 6157TIP3    H242667   2.877   5.735   9.205  0.4617 -2.3662  1.6266
 6158TIP3   OH242668   5.057   7.277   0.793 -0.4792 -0.3479  0.1980
 6158TIP3    H142669   5.126   7.325   0.839 -0.8948  0.8897 -0.4386
 6158TIP3    H242670   5.089   7.268   0.703  0.2656 -2.6339  0.6248
 6159TIP3   OH242671   7.333   4.524   0.809 -0.3825 -0.3501  0.7357
 6159TIP3    H142672   7.411   4.557   0.854  0.0741 -2.8670  1.9765
 6159TIP3    H242673   7.367   4.480   0.732 -0.9854  1.9124 -0.9244
 6160TIP3   OH242674   7.609   1.320   7.854  0.2882  0.0409 -0.2290
 6160TIP3    H142675   7.604   1.230   7.820  1.7395  0.6604 -2.2446
 6160TIP3    H242676   7.582   1.375   7.781 -1.5169  1.2765  1.2615
 6161TIP3   OH242677   1.092   0.069   8.246  0.5786  1.2554  0.0932
 6161TIP3    H142678   1.061   0.031   8.164 -2.1772  1.7241  0.8036
 6161TIP3    H242679   1.166   0.014   8.271 -0.8588 -1.2966 -0.8305
 6162TIP3   OH242680   0.985   7.230   2.539 -0.8148 -0.4123 -0.1814
 6162TIP3    H142681   1.069   7.210   2.579 -0.8745 -0.2369  0.0368
 6162TIP3    H242682   0.974   7.165   2.470 -0.9302 -1.0173  0.4037
 6163TIP3   OH242683   3.387   0.644   0.556  0.3552 -0.2524 -0.0727
 6163TIP3    H142684   3.318   0.679   0.499  1.3503 -0.3376 -1.3778
 6163TIP3    H242685   3.340   0.590   0.619 -0.7316 -1.0189 -1.4539
 6164TIP3   OH242686   1.738   1.739   9.832 -0.0638 -0.5376  0.1556
 6164TIP3    H142687   1.711   1.721   9.742  1.6475 -0.9343 -0.3158
 6164TIP3    H242688   1.657   1.740   9.882 -0.9043 -1.9775 -1.1046
 6165TIP3   OH242689   3.427   5.749   8.926 -0.1102 -0.0700 -0.4395
 6165TIP3    H142690   3.394   5.660   8.911 -0.3861 -0.2765  1.2589
 6165TIP3    H242691   3.392   5.799   8.852  0.1191 -1.3641 -1.4781
 6166TIP3   OH242692   1.911   2.837   0.298  0.0598 -0.2091 -0.0862
 6166TIP3    H142693   1.885   2.884   0.377 -1.5969  0.7368 -1.1232
 6166TIP3    H242694   2.006   2.827   0.306 -0.0057  0.2929  1.7712
 6167TIP3   OH242695   0.332   2.371   0.775  0.1732 -0.1483  0.6166
 6167TIP3    H142696   0.361   2.347   0.687 -0.4265 -1.0835  0.6668
 6167TIP3    H242697   0.312   2.288   0.818  1.4120  0.2179  1.9842
 6168TIP3   OH242698   6.221   7.409   8.337  0.9925 -0.1109  0.5696
 6168TIP3    H142699   6.160   7.362   8.280  0.4078  1.1337  0.1432
 6168TIP3    H242700   6.306   7.366   8.322  1.0363  0.6813 -1.8953
 6169TIP3   OH242701   4.828   7.011   9.308 -0.4028  0.3601  0.5313
 6169TIP3    H142702   4.820   7.036   9.400  1.8674 -0.5647  1.0613
 6169TIP3    H242703   4.865   7.088   9.266 -0.9916  0.6185  0.4771
 6170TIP3   OH242704   7.406   6.723   0.849  0.1327 -0.3292  0.0771
 6170TIP3    H142705   7.322   6.763   0.829 -0.1981 -1.3131 -0.5552
 6170TIP3    H242706   7.411   6.725   0.945  0.1991  1.3152  0.0682
 6171TIP3   OH242707   0.904   5.412   3.195  0.1975  0.2338  0.1183
 6171TIP3    H142708   0.886   5.393   3.103 -2.1949  0.7617  0.4078
 6171TIP3    H242709   0.945   5.498   3.194 -0.3826  0.5162 -0.4564
 6172TIP3   OH242710   2.745   3.509   0.927  0.0580 -0.8268 -0.4565
 6172TIP3    H142711   2.674   3.448   0.904 -0.7021 -1.1491  2.3789
 6172TIP3    H242712   2.816   3.452   0.956 -0.5120 -0.4681  1.8222
 6173TIP3   OH242713   4.777   7.480   7.793  0.4152  0.3351 -0.4133
 6173TIP3    H142714   4.862   7.524   7.802  1.6327 -2.1811  1.4029
 6173TIP3    H242715   4.791   7.416   7.723 -0.4647  0.8114 -1.0520
 6174TIP3   OH242716   3.747   1.425   2.035 -0.8220  0.4794  0.2745
 6174TIP3    H142717   3.790   1.500   2.076  2.0178 -0.9274  0.1022
 6174TIP3    H242718   3.799   1.350   2.063 -2.1470 -1.1589 -1.4528
 6175TIP3   OH242719   3.510   0.217   0.032 -0.5527 -0.0129  0.6358
 6175TIP3    H142720   3.498   0.131  -0.007  0.8647 -0.2930  0.7632
 6175TIP3    H242721   3.457   0.276  -0.022  0.1614 -0.6204 -0.7689
 6176TIP3   OH242722   3.663   7.082   1.433  0.4801 -0.1703  0.4438
 6176TIP3    H142723   3.686   7.000   1.390 -0.4467 -0.3071  0.1997
 6176TIP3    H242724   3.732   7.143   1.408  0.4697 -0.5173 -0.4386
 6177TIP3   OH242725   2.143   0.726   0.614  0.2147 -0.4319  0.0127
 6177TIP3    H142726   2.231   0.699   0.641 -0.2164 -0.7078  1.2235
 6177TIP3    H242727   2.097   0.644   0.598  0.2042 -0.2843 -0.7650
 6178TIP3   OH242728   2.654   6.160   0.187 -0.0184 -0.0823  0.4529
 6178TIP3    H142729   2.706   6.226   0.141 -0.4098  0.0877  0.2529
 6178TIP3    H242730   2.652   6.085   0.127  0.5964 -0.3589  0.7650
 6179TIP3   OH242731   4.016   0.630   9.750  0.1617 -0.2805  0.9967
 6179TIP3    H142732   4.004   0.595   9.839  1.0520 -0.4613  1.0530
 6179TIP3    H242733   3.963   0.709   9.748 -2.4569 -1.9271  0.6657
 6180TIP3   OH242734   2.221   2.835   8.690  0.3432 -0.1221 -0.3613
 6180TIP3    H142735   2.213   2.751   8.735 -2.6085  0.3808  0.2994
 6180TIP3    H242736   2.203   2.815   8.598  1.3841 -0.4207 -0.5150
 6181TIP3   OH242737   0.361   4.792   2.105  0.7837 -0.2474 -0.3106
 6181TIP3    H142738   0.364   4.715   2.162  0.1383 -0.5641 -0.7006
 6181TIP3    H242739   0.298   4.769   2.037 -0.7795  1.3064  0.5504
 6182TIP3   OH242740   0.557   2.997   0.418  0.2520  0.4036 -0.4899
 6182TIP3    H142741   0.619   2.931   0.387  0.8206  0.3873  0.6548
 6182TIP3    H242742   0.473   2.951   0.424  0.8516 -0.5457  1.3332
 6183TIP3   OH242743   0.287   0.401   8.676  0.3834 -0.1405  0.5644
 6183TIP3    H142744   0.209   0.382   8.728 -0.3927  0.3917 -0.3643
 6183TIP3    H242745   0.288   0.333   8.609  0.1858  0.3903  0.0156
 6184TIP3   OH242746   1.503   0.630   9.666  0.1800 -0.0440 -0.1076
 6184TIP3    H142747   1.471   0.633   9.756  1.4221 -0.3334  0.3517
 6184TIP3    H242748   1.528   0.539   9.652 -0.5785 -0.1388 -0.9681
 6185TIP3   OH242749   1.823   0.232   2.537  0.2649 -0.1635  0.4197
 6185TIP3    H142750   1.825   0.139   2.559 -0.7738 -0.5850 -1.0877
 6185TIP3    H242751   1.807   0.276   2.620 -1.0494 -1.4871  0.9216
 6186TIP3   OH242752   3.947   4.721   9.120 -0.2240 -0.7603 -0.2619
 6186TIP3    H142753   3.933   4.754   9.208  1.6378  0.4467 -0.3738
 6186TIP3    H242754   4.029   4.672   9.125  0.4621  0.1915 -1.5033
 6187TIP3   OH242755   3.672   3.030   8.925 -0.1985 -0.0966  0.3104
 6187TIP3    H142756   3.652   2.943   8.958  0.8267 -0.2078  0.6773
 6187TIP3    H242757   3.597   3.084   8.952 -0.8649 -0.8745  0.0167
 6188TIP3   OH242758   1.944   4.843   7.502  0.0671 -0.1131  0.0418
 6188TIP3    H142759   1.900   4.782   7.443 -0.4461  1.4349 -1.2532
 6188TIP3    H242760   1.880   4.860   7.571 -0.9221  1.0627 -1.1007
 6189TIP3   OH242761   3.263   4.847   0.849 -0.1835  0.4441 -0.4461
 6189TIP3    H142762   3.348   4.808   0.830  0.0780  1.2922 -1.0693
 6189TIP3    H242763   3.208   4.772   0.873  0.4348 -0.2511 -1.1154
 6190TIP3   OH242764   0.974   0.351   2.373 -0.1904  0.4205 -0.6451
 6190TIP3    H142765   0.894   0.374   2.422  1.5402  2.8451  1.2820
 6190TIP3    H242766   1.037   0.327   2.440  1.5025  1.2131 -1.8795
 6191TIP3   OH242767   6.913   0.318   8.056  0.4815 -0.1256 -0.6798
 6191TIP3    H142768   6.859   0.329   8.134  0.6135 -1.5554 -0.3607
 6191TIP3    H242769   6.909   0.403   8.012 -1.5364 -0.0087 -0.3586
 6192TIP3   OH242770   1.891   1.805   0.045  0.6951 -0.3140  0.1957
 6192TIP3    H142771   1.849   1.795  -0.041 -1.1945  1.4434  0.8148
 6192TIP3    H242772   1.912   1.898   0.050  0.0992 -0.2288  1.8890
 6193TIP3   OH242773   0.112   2.723   9.707  0.0962 -0.5017 -0.2229
 6193TIP3    H142774   0.124   2.817   9.720  3.3746 -0.5979 -1.5294
 6193TIP3    H242775   0.104   2.713   9.613 -0.5659 -1.5302 -0.0706
 6194TIP3   OH242776   7.061   4.269   2.509  0.0438  0.1338  0.1779
 6194TIP3    H142777   7.132   4.252   2.447 -0.9606 -1.3458 -0.6377
 6194TIP3    H242778   7.105   4.283   2.593  1.3541  0.7055 -0.5658
 6195TIP3   OH242779   3.626   3.416   9.401  0.0638 -0.1282  0.0937
 6195TIP3    H142780   3.621   3.356   9.475 -0.9424 -0.1122  0.0566
 6195TIP3    H242781   3.643   3.360   9.325 -0.9156 -0.3900  0.0518
 6196TIP3   OH242782   5.167   7.053   1.160 -0.5243 -0.7696 -0.6556
 6196TIP3    H142783   5.201   6.978   1.208 -1.0721  0.5050  1.9200
 6196TIP3    H242784   5.185   7.034   1.068  0.9447 -3.1952  0.0619
 6197TIP3   OH242785   4.122   3.933   1.934  0.0737  0.5933  0.0058
 6197TIP3    H142786   4.192   3.869   1.922 -0.5531  0.0654 -0.9536
 6197TIP3    H242787   4.042   3.887   1.907 -0.9237  0.6065  2.6409
 6198TIP3   OH242788   4.403   0.049   7.889  0.3572 -0.5832  0.1006
 6198TIP3    H142789   4.403   0.135   7.848  1.7253 -1.1791 -1.2280
 6198TIP3    H242790   4.428   0.066   7.980  0.3488  0.4275 -0.0775
 6199TIP3   OH242791   3.957   2.827   9.355  0.2425 -0.1071 -0.6132
 6199TIP3    H142792   4.052   2.821   9.350  0.1882 -0.9655 -0.7238
 6199TIP3    H242793   3.935   2.787   9.439 -0.1022 -0.9763 -1.1074
 6200TIP3   OH242794   0.760   5.903   8.547 -0.6458 -0.6356  0.4536
 6200TIP3    H142795   0.844   5.858   8.537 -0.7666 -0.8424  0.3683
 6200TIP3    H242796   0.739   5.892   8.640 -0.1853  0.1173  0.6567
 6201TIP3   OH242797   5.699   2.820   0.984 -0.7322  0.3587  0.1882
 6201TIP3    H142798   5.695   2.806   1.079 -1.6293 -1.0045 -0.0118
 6201TIP3    H242799   5.763   2.757   0.953 -0.7038  0.5531 -0.1486
 6202TIP3   OH242800   2.738   1.880   9.512 -0.7565 -0.6921  0.6593
 6202TIP3    H142801   2.696   1.874   9.426 -1.2113  0.2548  0.7984
 6202TIP3    H242802   2.802   1.950   9.502  0.7950 -2.0802  0.4708
 6203TIP3   OH242803   1.468   0.509   8.797 -0.3674 -0.0165 -0.0532
 6203TIP3    H142804   1.458   0.568   8.722 -1.5291 -0.8947 -0.6245
 6203TIP3    H242805   1.559   0.481   8.793 -0.2678  0.3798 -0.8235
 6204TIP3   OH242806   6.508   5.491   0.197 -0.4959  0.0975 -0.1997
 6204TIP3    H142807   6.422   5.492   0.155 -0.8943 -0.6363  0.5583
 6204TIP3    H242808   6.556   5.420   0.153 -0.5856 -0.0634 -0.0384
 6205TIP3   OH242809   4.125   3.187   9.276  0.3556  0.8809 -0.4254
 6205TIP3    H142810   4.161   3.276   9.283  2.0232  0.1635  0.7723
 6205TIP3    H242811   4.152   3.158   9.189 -1.0598  1.8528 -1.2393
 6206TIP3   OH242812   3.687   2.586   1.120  0.6275  0.0771  0.0196
 6206TIP3    H142813   3.674   2.577   1.026 -0.4578  0.8207  0.0709
 6206TIP3    H242814   3.729   2.504   1.147  0.6609 -0.2725 -1.0635
 6207TIP3   OH242815   5.351   6.940   0.151 -0.0258  0.8150 -0.5567
 6207TIP3    H142816   5.427   6.933   0.094  0.6427  1.4084  0.2175
 6207TIP3    H242817   5.365   7.023   0.198 -0.9421  0.7234 -0.1069
 6208TIP3   OH242818   2.585   3.124   8.413 -0.2457  0.0998 -0.1362
 6208TIP3    H142819   2.491   3.105   8.423 -0.1208  0.1389  1.3828
 6208TIP3    H242820   2.613   3.150   8.501  0.5934  2.8953 -1.1318
 6209TIP3   OH242821   0.696   3.056   0.766  0.9445 -0.3747  0.1593
 6209TIP3    H142822   0.619   3.058   0.711  1.0759 -1.9780 -0.1165
 6209TIP3    H242823   0.679   2.987   0.830  1.7856 -0.1681  0.6269
 6210TIP3   OH242824   5.210   4.690   9.770 -0.1168  0.2352 -0.0477
 6210TIP3    H142825   5.200   4.769   9.717 -1.2192  1.1271  1.3828
 6210TIP3    H242826   5.177   4.620   9.714  0.4147  0.8496 -1.1750
 6211TIP3   OH242827   1.593   7.356   9.738  0.3732 -0.0768 -0.2198
 6211TIP3    H142828   1.612   7.435   9.788  0.5584  0.2243 -0.7649
 6211TIP3    H242829   1.534   7.384   9.668 -0.7601 -0.6976  0.4592
 6212TIP3   OH242830   1.851   1.976   8.425  0.4501  0.4997  0.0512
 6212TIP3    H142831   1.853   1.888   8.463  0.9661  0.9184  1.0176
 6212TIP3    H242832   1.761   1.987   8.395 -0.0278  0.2114  1.3095
 6213TIP3   OH242833   0.943   4.167   9.089  0.6013 -0.4843 -0.2515
 6213TIP3    H142834   0.976   4.257   9.094  0.9700 -0.6217 -0.1805
 6213TIP3    H242835   1.005   4.122   9.030 -0.1949 -0.4242 -1.1590
 6214TIP3   OH242836   5.403   5.654   9.747  0.1535  0.1294 -0.2632
 6214TIP3    H142837   5.424   5.701   9.828  1.1800 -1.9086  0.7528
 6214TIP3    H242838   5.487   5.641   9.704 -0.2306  0.1166 -1.0193
 6215TIP3   OH242839   6.121   5.077   8.942  0.3737 -0.4731  0.2622
 6215TIP3    H142840   6.045   5.105   8.992  2.4751  0.8511  2.9612
 6215TIP3    H242841   6.086   5.054   8.855 -2.8307  1.3922  0.9182
 6216TIP3   OH242842   7.491   0.141   8.940  0.2599  0.8731 -0.2644
 6216TIP3    H142843   7.516   0.137   8.847  1.2402  2.8064 -0.1506
 6216TIP3    H242844   7.535   0.220   8.972  1.1866 -0.5589  2.2266
 6217TIP3   OH242845   2.147   7.637   2.422 -0.1236 -0.1179 -0.1359
 6217TIP3    H142846   2.141   7.580   2.346 -2.2004  2.7551 -2.3716
 6217TIP3    H242847   2.071   7.613   2.476 -0.6745  0.1348 -0.7844
 6218TIP3   OH242848   2.052   6.501   9.850  0.2534 -0.0993  0.3901
 6218TIP3    H142849   2.078   6.441   9.920  0.0799 -1.8378 -0.9800
 6218TIP3    H242850   1.980   6.552   9.887  1.1976  0.1532  1.9895
 6219TIP3   OH242851   2.157   2.300   2.902  0.3478  0.6024  0.3872
 6219TIP3    H142852   2.087   2.336   2.956  1.6586 -0.1238  2.7086
 6219TIP3    H242853   2.163   2.208   2.929 -0.3946 -0.4898 -2.6666
 6220TIP3   OH242854   2.099   2.701   2.466 -0.1490  0.3470 -0.0564
 6220TIP3    H142855   2.045   2.776   2.443 -0.3755  0.2292  0.0966
 6220TIP3    H242856   2.039   2.638   2.505 -0.3081 -0.6885 -1.8747
 6221TIP3   OH242857   3.909   2.629   8.839 -0.0284  0.1312  0.0707
 6221TIP3    H142858   3.914   2.535   8.856  0.9114  0.4092  1.5581
 6221TIP3    H242859   3.819   2.644   8.812 -1.7173 -0.5584  4.4637
 6222TIP3   OH242860   2.256   2.880   9.889  1.0390  0.1616 -0.8360
 6222TIP3    H142861   2.237   2.851   9.799  1.4003 -1.0197 -0.5431
 6222TIP3    H242862   2.309   2.810   9.926  0.3575  0.3300  0.5112
 6223TIP3   OH242863   7.446   6.123   7.745 -0.6449 -0.0120 -0.2987
 6223TIP3    H142864   7.371   6.112   7.687  0.2975 -1.1848 -1.3385
 6223TIP3    H242865   7.424   6.200   7.798 -2.9412 -0.8030  0.0090
 6224TIP3   OH242866   0.031   0.095   9.349  0.5814  0.0905  0.2643
 6224TIP3    H142867   0.047   0.018   9.403  2.6640 -0.2900 -0.7667
 6224TIP3    H242868  -0.001   0.060   9.266  0.8338  0.3824  0.0389
 6225TIP3   OH242869   3.479   0.243   0.730 -0.0580  0.0352  0.0396
 6225TIP3    H142870   3.449   0.157   0.701 -3.0905  0.6535  0.9743
 6225TIP3    H242871   3.418   0.305   0.690  0.5887  1.5492  1.2696
 6226TIP3   OH242872   2.342   1.143   9.740  0.5184 -0.0145 -0.0926
 6226TIP3    H142873   2.248   1.159   9.733  0.4991  0.6141  1.2956
 6226TIP3    H242874   2.374   1.148   9.650 -0.4935  1.6735 -0.4075
 6227TIP3   OH242875   4.200   0.252   0.154  0.2142  0.1211 -0.1602
 6227TIP3    H142876   4.233   0.271   0.242  2.3255  0.0550 -0.8942
 6227TIP3    H242877   4.179   0.158   0.156  2.7610 -0.5361 -0.4048
 6228TIP3   OH242878   5.516   5.724   1.121 -0.1995  0.0325 -0.0894
 6228TIP3    H142879   5.607   5.726   1.091 -0.5366  0.7913 -1.0787
 6228TIP3    H242880   5.481   5.643   1.085 -0.2363  0.2999 -0.6549
 6229TIP3   OH242881   5.796   5.931   9.780 -0.0283 -0.0502  0.3090
 6229TIP3    H142882   5.814   5.854   9.726  0.1898  0.7668 -0.8246
 6229TIP3    H242883   5.705   5.922   9.807  0.1937 -1.0353  0.7537
 6230TIP3   OH242884   3.768   0.057   0.586 -0.0405  0.0982  0.8841
 6230TIP3    H142885   3.775   0.143   0.544 -0.2017 -0.4661 -0.3502
 6230TIP3    H242886   3.693   0.016   0.544  0.9629 -1.2417  0.3295
 6231TIP3   OH242887   0.812   0.847   1.784  0.0609  0.3289 -0.2562
 6231TIP3    H142888   0.900   0.843   1.821  0.0656 -1.5412 -0.3624
 6231TIP3    H242889   0.755   0.866   1.859  0.2846 -1.3664  0.3909
 6232TIP3   OH242890   5.633   0.489   8.577 -0.1165  0.4750 -0.2185
 6232TIP3    H142891   5.585   0.519   8.654 -2.2115 -0.0020 -1.2674
 6232TIP3    H242892   5.673   0.406   8.605 -0.7051  0.3916  0.3921
 6233TIP3   OH242893   3.982   6.645   2.698  0.0798  0.2174 -0.2623
 6233TIP3    H142894   3.963   6.554   2.678 -0.1650  0.1110  0.4258
 6233TIP3    H242895   3.943   6.694   2.626  2.0484 -0.3230 -1.7813
 6234TIP3   OH242896   0.571   1.828   8.540  0.0343 -0.4760  0.0442
 6234TIP3    H142897   0.625   1.847   8.463  0.2527 -1.1510  0.0276
 6234TIP3    H242898   0.492   1.879   8.526 -0.5793 -1.7456 -1.3779
 6235TIP3   OH242899   6.680   3.343   8.664  0.1674 -0.0941 -0.0416
 6235TIP3    H142900   6.595   3.315   8.697 -0.8496  2.0051 -0.7734
 6235TIP3    H242901   6.723   3.261   8.637 -0.5613 -1.4591  2.5749
 6236TIP3   OH242902   7.540   5.690   7.556 -0.4084  0.1848 -0.5217
 6236TIP3    H142903   7.455   5.726   7.531 -1.2374 -0.7736  0.7610
 6236TIP3    H242904   7.541   5.603   7.516 -1.2596 -0.9011  1.6533
 6237TIP3   OH242905   5.386   3.618   0.072  0.0321  1.1574  0.7548
 6237TIP3    H142906   5.360   3.551   0.010 -0.3570 -0.1849  2.3109
 6237TIP3    H242907   5.467   3.654   0.035  0.4683 -0.4342  0.0675
 6238TIP3   OH242908   4.537   1.029   1.158  0.0341  0.7909  0.8075
 6238TIP3    H142909   4.619   1.014   1.205  2.0290  1.0336 -2.3115
 6238TIP3    H242910   4.534   1.124   1.144 -0.3789  0.7027  0.2348
 6239TIP3   OH242911   6.570   4.983   1.790 -0.0219 -0.0602  0.0001
 6239TIP3    H142912   6.597   4.932   1.867  0.4633  2.6065  1.7131
 6239TIP3    H242913   6.533   4.918   1.731  0.1869 -2.3453  2.1906
 6240TIP3   OH242914   5.274   1.845   9.342 -0.1792 -0.0182  0.3643
 6240TIP3    H142915   5.246   1.923   9.389 -0.1154  0.3303 -0.1624
 6240TIP3    H242916   5.298   1.877   9.255  0.1489 -0.5771  0.2424
 6241TIP3   OH242917   0.699   0.846   2.337  0.5021 -0.3288 -0.7781
 6241TIP3    H142918   0.752   0.792   2.396  0.2722  0.3159  0.0486
 6241TIP3    H242919   0.732   0.935   2.350 -0.0558 -0.0758 -1.0618
 6242TIP3   OH242920   0.251   1.105   2.286 -0.2015 -0.4952 -0.4890
 6242TIP3    H142921   0.220   1.047   2.355 -0.9113 -2.2013 -2.1604
 6242TIP3    H242922   0.180   1.168   2.274 -0.9270 -1.3743 -0.9440
 6243TIP3   OH242923   1.837   6.258   1.539 -0.2427  0.0664  0.1630
 6243TIP3    H142924   1.801   6.174   1.567 -2.4725 -0.8475 -4.4314
 6243TIP3    H242925   1.929   6.240   1.519 -0.2470 -0.7684  0.8335
 6244TIP3   OH242926   5.947   3.394   9.844 -0.8465  0.5705 -0.0932
 6244TIP3    H142927   5.900   3.477   9.856 -0.5211  0.3186  4.6266
 6244TIP3    H242928   5.899   3.331   9.898  1.5105 -1.1826  0.1020
 6245TIP3   OH242929   7.445   2.865   2.024 -0.6308 -0.9034 -0.0774
 6245TIP3    H142930   7.524   2.917   2.038 -1.9024  0.6873  1.5397
 6245TIP3    H242931   7.436   2.863   1.928  1.1032 -0.7926 -0.2929
 6246TIP3   OH242932   1.736   3.453   6.526  0.2599 -0.1392 -0.1780
 6246TIP3    H142933   1.648   3.437   6.560 -0.5055  0.5883 -1.7006
 6246TIP3    H242934   1.729   3.537   6.480  2.2101  0.8309  1.1422
 6247TIP3   OH242935   6.264   1.595   1.468 -0.3878  0.1101 -0.4342
 6247TIP3    H142936   6.333   1.569   1.407 -0.2074  0.3154 -0.3191
 6247TIP3    H242937   6.306   1.593   1.554 -1.5990 -4.0162  0.2861
 6248TIP3   OH242938   3.665   0.700   9.693  0.1311 -0.1176  0.1328
 6248TIP3    H142939   3.621   0.618   9.716  1.1522 -0.4716  0.8806
 6248TIP3    H242940   3.716   0.722   9.771 -0.2263  1.3103 -0.0012
 6249TIP3   OH242941   3.502   1.973   8.621  0.1609  0.5857  0.6904
 6249TIP3    H142942   3.411   1.951   8.645  0.0313  1.1822  0.7643
 6249TIP3    H242943   3.544   1.889   8.606 -0.9426  0.3359 -1.3766
 6250TIP3   OH242944   7.469   1.943   9.469  0.4722  0.8776 -0.4953
 6250TIP3    H142945   7.434   1.954   9.557 -0.7156  0.0460 -0.8353
 6250TIP3    H242946   7.471   1.848   9.456  3.5737  0.7997 -0.2487
 6251TIP3   OH242947   1.662   2.163   7.160  0.0126 -0.0206  0.3551
 6251TIP3    H142948   1.603   2.179   7.233  1.8161  0.2130  1.8543
 6251TIP3    H242949   1.645   2.235   7.099 -2.9340 -1.3153 -0.5370
 6252TIP3   OH242950   3.764   3.660   9.246  0.2538 -0.2958 -0.3444
 6252TIP3    H142951   3.724   3.638   9.162  1.0793  0.2068 -0.8861
 6252TIP3    H242952   3.755   3.581   9.298  1.1858 -1.1975 -1.4875
 6253TIP3   OH242953   4.206   1.475   0.490  0.3301  0.1299 -0.2130
 6253TIP3    H142954   4.279   1.448   0.435  0.8126  0.3502  0.3154
 6253TIP3    H242955   4.190   1.400   0.547 -1.5576 -0.9498 -2.0348
 6254TIP3   OH242956   4.458   1.863   0.104  0.1585  0.1043 -0.0988
 6254TIP3    H142957   4.545   1.886   0.072  0.1965  1.4045  0.8397
 6254TIP3    H242958   4.442   1.924   0.177 -1.0019 -0.9703  0.5891
 6255TIP3   OH242959   6.015   1.512   1.568 -0.3070  0.2453  0.0125
 6255TIP3    H142960   5.933   1.479   1.532 -0.0502 -1.3275  0.7821
 6255TIP3    H242961   6.079   1.497   1.499 -0.5455  0.9646 -0.3772
 6256TIP3   OH242962   4.414   6.387   8.574  0.2671 -0.5409  0.2880
 6256TIP3    H142963   4.344   6.378   8.509  0.9640  1.4771 -0.8635
 6256TIP3    H242964   4.462   6.305   8.569  1.6367  0.2820 -3.5122
 6257TIP3   OH242965   5.980   1.714   2.074 -0.0526 -0.3295 -0.7760
 6257TIP3    H142966   6.024   1.636   2.108  0.6314 -0.1402 -1.2023
 6257TIP3    H242967   6.045   1.784   2.084  0.7354 -0.5028 -3.6465
 6258TIP3   OH242968   1.617   1.650   1.194  0.5911 -0.0004  0.0376
 6258TIP3    H142969   1.633   1.579   1.132 -1.4978  0.3138 -0.9474
 6258TIP3    H242970   1.642   1.614   1.279 -0.2832 -1.8900 -0.4584
 6259TIP3   OH242971   3.461   7.403   1.350  0.4791  0.1868  0.2312
 6259TIP3    H142972   3.454   7.308   1.350 -0.1238  0.2275  0.4341
 6259TIP3    H242973   3.372   7.434   1.369  0.8395  0.7815  0.9713
 6260TIP3   OH242974   1.432   1.376   8.073 -0.0346 -0.3114  0.0162
 6260TIP3    H142975   1.361   1.379   8.010 -0.1957 -1.8751  0.0868
 6260TIP3    H242976   1.490   1.307   8.041 -0.1620 -1.1900  1.6003
 6261TIP3   OH242977   6.984   0.477   1.819 -0.0997  0.3279  0.4320
 6261TIP3    H142978   7.066   0.515   1.851  0.5119 -0.9070  0.3592
 6261TIP3    H242979   6.950   0.427   1.893  0.0219 -0.4469 -0.0211
 6262TIP3   OH242980   2.820   2.181   7.534  0.0287  0.0055  0.3089
 6262TIP3    H142981   2.746   2.134   7.571  0.1217 -0.9174 -0.6147
 6262TIP3    H242982   2.793   2.202   7.445 -0.1648  2.1075  0.8310
 6263TIP3   OH242983   4.998   6.983   0.234 -0.1949 -0.0233  0.3890
 6263TIP3    H142984   5.059   6.909   0.241 -1.8422 -1.4664  0.1708
 6263TIP3    H242985   5.031   7.046   0.298  1.6208 -0.6532  0.1522
 6264TIP3   OH242986   6.318   3.643   1.066  0.3128  0.0412  0.0048
 6264TIP3    H142987   6.250   3.575   1.064 -3.2560  3.1623  1.3985
 6264TIP3    H242988   6.321   3.677   0.976  0.2059 -0.2923 -0.1247
 6265TIP3   OH242989   4.951   0.772   7.211  0.4976  0.1849 -0.0183
 6265TIP3    H142990   5.021   0.825   7.247 -0.7620  1.7282  0.2915
 6265TIP3    H242991   4.937   0.807   7.123  0.5352 -0.5436 -0.3247
 6266TIP3   OH242992   3.415   4.954   0.619 -0.3155  0.6795  0.5974
 6266TIP3    H142993   3.451   4.963   0.530 -0.1815  0.1442  0.5953
 6266TIP3    H242994   3.443   4.867   0.648 -0.7201  0.6789  1.0032
 6267TIP3   OH242995   6.207   1.259   2.095 -0.1728 -0.2538 -0.0769
 6267TIP3    H142996   6.149   1.333   2.112  0.1757 -0.1289  0.6072
 6267TIP3    H242997   6.184   1.194   2.161  1.2151  0.2491  0.9592
 6268TIP3   OH242998   3.954   2.603   2.540  0.1695 -0.1188  0.2473
 6268TIP3    H142999   3.941   2.685   2.589  1.3005  1.3548 -1.7526
 6268TIP3    H243000   3.878   2.598   2.482  1.2632  0.8827 -1.3527
 6269TIP3   OH243001   3.495   6.081   0.217  0.4047  0.0093 -0.2519
 6269TIP3    H143002   3.470   6.005   0.270 -0.1524  0.3716  0.0167
 6269TIP3    H243003   3.502   6.153   0.281  4.3501 -0.4649  0.1278
 6270TIP3   OH243004   7.267   3.678   1.962  0.0565 -0.2393  0.3373
 6270TIP3    H143005   7.254   3.589   1.930  0.0153 -0.6186  1.3569
 6270TIP3    H243006   7.218   3.733   1.901 -1.0885 -1.0524  0.4935
 6271TIP3   OH243007   0.090   0.843   1.184  0.4301  0.1104  0.0831
 6271TIP3    H143008   0.109   0.937   1.183  0.6148  0.0874  0.9374
 6271TIP3    H243009  -0.006   0.838   1.183  0.3887  0.3473  1.3277
 6272TIP3   OH243010   3.701   7.577   9.955 -0.1004 -0.0542 -0.2768
 6272TIP3    H143011   3.755   7.633   9.900  0.4859 -1.3934 -1.1093
 6272TIP3    H243012   3.735   7.488   9.940 -0.9010 -0.6227  1.1094
 6273TIP3   OH243013   1.606   7.477   0.845  0.1416 -0.4894 -0.0292
 6273TIP3    H143014   1.580   7.505   0.933  0.1645 -1.5630  0.3318
 6273TIP3    H243015   1.701   7.487   0.844  0.0989 -0.0766 -0.0779
 6274TIP3   OH243016   2.963   6.122   2.643 -0.2625  0.1246 -0.2704
 6274TIP3    H143017   2.932   6.209   2.667 -0.0227 -0.0074  0.5774
 6274TIP3    H243018   3.018   6.095   2.717 -0.0958 -0.6256 -0.6533
 6275TIP3   OH243019   0.795   6.120   7.902 -0.3502 -0.1599 -0.3949
 6275TIP3    H143020   0.879   6.090   7.867 -0.1801  0.6887 -0.7506
 6275TIP3    H243021   0.730   6.065   7.859 -0.1465  0.8553 -2.1059
 6276TIP3   OH243022   2.067   3.243   1.058 -0.0448  0.5305  0.2782
 6276TIP3    H143023   2.153   3.238   1.098  0.0020 -0.5768  0.0715
 6276TIP3    H243024   2.068   3.325   1.007  0.5776  0.9400  0.9395
 6277TIP3   OH243025   2.465   5.550   2.798 -0.0365 -0.0318 -0.1994
 6277TIP3    H143026   2.508   5.620   2.750 -1.6679  1.0023 -0.2444
 6277TIP3    H243027   2.455   5.584   2.887 -1.5054  0.1470 -0.3987
 6278TIP3   OH243028   5.526   0.587   1.587 -0.0945 -0.1976 -0.4237
 6278TIP3    H143029   5.446   0.632   1.613  0.8905  0.4267  1.7541
 6278TIP3    H243030   5.533   0.515   1.649  1.7559  0.6171  0.3583
 6279TIP3   OH243031   6.118   3.719   0.625 -0.7869 -0.1688  0.3840
 6279TIP3    H143032   6.096   3.655   0.558  0.7978 -0.9514  0.5608
 6279TIP3    H243033   6.053   3.705   0.694 -0.0880 -2.0740  0.7101
 6280TIP3   OH243034   2.368   4.379   7.673  0.1562 -1.0985 -0.1411
 6280TIP3    H143035   2.333   4.291   7.688 -1.1213 -0.4617  0.8963
 6280TIP3    H243036   2.310   4.418   7.608  0.6880 -1.0065 -0.5657
 6281TIP3   OH243037   2.038   5.976   7.129  0.2393 -0.3753 -0.2421
 6281TIP3    H143038   1.944   5.995   7.132  0.4064  0.4341 -0.0199
 6281TIP3    H243039   2.070   5.996   7.217  1.3172  3.1860 -1.2891
 6282TIP3   OH243040   1.455   0.263   1.764  0.5615 -0.2160 -0.1952
 6282TIP3    H143041   1.401   0.198   1.809  1.8237  0.7917  3.0944
 6282TIP3    H243042   1.542   0.223   1.759  0.8147  0.3391 -0.2759
 6283TIP3   OH243043   3.689   1.726   1.458  0.6475  0.2057 -0.0774
 6283TIP3    H143044   3.706   1.806   1.409  0.2003  0.9252  0.8961
 6283TIP3    H243045   3.754   1.664   1.426 -1.2902 -0.2663 -3.5200
 6284TIP3   OH243046   3.082   0.679   9.146 -0.2736 -0.2134 -0.1825
 6284TIP3    H143047   3.164   0.702   9.190 -0.4737 -1.7897  1.1318
 6284TIP3    H243048   3.082   0.730   9.065  2.0426 -0.2510 -0.2617
 6285TIP3   OH243049   0.537   7.350   9.842 -0.1157  0.5490  0.0296
 6285TIP3    H143050   0.616   7.333   9.893 -0.0157 -1.5981 -0.7648
 6285TIP3    H243051   0.472   7.378   9.907  0.2072 -1.4263  1.2850
 6286TIP3   OH243052   0.540   6.541   2.050 -0.5012  0.0201 -0.7188
 6286TIP3    H143053   0.592   6.534   1.970 -0.3535 -0.5880 -0.5754
 6286TIP3    H243054   0.605   6.549   2.120 -0.6402  1.5034 -0.7321
 6287TIP3   OH243055   7.255   2.114   0.593 -0.2080 -0.4701 -0.4132
 6287TIP3    H143056   7.262   2.023   0.624  0.8382  0.4639  2.4630
 6287TIP3    H243057   7.345   2.140   0.574 -0.1511  0.6386  1.1704
 6288TIP3   OH243058   7.547   7.043   7.497  0.1434  0.7104 -0.7075
 6288TIP3    H143059   7.499   6.960   7.503  0.5120  0.3844 -2.0918
 6288TIP3    H243060   7.637   7.017   7.476  0.7342  1.3705  0.8318
 6289TIP3   OH243061   4.495   1.620   1.642  0.0371  0.0335  0.1514
 6289TIP3    H143062   4.579   1.608   1.599 -0.1882  1.9011 -0.9030
 6289TIP3    H243063   4.453   1.691   1.594 -0.7669  1.4031  2.6903
 6290TIP3   OH243064   3.383   7.062   9.359 -0.3433 -0.4411  0.2521
 6290TIP3    H143065   3.391   7.040   9.266 -0.3448 -1.5270  0.4960
 6290TIP3    H243066   3.424   6.988   9.405  2.4038  1.4570  1.0537
 6291TIP3   OH243067   7.639   6.373   9.205  0.0421 -0.1763 -0.4826
 6291TIP3    H143068   7.554   6.411   9.183 -0.1068  1.2047  2.1152
 6291TIP3    H243069   7.680   6.436   9.264  1.6896 -2.0449  0.5201
 6292TIP3   OH243070   6.005   6.917   0.257 -0.1819 -0.4058  0.1071
 6292TIP3    H143071   6.038   6.922   0.347 -0.0788  0.2414  0.0390
 6292TIP3    H243072   5.916   6.950   0.263 -0.0600 -0.0328 -0.0796
 6293TIP3   OH243073   1.520   1.927   7.371  0.2130  0.5317 -0.1708
 6293TIP3    H143074   1.500   2.019   7.355  1.7390  0.8476 -0.4475
 6293TIP3    H243075   1.608   1.928   7.410  0.2898 -0.8034 -0.2602
 6294TIP3   OH243076   6.370   3.983   8.109 -0.8855  0.0343  0.3940
 6294TIP3    H143077   6.318   3.991   8.189  0.4527  0.9999  1.2271
 6294TIP3    H243078   6.447   4.038   8.126  0.0679 -0.8010 -1.0465
 6295TIP3   OH243079   1.986   2.427   8.925 -0.0307 -0.0069 -0.8862
 6295TIP3    H143080   1.916   2.382   8.973  0.4601 -1.3546 -1.3904
 6295TIP3    H243081   1.940   2.491   8.871 -0.6404  1.0921  0.8711
 6296TIP3   OH243082   2.430   1.025   0.284  0.4348  0.8061  0.4516
 6296TIP3    H143083   2.365   0.978   0.335  0.9300 -0.8090 -0.3384
 6296TIP3    H243084   2.396   1.024   0.194 -0.7849  4.2209  0.6984
 6297TIP3   OH243085   5.641   6.895   8.966 -0.6488 -0.3811  0.2691
 6297TIP3    H143086   5.605   6.976   8.930  3.1494 -0.0274 -3.5622
 6297TIP3    H243087   5.684   6.922   9.048 -0.9941  1.0593 -0.0022
 6298TIP3   OH243088   4.340   6.318   1.495 -0.7376 -0.4228 -0.4391
 6298TIP3    H143089   4.338   6.407   1.530  1.7572  0.3114 -1.9047
 6298TIP3    H243090   4.269   6.316   1.430 -1.1986  0.2888  0.0306
 6299TIP3   OH243091   5.821   1.198   2.276 -0.2330 -0.5562  0.1814
 6299TIP3    H143092   5.737   1.154   2.283  0.1298 -1.3334 -0.2156
 6299TIP3    H243093   5.806   1.285   2.314 -1.6926 -0.0113 -1.5425
 6300TIP3   OH243094   5.427   4.548   0.552  0.1866 -0.8636  0.3397
 6300TIP3    H143095   5.484   4.509   0.618 -0.6681 -1.6020  0.6598
 6300TIP3    H243096   5.371   4.476   0.523 -0.9620 -0.0438  0.4413
 6301TIP3   OH243097   0.424   3.854   1.548  0.3597  0.0133 -0.6437
 6301TIP3    H143098   0.461   3.907   1.478  1.4636 -0.8855 -0.7670
 6301TIP3    H243099   0.363   3.795   1.504 -2.8525  2.7142 -0.2525
 6302TIP3   OH243100   4.496   0.610   9.285  0.6925 -0.8241  0.0619
 6302TIP3    H143101   4.475   0.695   9.245 -1.4682 -1.2752  0.1380
 6302TIP3    H243102   4.496   0.548   9.212  1.7547 -0.8663  0.0825
 6303TIP3   OH243103   3.047   3.339   0.092 -0.4187 -0.1749  0.5972
 6303TIP3    H143104   2.999   3.422   0.092  0.2040  0.2039  1.3524
 6303TIP3    H243105   3.135   3.362   0.124  0.6331 -0.6515 -1.7481
 6304TIP3   OH243106   4.802   6.944   8.015  0.0821  0.0279 -0.1149
 6304TIP3    H143107   4.857   6.874   7.978 -0.0657 -0.7862  1.1601
 6304TIP3    H243108   4.832   7.023   7.970  2.4417 -0.3572  0.6171
 6305TIP3   OH243109   3.173   6.932   7.241 -0.2294  0.2383 -0.0358
 6305TIP3    H143110   3.258   6.892   7.223 -0.3837  0.1950 -0.7077
 6305TIP3    H243111   3.193   7.011   7.291  0.6237  2.4559 -3.5002
 6306TIP3   OH243112   4.438   0.005   0.021  0.0586  0.1427 -0.1697
 6306TIP3    H143113   4.343   0.006   0.026 -0.0147 -0.9789 -0.9527
 6306TIP3    H243114   4.457   0.041  -0.066  0.1145 -3.3387 -1.7448
 6307TIP3   OH243115   1.454   2.002   0.835 -0.2500  0.4528  0.1195
 6307TIP3    H143116   1.497   1.921   0.863 -2.3705 -0.6968  0.2732
 6307TIP3    H243117   1.442   2.053   0.915 -0.3651  0.1789  0.2759
 6308TIP3   OH243118   2.854   7.308   7.472  0.4744  0.4699 -0.6148
 6308TIP3    H143119   2.842   7.214   7.454  2.1691  0.0338  0.3063
 6308TIP3    H243120   2.947   7.323   7.454  0.6445  1.5474  0.9895
 6309TIP3   OH243121   1.827   5.577   2.571 -0.0546 -0.4654  0.0054
 6309TIP3    H143122   1.805   5.506   2.511  0.0918 -1.8302  1.4908
 6309TIP3    H243123   1.860   5.532   2.650  1.0839  1.2868  0.5806
 6310TIP3   OH243124   3.138   7.470   1.129  0.0314  0.2892 -0.2529
 6310TIP3    H143125   3.189   7.390   1.140 -0.4497  0.1501  1.2025
 6310TIP3    H243126   3.171   7.509   1.048 -0.7697 -2.1548 -1.8629
 6311TIP3   OH243127   2.791   1.439   8.975 -0.1831  0.3313 -0.5288
 6311TIP3    H143128   2.741   1.521   8.976  0.2684  0.6365 -1.5110
 6311TIP3    H243129   2.870   1.460   8.923  0.5343 -0.3834  0.2466
 6312TIP3   OH243130   2.915   2.255   1.298 -0.2136 -0.5480  0.3146
 6312TIP3    H143131   2.893   2.162   1.300 -1.5454 -0.2452  1.5457
 6312TIP3    H243132   2.937   2.276   1.389 -0.3649  0.4455  0.1346
 6313TIP3   OH243133   7.066   2.070   8.820  0.0611  0.3169  0.3174
 6313TIP3    H143134   7.134   2.023   8.869 -0.2519 -0.0767  0.3845
 6313TIP3    H243135   7.096   2.161   8.818  1.5447 -0.1432 -1.2664
 6314TIP3   OH243136   3.442   3.101   8.330 -0.2110 -0.0903  0.0542
 6314TIP3    H143137   3.475   3.186   8.361 -0.8770  0.4143 -0.5911
 6314TIP3    H243138   3.423   3.115   8.237  0.1826 -1.1064 -0.1927
 6315TIP3   OH243139   2.022   0.507   1.047  0.2430 -0.0037 -0.2829
 6315TIP3    H143140   1.932   0.473   1.054 -0.0736  0.8127 -0.2281
 6315TIP3    H243141   2.051   0.515   1.138 -0.0661  0.8320 -0.2486
 6316TIP3   OH243142   4.361   0.339   9.152 -0.3661  0.1072  0.2236
 6316TIP3    H143143   4.317   0.254   9.142 -1.2929  0.5305  0.6414
 6316TIP3    H243144   4.292   0.404   9.143  0.5384  0.9053 -1.3880
 6317TIP3   OH243145   6.676   1.227   0.235 -0.4063  0.0728 -0.5207
 6317TIP3    H143146   6.611   1.208   0.167 -1.9945  1.0389  0.6693
 6317TIP3    H243147   6.654   1.166   0.306  0.9885 -0.6583 -0.6919
 6318TIP3   OH243148   4.196   5.334   9.758  0.1285  0.0409  0.0271
 6318TIP3    H143149   4.191   5.295   9.670  1.1435 -0.5734  0.2328
 6318TIP3    H243150   4.128   5.401   9.757  0.2374  0.1699 -1.2940
 6319TIP3   OH243151   5.951   5.990   0.021 -0.4831  0.0801  0.2791
 6319TIP3    H143152   6.030   5.940   0.041  0.1886  1.2789  0.7238
 6319TIP3    H243153   5.919   5.952  -0.061  0.8709 -0.0658 -0.2043
 6320TIP3   OH243154   0.801   7.097   8.128  0.5085 -0.0154  0.2858
 6320TIP3    H143155   0.828   7.183   8.094 -1.6832  0.3356 -0.7151
 6320TIP3    H243156   0.780   7.046   8.050  0.9791 -1.1962  0.9200
 6321TIP3   OH243157   3.401   1.344   7.918 -0.2095 -0.2335  0.2658
 6321TIP3    H143158   3.476   1.319   7.863 -1.0957 -0.1637 -1.0238
 6321TIP3    H243159   3.336   1.276   7.902 -0.7810  0.2281  0.6067
 6322TIP3   OH243160   1.005   5.697   7.478  0.3549  0.6900  0.3291
 6322TIP3    H143161   0.924   5.748   7.483 -0.5886 -0.8566  2.2622
 6322TIP3    H243162   0.985   5.615   7.523  2.1193 -1.0089 -1.7187
 6323TIP3   OH243163   2.423   3.630   1.293  0.2623 -0.1429 -0.1300
 6323TIP3    H143164   2.469   3.713   1.283 -1.0331  0.6014 -0.0470
 6323TIP3    H243165   2.422   3.592   1.206  0.6199  0.0454 -0.2195
 6324TIP3   OH243166   4.696   0.596   7.104  1.1380  0.3372  0.4805
 6324TIP3    H143167   4.617   0.544   7.089 -0.0451  1.6280  1.9151
 6324TIP3    H243168   4.716   0.634   7.018  1.0409 -1.1088 -0.2052
 6325TIP3   OH243169   1.669   1.022   0.303 -0.2090 -0.1841 -0.0464
 6325TIP3    H143170   1.724   0.945   0.318  0.4426  0.2874  0.0616
 6325TIP3    H243171   1.719   1.075   0.241 -0.5696  0.2232  0.0072
 6326TIP3   OH243172   7.298   2.781   0.342 -0.0135 -0.2749 -0.2191
 6326TIP3    H143173   7.303   2.829   0.425  3.0540  2.6779 -1.8929
 6326TIP3    H243174   7.377   2.728   0.341  0.5659  0.5643 -1.6580
 6327TIP3   OH243175   1.736   3.925   9.136 -0.3299  0.2703 -0.0238
 6327TIP3    H143176   1.745   3.891   9.225  2.1611 -2.1655 -1.0725
 6327TIP3    H243177   1.820   3.968   9.118 -0.9400  1.0641 -1.0906
 6328TIP3   OH243178   1.718   0.738   8.532 -0.0317 -0.0480 -0.5412
 6328TIP3    H143179   1.687   0.711   8.446 -3.1686  0.1219  0.4192
 6328TIP3    H243180   1.725   0.833   8.527  2.2491 -0.1978 -1.2689
 6329TIP3   OH243181   2.285   3.825   1.445 -0.0605 -0.5412  0.4006
 6329TIP3    H143182   2.292   3.745   1.394 -0.3429  0.3220 -1.0494
 6329TIP3    H243183   2.343   3.887   1.401 -1.0764  0.5256  0.4868
 6330TIP3   OH243184   7.276   3.968   8.257  0.0690 -0.0710  0.3527
 6330TIP3    H143185   7.312   3.971   8.169  0.7114  0.9825  0.6366
 6330TIP3    H243186   7.232   3.883   8.262  0.1292 -0.1990 -0.9304
 6331TIP3   OH243187   1.055   0.135   7.035 -0.6068  0.8778  0.1818
 6331TIP3    H143188   1.065   0.190   6.957 -1.3099 -0.0414 -0.5855
 6331TIP3    H243189   1.120   0.169   7.096  0.6371  1.0293 -1.1547
 6332TIP3   OH243190   6.397   0.324   0.146 -0.0894 -0.3801  0.5739
 6332TIP3    H143191   6.452   0.250   0.169  0.3415  0.2862  1.7924
 6332TIP3    H243192   6.313   0.307   0.189 -0.4491 -0.7896 -0.2557
 6333TIP3   OH243193   2.817   1.613   9.504  0.1922 -0.3233  0.1600
 6333TIP3    H143194   2.891   1.619   9.444 -0.0948  1.5271 -0.0712
 6333TIP3    H243195   2.811   1.699   9.544 -1.9221 -0.3627  0.0606
 6334TIP3   OH243196   2.950   6.209   1.615 -0.1435  0.3890  0.4705
 6334TIP3    H143197   2.935   6.125   1.659  0.6037  0.2359  0.4562
 6334TIP3    H243198   2.947   6.187   1.522 -0.1689  0.4218  0.4637
 6335TIP3   OH243199   1.815   1.482   8.984 -0.0460  0.2073 -0.3769
 6335TIP3    H143200   1.730   1.438   8.977 -0.3510  0.8814 -1.0517
 6335TIP3    H243201   1.808   1.535   9.064 -0.1903  0.1011 -0.3187
 6336TIP3   OH243202   1.627   1.691   7.246 -0.4751  0.0179 -0.1301
 6336TIP3    H143203   1.605   1.708   7.338 -0.2997  0.7202 -0.2083
 6336TIP3    H243204   1.571   1.618   7.221 -0.5275 -0.1801  0.5343
 6337TIP3   OH243205   6.921   5.180   9.379 -0.3008  0.1018 -0.7578
 6337TIP3    H143206   6.912   5.133   9.295  0.3651  0.3072 -0.9510
 6337TIP3    H243207   6.903   5.272   9.357 -1.8721 -0.0678 -0.3288
 6338TIP3   OH243208   1.975   0.589   2.023 -0.4833  0.5762 -0.1217
 6338TIP3    H143209   2.060   0.561   1.989 -0.5756 -0.4428  0.4300
 6338TIP3    H243210   1.992   0.615   2.113 -0.1769  3.5946 -0.9678
 6339TIP3   OH243211   6.696   5.951   8.927 -0.1323 -0.1845  0.3357
 6339TIP3    H143212   6.638   6.025   8.905 -1.2737 -0.8765  0.8950
 6339TIP3    H243213   6.641   5.893   8.979  1.2206 -0.6773  1.2605
 6340TIP3   OH243214   1.045   4.852   0.046  0.1216  0.4695 -0.2927
 6340TIP3    H143215   0.949   4.850   0.048  0.1008 -1.5810 -0.5836
 6340TIP3    H243216   1.070   4.769   0.005  2.0232  1.4649 -1.3111
 6341TIP3   OH243217   5.874   5.200   9.024 -0.1379 -0.5244  0.2877
 6341TIP3    H143218   5.824   5.270   9.065  1.5386  1.6243 -1.1090
 6341TIP3    H243219   5.808   5.136   8.997 -2.1284  1.9053 -1.0106
 6342TIP3   OH243220   4.519   6.428   7.093  0.0937  0.2166  0.1611
 6342TIP3    H143221   4.611   6.410   7.071  0.1777 -0.9635  1.3533
 6342TIP3    H243222   4.522   6.510   7.143  0.0565  2.1283 -2.7129
 6343TIP3   OH243223   0.543   2.927   7.880 -0.1471 -0.4115  0.1706
 6343TIP3    H143224   0.469   2.866   7.883 -1.8834  1.5270 -0.6551
 6343TIP3    H243225   0.587   2.906   7.798 -1.2381 -0.0535 -0.5377
 6344TIP3   OH243226   1.629   4.863   0.609  0.4760  0.3261 -0.1867
 6344TIP3    H143227   1.559   4.901   0.557  1.0362  0.8789 -0.5463
 6344TIP3    H243228   1.626   4.769   0.589  0.5324  0.4976 -1.0375
 6345TIP3   OH243229   1.340   6.120   9.812  0.7066  0.2363  0.2380
 6345TIP3    H143230   1.400   6.140   9.741  0.7579 -0.5662  0.0493
 6345TIP3    H243231   1.349   6.025   9.826  1.3440  0.4982  1.8898
 6346TIP3   OH243232   6.154   3.797   8.307 -0.0214 -0.2959  0.5554
 6346TIP3    H143233   6.069   3.835   8.283 -0.8327 -1.1910  1.9149
 6346TIP3    H243234   6.174   3.835   8.392  1.5100  0.7460 -0.2185
 6347TIP3   OH243235   3.928   6.394   2.246 -0.0952  0.6222  0.3328
 6347TIP3    H143236   4.018   6.362   2.245 -0.7115 -1.2773  0.9443
 6347TIP3    H243237   3.902   6.396   2.154 -0.0189 -0.6451  0.2743
 6348TIP3   OH243238   1.129   4.413   7.098  0.1746  0.1073  0.0059
 6348TIP3    H143239   1.043   4.372   7.103 -0.1748  0.6716 -1.1115
 6348TIP3    H243240   1.122   4.490   7.154  0.9234 -1.4067  2.3564
 6349TIP3   OH243241   4.666   5.407   0.052 -0.0288  0.2060  0.2679
 6349TIP3    H143242   4.624   5.462  -0.015 -0.3894 -1.5191 -0.9780
 6349TIP3    H243243   4.729   5.354   0.003 -0.5582 -1.3606  1.2354
 6350TIP3   OH243244   2.483   2.478   8.460 -0.2626 -0.0342  0.1783
 6350TIP3    H143245   2.483   2.470   8.555 -0.8543  0.8400  0.2700
 6350TIP3    H243246   2.395   2.451   8.434  0.7083 -3.0280 -0.4365
 6351TIP3   OH243247   7.035   2.468   1.175 -0.3540  0.2374  0.1165
 6351TIP3    H143248   6.965   2.406   1.152 -0.2253  0.4260 -0.8132
 6351TIP3    H243249   7.004   2.510   1.256 -1.3802  0.4106 -0.3466
 6352TIP3   OH243250   3.337   3.093   8.664 -0.2428  0.0629  0.4141
 6352TIP3    H143251   3.256   3.074   8.712 -1.6725  0.9539 -1.5363
 6352TIP3    H243252   3.389   3.013   8.674 -2.6204 -1.7625 -0.7037
 6353TIP3   OH243253   7.664   6.332   0.611 -0.4109  0.6823 -0.3948
 6353TIP3    H143254   7.630   6.397   0.672  1.8648 -0.2239  2.0069
 6353TIP3    H243255   7.614   6.252   0.630 -1.9982  1.1599 -2.1546
 6354TIP3   OH243256   7.205   3.527   9.178  0.0529  0.7563 -0.3973
 6354TIP3    H143257   7.198   3.439   9.216  2.5255  1.1202  1.1151
 6354TIP3    H243258   7.263   3.515   9.102  0.0670  1.0297 -0.4292
 6355TIP3   OH243259   5.322   1.508   9.940  0.2678  0.6914 -0.6996
 6355TIP3    H143260   5.248   1.516   9.880 -1.0863  1.3168  0.9792
 6355TIP3    H243261   5.364   1.594   9.938  1.6059  0.0711 -2.3626
 6356TIP3   OH243262   2.163   4.658   8.225 -0.0880  0.3095  0.8165
 6356TIP3    H143263   2.122   4.634   8.308 -1.7141 -0.8958 -0.2795
 6356TIP3    H243264   2.110   4.730   8.192 -0.8511 -0.6765 -0.1941
 6357TIP3   OH243265   4.448   1.044   7.590 -0.1719 -0.6210 -0.4611
 6357TIP3    H143266   4.482   1.132   7.572 -1.3590  0.0371  0.3789
 6357TIP3    H243267   4.418   1.012   7.505 -0.7375  0.2346 -0.5876
 6358TIP3   OH243268   1.340   3.019   8.398 -0.3091  0.3174  0.1999
 6358TIP3    H143269   1.342   2.924   8.393 -0.1225  0.3605 -0.8890
 6358TIP3    H243270   1.432   3.045   8.401 -0.2380  0.5184 -1.8327
 6359TIP3   OH243271   3.887   2.641   0.848 -0.1412 -0.4147 -0.2842
 6359TIP3    H143272   3.871   2.723   0.894  1.2191 -0.0236 -0.4517
 6359TIP3    H243273   3.807   2.625   0.798 -0.4581  0.7753 -0.1864
 6360TIP3   OH243274   5.747   0.125   0.717  0.1199 -0.3778  1.0401
 6360TIP3    H143275   5.735   0.218   0.734 -1.7817 -0.2311 -0.6753
 6360TIP3    H243276   5.712   0.112   0.628  1.9628 -2.4115  0.5095
 6361TIP3   OH243277   1.643   6.138   1.884 -0.6514 -0.3687  0.3228
 6361TIP3    H143278   1.550   6.125   1.898 -0.8463  0.4141 -0.1733
 6361TIP3    H243279   1.661   6.093   1.801 -0.7348  0.0606  0.0686
 6362TIP3   OH243280   5.154   3.535   1.599 -0.0696 -0.4461  0.5664
 6362TIP3    H143281   5.155   3.535   1.503 -1.7059  0.3779  0.5158
 6362TIP3    H243282   5.235   3.578   1.624 -0.9920  2.1359 -0.5524
 6363TIP3   OH243283   1.123   7.326   6.446  0.2178 -0.3145  0.0901
 6363TIP3    H143284   1.112   7.232   6.433  0.3337 -0.3993  0.5746
 6363TIP3    H243285   1.194   7.333   6.510  0.2579  0.1043  0.0023
 6364TIP3   OH243286   5.589   4.971   0.949  0.4173 -0.2090  0.4538
 6364TIP3    H143287   5.683   4.953   0.947  0.2977 -1.6089  3.2841
 6364TIP3    H243288   5.568   4.984   1.041 -2.1978  0.0888 -0.0915
 6365TIP3   OH243289   7.344   6.122   7.229  0.4015 -0.2296 -0.0225
 6365TIP3    H143290   7.275   6.114   7.295  0.3565 -0.9912 -0.1592
 6365TIP3    H243291   7.389   6.203   7.252  1.4703 -1.3246  1.9767
 6366TIP3   OH243292   0.044   1.919   9.701 -0.0181 -0.2544  0.2792
 6366TIP3    H143293  -0.032   1.976   9.688 -0.6596 -1.1723 -0.1017
 6366TIP3    H243294   0.119   1.978   9.693 -0.7029  0.8815  1.8456
 6367TIP3   OH243295   4.505   3.475   7.908  0.1354 -0.0424 -0.5095
 6367TIP3    H143296   4.467   3.436   7.829 -0.4596 -0.3587 -0.0752
 6367TIP3    H243297   4.429   3.501   7.961  0.5156 -0.5572  0.3125
 6368TIP3   OH243298   3.941   5.092   1.740 -0.1693 -0.2758 -0.0817
 6368TIP3    H143299   3.964   5.069   1.650 -1.2921 -1.7171 -0.0262
 6368TIP3    H243300   3.990   5.029   1.794  0.1227  0.2759  0.3203
 6369TIP3   OH243301   1.638   3.701   1.101  0.1505  0.3680  0.1871
 6369TIP3    H143302   1.573   3.672   1.037  1.3064 -0.3023 -0.7223
 6369TIP3    H243303   1.602   3.675   1.186 -0.2408 -1.0057 -0.3872
 6370TIP3   OH243304   6.054   1.284   1.859  0.0751 -0.4349  0.6110
 6370TIP3    H143305   6.124   1.277   1.925 -1.9368 -1.6131  2.7882
 6370TIP3    H243306   6.073   1.213   1.797  1.6584  0.2952  0.1956
 6371TIP3   OH243307   4.102   0.492   1.771  0.0637  0.0319  0.0477
 6371TIP3    H143308   4.046   0.501   1.694  3.2389  0.9523 -2.3473
 6371TIP3    H243309   4.156   0.415   1.751  0.5905 -0.0276  1.6282
 6372TIP3   OH243310   6.599   7.142   9.284 -0.1411 -0.1162 -0.2058
 6372TIP3    H143311   6.644   7.202   9.343  1.5248 -0.8223 -0.6960
 6372TIP3    H243312   6.638   7.159   9.198 -0.5286 -1.0290 -0.5734
 6373TIP3   OH243313   7.480   6.113   1.444 -0.8138  0.2152  0.1097
 6373TIP3    H143314   7.449   6.107   1.534 -1.0834  2.0481  0.1949
 6373TIP3    H243315   7.452   6.032   1.403 -1.8508 -0.0813  1.3427
 6374TIP3   OH243316   6.996   6.665   0.811 -0.7638  0.2355 -0.4561
 6374TIP3    H143317   7.010   6.575   0.780  0.1708  0.3393 -0.3754
 6374TIP3    H243318   6.930   6.657   0.879  0.8652 -0.7281  1.1130
 6375TIP3   OH243319   0.585   4.994   1.109  0.0197  0.0707 -0.5896
 6375TIP3    H143320   0.631   4.933   1.166 -0.4701  1.0190  0.8930
 6375TIP3    H243321   0.553   5.062   1.168 -2.2641  0.0605 -1.6889
 6376TIP3   OH243322   4.882   5.485   9.308 -0.0674  0.1845  0.1331
 6376TIP3    H143323   4.810   5.431   9.274  0.3569  0.2388 -0.8785
 6376TIP3    H243324   4.958   5.427   9.306  0.4633  0.8957 -1.2723
 6377TIP3   OH243325   4.849   1.627   7.206 -0.1510 -0.0347 -0.1803
 6377TIP3    H143326   4.790   1.703   7.206 -1.4212 -1.0010 -0.2148
 6377TIP3    H243327   4.919   1.651   7.267 -0.2426  1.3735 -0.5847
 6378TIP3   OH243328   0.868   6.405   7.521  0.0324 -0.3410 -0.6047
 6378TIP3    H143329   0.790   6.377   7.570 -0.0349  0.5002 -0.2267
 6378TIP3    H243330   0.838   6.412   7.430 -0.3565  0.0597 -0.4471
 6379TIP3   OH243331   5.970   1.414   8.758  0.1452  0.2676  0.2557
 6379TIP3    H143332   6.050   1.459   8.732  0.8678 -1.6256 -1.0142
 6379TIP3    H243333   5.998   1.325   8.779 -1.8322 -1.2468 -2.7021
 6380TIP3   OH243334   1.294   7.166   1.312  0.1604 -0.5237  0.4118
 6380TIP3    H143335   1.359   7.096   1.318  0.8583  0.2243  3.0994
 6380TIP3    H243336   1.347   7.246   1.311 -0.6937  0.0484  0.0984
 6381TIP3   OH243337   2.548   4.024   2.664 -0.0802 -0.3905  0.4263
 6381TIP3    H143338   2.642   4.007   2.672 -0.2236 -2.4269 -1.1810
 6381TIP3    H243339   2.508   3.970   2.732 -0.1741 -1.2938 -0.3253
 6382TIP3   OH243340   4.015   7.556   1.046 -0.3472  0.4572 -0.5120
 6382TIP3    H143341   3.965   7.477   1.029 -1.5174  0.8107  1.1044
 6382TIP3    H243342   4.095   7.545   0.995 -0.9270 -1.2928 -1.1075
 6383TIP3   OH243343   3.028   5.570   0.307  0.6044 -0.1338  0.3258
 6383TIP3    H143344   2.979   5.647   0.335 -0.4936 -0.9274  0.6443
 6383TIP3    H243345   3.057   5.591   0.218  1.3374  1.1041  0.8383
 6384TIP3   OH243346   4.394   5.467   1.178  0.0933 -0.0933 -0.4569
 6384TIP3    H143347   4.300   5.465   1.195  0.0890  0.7160 -0.3393
 6384TIP3    H243348   4.401   5.477   1.083  0.0616 -0.0821 -0.4581
 6385TIP3   OH243349   0.580   3.461   8.075  0.1522  0.2838 -0.3573
 6385TIP3    H143350   0.585   3.445   7.981  0.1078  0.1263 -0.3327
 6385TIP3    H243351   0.584   3.374   8.115  0.9321  0.3984 -0.1759
 6386TIP3   OH243352   5.780   0.769   1.578  0.4046 -0.3295  0.1128
 6386TIP3    H143353   5.704   0.825   1.568  0.8198  0.5140  1.4015
 6386TIP3    H243354   5.754   0.685   1.539 -0.9550  0.1286 -0.0088
 6387TIP3   OH243355   7.610   7.426   8.949 -0.2123  0.6898  0.1805
 6387TIP3    H143356   7.577   7.376   9.023  0.5161  1.1833  0.8565
 6387TIP3    H243357   7.667   7.365   8.902 -0.4947  0.4425  0.1574
 6388TIP3   OH243358   6.934   2.539   9.307 -0.3753 -0.2370 -0.1002
 6388TIP3    H143359   6.993   2.557   9.234 -0.5624 -2.0404 -0.7481
 6388TIP3    H243360   6.900   2.451   9.289 -1.8990  0.0547  1.1761
 6389TIP3   OH243361   5.864   3.682   7.665  0.2423  0.5182 -0.1833
 6389TIP3    H143362   5.776   3.680   7.701  0.1533  0.5332 -0.4032
 6389TIP3    H243363   5.855   3.649   7.576  0.8862 -2.3400  0.6877
 6390TIP3   OH243364   0.223   2.127   7.447 -0.3816 -0.2689 -0.1005
 6390TIP3    H143365   0.270   2.180   7.382 -0.6004 -0.4841 -0.4394
 6390TIP3    H243366   0.289   2.067   7.480  0.0102  0.5812  0.6998
 6391TIP3   OH243367   0.319   7.307   0.514  0.1531  0.8711  0.5043
 6391TIP3    H143368   0.383   7.312   0.443  0.8013  1.1470  1.0948
 6391TIP3    H243369   0.300   7.398   0.536 -1.0232  0.8059 -0.1616
 6392TIP3   OH243370   4.740   3.677   9.292 -0.4664 -0.5364 -0.1120
 6392TIP3    H143371   4.712   3.768   9.303 -1.1853 -0.5475 -1.4773
 6392TIP3    H243372   4.811   3.682   9.227  0.0226 -0.8795  0.3950
 6393TIP3   OH243373   6.824   5.626   8.508  0.4837  0.7762 -0.2280
 6393TIP3    H143374   6.731   5.648   8.513  0.0916  0.0886 -2.7893
 6393TIP3    H243375   6.867   5.692   8.561 -1.3056  2.4451 -0.7371
 6394TIP3   OH243376   1.498   3.280   1.428 -0.9804  0.1466 -0.9765
 6394TIP3    H143377   1.467   3.263   1.339 -0.8162 -0.6162 -0.8932
 6394TIP3    H243378   1.554   3.206   1.449 -0.0041  0.9461 -0.6933
 6395TIP3   OH243379   2.682   1.129   1.350  0.0815 -0.6409  0.0471
 6395TIP3    H143380   2.650   1.219   1.338 -0.8552 -1.0769 -0.8969
 6395TIP3    H243381   2.622   1.090   1.413  0.8563 -0.4323  0.9271
 6396TIP3   OH243382   7.642   4.579   0.589  0.2529  0.4808 -0.3092
 6396TIP3    H143383   7.562   4.527   0.594 -1.2936  2.8549  2.0922
 6396TIP3    H243384   7.712   4.515   0.606 -1.1233 -1.5016 -1.5836
 6397TIP3   OH243385   1.661   1.555   7.722  0.7311 -0.0160  0.6508
 6397TIP3    H143386   1.641   1.591   7.635  0.5994  0.3608  0.8330
 6397TIP3    H243387   1.745   1.595   7.745  1.2594 -0.8914  0.2756
 6398TIP3   OH243388   2.654   4.326   0.614  0.6070  0.2082  0.1852
 6398TIP3    H143389   2.638   4.384   0.539 -0.8275  0.1752  0.4211
 6398TIP3    H243390   2.649   4.238   0.578  2.4058  0.1893 -0.1029
 6399TIP3   OH243391   2.213   0.828   7.046 -0.5776 -0.2977  0.3941
 6399TIP3    H143392   2.293   0.850   6.997 -0.9585 -0.2890 -0.2364
 6399TIP3    H243393   2.142   0.859   6.991 -1.0376 -0.7740  0.7074
 6400TIP3   OH243394   1.567   4.525   7.543  0.0295  0.0127 -0.3986
 6400TIP3    H143395   1.597   4.466   7.612 -0.3968  0.0651 -0.1662
 6400TIP3    H243396   1.511   4.472   7.487  1.1006 -0.2700 -1.2454
 6401TIP3   OH243397   6.664   7.597   7.448  0.5707 -0.2247  0.2179
 6401TIP3    H143398   6.683   7.640   7.364 -0.1333 -0.0127  0.1668
 6401TIP3    H243399   6.750   7.575   7.483  1.0857  2.8382  1.1212
 6402TIP3   OH243400   4.781   4.458   9.013 -0.3691  0.9538 -0.2761
 6402TIP3    H143401   4.713   4.511   9.056 -0.4643  0.8712 -0.3254
 6402TIP3    H243402   4.734   4.409   8.946 -0.4813 -0.0508  0.5163
 6403TIP3   OH243403   6.643   1.816   0.688  0.1010 -0.3481  0.0123
 6403TIP3    H143404   6.658   1.725   0.662 -1.1710 -0.5239 -0.2158
 6403TIP3    H243405   6.722   1.863   0.660  1.2268 -1.5492  1.0955
 6404TIP3   OH243406   4.857   3.493   1.362  0.1681  0.1117  0.0976
 6404TIP3    H143407   4.851   3.401   1.386  0.0350  0.1462  0.1965
 6404TIP3    H243408   4.812   3.540   1.432  0.8745  0.3139  0.4322
 6405TIP3   OH243409   5.021   0.331   0.421 -0.6065  0.2054  0.2633
 6405TIP3    H143410   4.949   0.388   0.450 -0.6944  1.5315 -2.3092
 6405TIP3    H243411   5.004   0.316   0.328  0.9662 -1.7934  0.2247
 6406TIP3   OH243412   1.948   4.780   1.482 -0.3083 -0.1033 -0.0063
 6406TIP3    H143413   1.916   4.692   1.461  0.8918 -0.4592 -0.4124
 6406TIP3    H243414   2.004   4.767   1.559 -0.0326  0.2765 -0.1414
 6407TIP3   OH243415   0.195   1.579   7.975  0.4013  0.3447 -0.1719
 6407TIP3    H143416   0.113   1.615   7.939  0.7168  0.3642 -0.8953
 6407TIP3    H243417   0.233   1.531   7.901 -0.4645 -2.2871  0.9772
 6408TIP3   OH243418   6.075   2.106   9.740  0.0193 -0.1727  0.0555
 6408TIP3    H143419   6.069   2.124   9.646 -1.2986 -0.1010  0.1423
 6408TIP3    H243420   5.994   2.060   9.761 -1.2542  2.5716  1.7453
 6409TIP3   OH243421   0.915   3.414   0.670 -0.8914 -0.1922 -0.5645
 6409TIP3    H143422   0.997   3.405   0.622  0.7661  2.4569  1.4552
 6409TIP3    H243423   0.865   3.479   0.621  0.7807  2.4808  1.0218
 6410TIP3   OH243424   7.174   6.949   9.474 -0.0890  0.1723  0.2475
 6410TIP3    H143425   7.090   6.983   9.507 -0.8211  0.4949 -1.8392
 6410TIP3    H243426   7.236   7.020   9.490 -0.2078 -0.0024  1.6538
 6411TIP3   OH243427   1.252   0.942   0.592  0.0080  0.1479  0.3031
 6411TIP3    H143428   1.197   0.992   0.653 -0.1463  0.5205 -0.1380
 6411TIP3    H243429   1.332   0.994   0.585 -0.1760  0.3678 -0.2011
 6412TIP3   OH243430   0.170   5.523   8.039  0.0508  0.2893 -0.3560
 6412TIP3    H143431   0.176   5.519   7.943 -1.0358 -2.4970 -0.4118
 6412TIP3    H243432   0.252   5.484   8.070 -0.2113 -0.1578 -0.2112
 6413TIP3   OH243433   4.848   4.422   9.869 -0.0947 -0.1792  0.2429
 6413TIP3    H143434   4.782   4.476   9.912  0.4908  1.0259 -0.3364
 6413TIP3    H243435   4.896   4.381   9.941 -0.2785  0.3987  0.7042
 6414TIP3   OH243436   5.322   2.141   1.901  0.3254  0.0556 -0.5254
 6414TIP3    H143437   5.302   2.235   1.897 -1.6471 -0.2578  0.7343
 6414TIP3    H243438   5.363   2.122   1.817  3.3996  2.5640  0.2289
 6415TIP3   OH243439   7.069   2.173   1.474  0.3544  0.1194  0.7691
 6415TIP3    H143440   7.051   2.188   1.567  1.2833 -2.4049  1.4491
 6415TIP3    H243441   7.143   2.230   1.454  2.0961 -1.3988  2.4697
 6416TIP3   OH243442   3.745   5.324   1.312 -0.3379 -0.0449 -0.2597
 6416TIP3    H143443   3.660   5.359   1.285 -0.6701  1.0532  1.9124
 6416TIP3    H243444   3.808   5.388   1.280 -0.5372  0.1885 -0.1985
 6417TIP3   OH243445   5.522   2.087   9.112  0.4182 -0.1038  0.0938
 6417TIP3    H143446   5.593   2.151   9.112  0.5819 -0.2840  0.3546
 6417TIP3    H243447   5.466   2.114   9.185 -1.2272  1.6199 -1.6735
 6418TIP3   OH243448   5.529   7.134   9.200  0.7612 -0.0091  0.5153
 6418TIP3    H143449   5.619   7.103   9.195  0.8797  0.3575  0.3032
 6418TIP3    H243450   5.537   7.230   9.200  0.5073  0.0695  2.7436
 6419TIP3   OH243451   5.648   1.854   1.514 -0.0035  0.1305  0.0648
 6419TIP3    H143452   5.625   1.819   1.600  0.4457  1.7245  0.8879
 6419TIP3    H243453   5.661   1.948   1.530 -0.7086  0.6074 -1.9092
 6420TIP3   OH243454   4.555   1.404   7.850 -0.3391 -0.3824  0.3850
 6420TIP3    H143455   4.465   1.423   7.824 -0.1116 -0.5044 -0.5407
 6420TIP3    H243456   4.569   1.456   7.929 -0.9706  0.2396  0.0981
 6421TIP3   OH243457   5.143   6.869   8.699 -0.2922  0.1665 -0.6605
 6421TIP3    H143458   5.114   6.938   8.758 -0.5261 -1.0205  0.6478
 6421TIP3    H243459   5.116   6.900   8.612 -2.4554  0.6816  0.1245
 6422TIP3   OH243460   1.380   0.892   7.153  0.4351 -0.4261 -0.5320
 6422TIP3    H143461   1.302   0.840   7.170  1.1673 -1.1996  0.6562
 6422TIP3    H243462   1.407   0.868   7.065 -1.1799  0.5622 -1.3286
 6423TIP3   OH243463   0.375   0.622   8.215 -0.8426 -0.1536 -0.0888
 6423TIP3    H143464   0.421   0.700   8.245 -1.8017  0.0610  0.9076
 6423TIP3    H243465   0.439   0.551   8.224  0.2171  0.5810 -1.5509
 6424TIP3   OH243466   4.544   4.199   8.646  0.3499 -0.2214 -0.9414
 6424TIP3    H143467   4.583   4.155   8.570 -0.7401 -0.5822 -1.3141
 6424TIP3    H243468   4.478   4.138   8.677 -0.4421  0.6884 -0.8011
 6425TIP3   OH243469   0.654   7.411   2.952 -0.7874 -0.3207 -0.0544
 6425TIP3    H143470   0.566   7.406   2.914 -1.2464  0.3938  0.8815
 6425TIP3    H243471   0.691   7.491   2.914  0.5109 -1.9800 -2.5399
 6426TIP3   OH243472   6.029   0.796   0.859 -0.0594 -0.1047 -0.4423
 6426TIP3    H143473   6.000   0.879   0.822 -2.4593 -0.9170 -0.5828
 6426TIP3    H243474   6.048   0.741   0.783  1.9477  0.3847 -0.3518
 6427TIP3   OH243475   1.954   7.669   7.445 -0.1089 -0.5544 -0.0721
 6427TIP3    H143476   1.936   7.648   7.353  0.3507  0.2510 -0.3545
 6427TIP3    H243477   1.910   7.599   7.494 -2.5012  0.3458 -0.7811
 6428TIP3   OH243478   4.813   4.103   9.988 -0.0337 -0.3893 -0.0272
 6428TIP3    H143479   4.844   4.025  10.035 -0.1233 -0.9425 -0.8735
 6428TIP3    H243480   4.842   4.176  10.043  1.5983 -0.9342 -0.0956
 6429TIP3   OH243481   4.019   2.458   8.600  0.0146  0.3329 -0.0004
 6429TIP3    H143482   3.947   2.519   8.588 -1.8678 -1.4549  1.4919
 6429TIP3    H243483   4.075   2.499   8.666 -0.7966  0.7650  0.4270
 6430TIP3   OH243484   3.816   5.053   1.253 -0.1899 -0.3115 -0.2624
 6430TIP3    H143485   3.786   4.999   1.326  1.1511 -0.8551 -0.0937
 6430TIP3    H243486   3.808   5.143   1.286  2.4533 -0.6022  1.4377
 6431TIP3   OH243487   1.202   1.740   9.779  0.6044  0.5166  0.0953
 6431TIP3    H143488   1.136   1.676   9.752  0.9997 -1.5012  3.3097
 6431TIP3    H243489   1.253   1.757   9.699 -1.0514 -1.2910 -1.4552
 6432TIP3   OH243490   4.897   3.368   0.181 -0.9219 -0.7675 -0.4032
 6432TIP3    H143491   4.977   3.394   0.136 -0.3039 -3.4935 -1.0670
 6432TIP3    H243492   4.868   3.447   0.226  1.8135  0.4754 -0.6249
 6433TIP3   OH243493   0.602   1.202   9.843  0.2845 -0.2582  0.1763
 6433TIP3    H143494   0.610   1.296   9.858 -0.8390 -0.0398 -0.4862
 6433TIP3    H243495   0.650   1.188   9.761 -3.0292  0.5234 -2.0917
 6434TIP3   OH243496   6.622   1.978   9.364  0.3125 -0.4867 -0.6228
 6434TIP3    H143497   6.631   2.073   9.366  2.5217 -0.6176 -1.7954
 6434TIP3    H243498   6.711   1.945   9.366 -0.3932 -2.7142  2.9400
 6435TIP3   OH243499   0.249   3.724   2.400 -0.1071 -0.6424  0.3734
 6435TIP3    H143500   0.268   3.773   2.480 -1.9327 -0.1369  0.5572
 6435TIP3    H243501   0.231   3.635   2.429 -2.9976  0.0206  0.8990
 6436TIP3   OH243502   0.857   4.924   9.798 -0.3195 -0.2023 -0.2764
 6436TIP3    H143503   0.818   4.900   9.883  1.3972 -0.4181  0.4810
 6436TIP3    H243504   0.892   4.842   9.764  0.9565  0.2673 -0.1408
 6437TIP3   OH243505   7.045   6.826   8.780 -0.5205  0.2109  0.2653
 6437TIP3    H143506   7.015   6.901   8.833 -0.4292 -0.0324  0.6678
 6437TIP3    H243507   7.067   6.759   8.845 -3.2201 -1.1828 -0.1474
 6438TIP3   OH243508   7.429   6.745   2.092  0.8191  0.5757  0.1629
 6438TIP3    H143509   7.468   6.677   2.038 -0.4243 -1.0409  1.2292
 6438TIP3    H243510   7.457   6.726   2.181 -0.2152  0.9530  0.5865
 6439TIP3   OH243511   6.171   7.566   8.606  0.0101  0.2793  0.1896
 6439TIP3    H143512   6.199   7.496   8.547 -1.1221 -0.2376  0.2403
 6439TIP3    H243513   6.248   7.587   8.658  0.9205  0.4620 -1.1948
 6440TIP3   OH243514   5.725   1.288   9.586  0.3084  0.4607 -0.6520
 6440TIP3    H143515   5.723   1.328   9.499 -2.0687  0.2309 -0.7561
 6440TIP3    H243516   5.726   1.362   9.646  2.3066  0.6271 -0.8025
 6441TIP3   OH243517   5.462   4.128   7.324  0.3054  0.1569  0.3167
 6441TIP3    H143518   5.536   4.073   7.299  0.7713  0.0808  1.7614
 6441TIP3    H243519   5.480   4.152   7.415 -2.0135 -0.7873  1.0888
 6442TIP3   OH243520   1.251   6.449   9.985  0.0133 -0.0846  0.0164
 6442TIP3    H143521   1.341   6.418   9.995 -0.5892 -1.3853  1.9962
 6442TIP3    H243522   1.205   6.376   9.944 -0.4600 -0.0520  0.4799
 6443TIP3   OH243523   2.954   4.857   8.103  0.2993  0.4503 -0.1420
 6443TIP3    H143524   2.914   4.848   8.190 -0.3928  2.8824 -0.1282
 6443TIP3    H243525   3.004   4.938   8.108  1.1265  0.0722 -1.7130
 6444TIP3   OH243526   3.074   2.476   8.224 -0.0195 -0.1044 -0.3712
 6444TIP3    H143527   2.999   2.420   8.204  0.9282 -1.8805  0.7882
 6444TIP3    H243528   3.146   2.415   8.241  1.0417  1.4601  1.0973
 6445TIP3   OH243529   1.646   7.238   0.334 -0.6041  0.3245 -0.6249
 6445TIP3    H143530   1.686   7.325   0.326 -0.4982  0.3296 -0.0711
 6445TIP3    H243531   1.702   7.180   0.284  1.3298 -0.0679  1.7882
 6446TIP3   OH243532   7.447   0.534   1.022 -0.1410  0.3375 -0.3441
 6446TIP3    H143533   7.425   0.598   1.089  0.4623  1.8388 -1.5046
 6446TIP3    H243534   7.530   0.496   1.051  0.5764  1.6241 -0.6221
 6447TIP3   OH243535   5.925   6.431   2.063  0.7330 -0.0664  0.5737
 6447TIP3    H143536   6.005   6.441   2.012  0.2371  0.4488 -0.1216
 6447TIP3    H243537   5.925   6.506   2.122  1.2797 -0.6339  1.3236
 6448TIP3   OH243538   0.562   7.309   2.648  0.3729  0.3279 -0.1048
 6448TIP3    H143539   0.541   7.269   2.563 -0.8526  2.0842 -0.6716
 6448TIP3    H243540   0.626   7.249   2.687 -0.8638 -1.8030 -1.1913
 6449TIP3   OH243541   1.951   6.767   7.749  0.4645 -0.2596  0.1332
 6449TIP3    H143542   1.884   6.736   7.811  2.1624 -1.7023  1.3851
 6449TIP3    H243543   2.006   6.825   7.801  1.5830 -1.0361 -0.1347
 6450TIP3   OH243544   1.784   7.502   0.292  0.0183 -0.1920  0.3950
 6450TIP3    H143545   1.825   7.582   0.324 -1.8190  0.7099  0.6209
 6450TIP3    H243546   1.826   7.486   0.207  0.7980  0.6812  0.5898
 6451TIP3   OH243547   0.776   5.126   9.304 -0.4366  0.4773 -0.1932
 6451TIP3    H143548   0.783   5.060   9.372  0.2181 -1.3184 -1.8983
 6451TIP3    H243549   0.686   5.158   9.309 -0.9265 -0.9395  0.3454
 6452TIP3   OH243550   7.172   3.032   8.816 -0.0863 -0.2982 -0.4417
 6452TIP3    H143551   7.244   2.971   8.806 -0.5963 -0.8480 -0.8387
 6452TIP3    H243552   7.212   3.119   8.810  0.3835 -0.5978 -1.8101
 6453TIP3   OH243553   3.574   7.354   0.544  0.6843  0.6396  0.0678
 6453TIP3    H143554   3.575   7.263   0.517 -0.1065  1.3017 -2.4863
 6453TIP3    H243555   3.655   7.366   0.594  0.9395 -1.3500  0.1922
 6454TIP3   OH243556   1.369   3.094   0.213 -0.5737 -0.1946  0.3097
 6454TIP3    H143557   1.410   3.032   0.152 -0.7915 -0.4413  0.4121
 6454TIP3    H243558   1.275   3.085   0.196 -0.6485 -0.4266  0.8352
 6455TIP3   OH243559   3.745   3.441   8.138 -0.6104  0.7244  0.0353
 6455TIP3    H143560   3.725   3.423   8.047  1.9630 -1.3324 -0.2244
 6455TIP3    H243561   3.779   3.530   8.138 -1.4912  1.0789 -0.8268
 6456TIP3   OH243562   4.946   5.043   9.251 -0.0790 -0.1062  0.4787
 6456TIP3    H143563   4.916   5.020   9.339  0.4100 -0.3044  0.5942
 6456TIP3    H243564   4.901   5.125   9.232  1.0206  0.8034  1.5633
 6457TIP3   OH243565   7.530   2.315   7.870  0.8432 -0.1959 -0.5641
 6457TIP3    H143566   7.463   2.326   7.938  2.3559  1.4625  0.7692
 6457TIP3    H243567   7.593   2.253   7.907  0.4879 -1.1270 -1.4734
 6458TIP3   OH243568   3.305   5.296   8.109 -0.0738 -0.2162 -0.4876
 6458TIP3    H143569   3.230   5.237   8.120  0.6365 -0.8014  1.7050
 6458TIP3    H243570   3.356   5.256   8.038 -0.1119 -1.7640  0.2948
 6459TIP3   OH243571   7.207   0.137   0.528 -0.6621  0.4697 -0.3475
 6459TIP3    H143572   7.298   0.168   0.523 -0.3876  0.0254  1.2948
 6459TIP3    H243573   7.210   0.048   0.493 -0.9656  1.3011 -2.6267
 6460TIP3   OH243574   5.700   6.218   7.310  0.0780 -0.2068 -0.6598
 6460TIP3    H143575   5.720   6.305   7.344 -1.0285  0.4040 -1.5216
 6460TIP3    H243576   5.781   6.168   7.323  0.6840  0.9048 -0.0433
 6461TIP3   OH243577   1.098   0.803   1.701  0.3149 -0.6474  0.6564
 6461TIP3    H143578   1.105   0.708   1.699  1.9359 -0.5576  0.8086
 6461TIP3    H243579   1.144   0.830   1.780  0.2464  0.2913  0.4001
 6462TIP3   OH243580   6.556   3.126   0.993  0.0823 -0.0024  0.1350
 6462TIP3    H143581   6.547   3.031   0.984 -2.1272  0.1640 -0.0657
 6462TIP3    H243582   6.539   3.143   1.086  1.7844  0.1142  0.4513
 6463TIP3   OH243583   3.916   3.707   7.131 -0.1935  0.3820  0.1598
 6463TIP3    H143584   3.929   3.615   7.111 -0.2433  0.3754  0.1552
 6463TIP3    H243585   3.821   3.717   7.134 -0.1973  0.1482  1.4719
 6464TIP3   OH243586   5.019   2.070   7.731  0.0159  0.3989 -0.2728
 6464TIP3    H143587   5.106   2.037   7.709 -0.0898 -0.3947  0.4172
 6464TIP3    H243588   4.959   2.008   7.689 -0.2235  0.9704 -0.7887
 6465TIP3   OH243589   2.207   6.401   2.797  0.2252  0.0892  0.0018
 6465TIP3    H143590   2.269   6.436   2.861  0.2306  1.2882 -0.6252
 6465TIP3    H243591   2.129   6.454   2.807 -0.4444 -0.9101  0.2470
 6466TIP3   OH243592   4.879   6.711   0.387 -0.3343  0.1925  0.5487
 6466TIP3    H143593   4.904   6.662   0.465  0.1634  0.2431  0.4252
 6466TIP3    H243594   4.960   6.753   0.357 -0.4745  0.0204 -0.1030
 6467TIP3   OH243595   1.392   6.215   2.222 -0.3182 -0.6459  0.1245
 6467TIP3    H143596   1.482   6.240   2.201  0.0088 -1.5231  0.4105
 6467TIP3    H243597   1.384   6.231   2.316 -0.6969  0.0941 -0.0258
 6468TIP3   OH243598   0.635   2.755   0.025  0.2014  0.7419  0.3167
 6468TIP3    H143599   0.582   2.695   0.078  1.9205 -0.8226  0.3617
 6468TIP3    H243600   0.626   2.840   0.068 -1.0051  0.1925  1.2082
 6469TIP3   OH243601   0.995   4.768   1.862  0.1162 -0.0363 -0.2212
 6469TIP3    H143602   1.030   4.685   1.829 -0.0499  0.2645 -1.1964
 6469TIP3    H243603   1.038   4.780   1.946 -0.9044 -1.8001  0.6089
 6470TIP3   OH243604   2.010   5.385   7.707 -0.0892  0.2315  0.0789
 6470TIP3    H143605   2.086   5.356   7.656 -1.5688 -0.5623 -1.7853
 6470TIP3    H243606   1.964   5.305   7.731 -1.5487  0.7707 -0.7977
 6471TIP3   OH243607   5.049   0.373   9.267 -0.0965  0.7514 -0.3573
 6471TIP3    H143608   4.954   0.375   9.279 -0.1976 -0.0878 -0.8698
 6471TIP3    H243609   5.083   0.431   9.334 -0.8954 -0.0461  0.7833
 6472TIP3   OH243610   6.071   6.814   0.891 -0.1935 -0.1938  0.4664
 6472TIP3    H143611   6.165   6.803   0.880 -0.1212  0.8042 -0.1127
 6472TIP3    H243612   6.062   6.874   0.965 -0.3928 -0.7516  0.8913
 6473TIP3   OH243613   2.711   0.721   9.872  0.4602  0.8769 -0.1229
 6473TIP3    H143614   2.731   0.739   9.964 -1.4553  0.2063  0.4672
 6473TIP3    H243615   2.732   0.802   9.826 -0.0863  1.7788  1.1617
 6474TIP3   OH243616   2.624   6.878   2.449  0.5622  0.3087  0.6845
 6474TIP3    H143617   2.536   6.864   2.484 -1.2531  1.8306 -2.7549
 6474TIP3    H243618   2.644   6.797   2.403  0.0885  0.6358 -0.1158
 6475TIP3   OH243619   6.807   3.169   9.898 -0.1492  0.2923  0.2646
 6475TIP3    H143620   6.818   3.200   9.808  0.0438  0.4480  0.3425
 6475TIP3    H243621   6.795   3.248   9.950 -0.9340  0.1690  0.2848
 6476TIP3   OH243622   2.739   6.003   1.992 -1.0024 -0.0901 -0.4365
 6476TIP3    H143623   2.830   6.028   1.984 -1.2629  1.1471  0.1930
 6476TIP3    H243624   2.736   5.948   2.070 -0.9328  0.6987  0.1385
 6477TIP3   OH243625   3.925   6.420   8.940 -0.0078 -0.0236  0.0162
 6477TIP3    H143626   3.892   6.414   9.029  0.4881 -0.6558  0.1697
 6477TIP3    H243627   4.020   6.409   8.948  0.1564  0.9281 -0.4908
 6478TIP3   OH243628   2.956   3.341   9.406 -0.3502 -0.0331  0.1607
 6478TIP3    H143629   3.019   3.392   9.356 -0.7890  0.4814  0.1165
 6478TIP3    H243630   2.876   3.344   9.353 -0.6977  0.1763  0.6883
 6479TIP3   OH243631   6.856   1.351   0.418  0.3403 -0.0401 -0.1705
 6479TIP3    H143632   6.799   1.306   0.355  0.5581  1.0337 -1.1750
 6479TIP3    H243633   6.939   1.362   0.371  0.8269 -0.0742  0.6652
 6480TIP3   OH243634   1.301   4.238   0.180 -0.5246 -0.0544  0.6234
 6480TIP3    H143635   1.307   4.227   0.275 -1.2925 -0.7269  0.5959
 6480TIP3    H243636   1.209   4.258   0.164 -0.1699  1.3520  0.1382
 6481TIP3   OH243637   0.005   6.487   7.585 -0.6913  0.0077  0.3029
 6481TIP3    H143638   0.097   6.491   7.613 -0.3508 -1.0986 -0.5651
 6481TIP3    H243639  -0.042   6.457   7.662  0.0210 -1.5948  0.1566
 6482TIP3   OH243640   7.000   4.700   1.685  0.3336  0.2274 -0.4686
 6482TIP3    H143641   6.964   4.705   1.773  0.3931 -0.1033 -0.4231
 6482TIP3    H243642   6.937   4.747   1.630  0.9517  1.5952 -0.0556
 6483TIP3   OH243643   5.298   0.157   2.318  0.5082 -0.1481 -0.4748
 6483TIP3    H143644   5.205   0.160   2.337 -0.4756 -0.6173 -4.4089
 6483TIP3    H243645   5.329   0.247   2.334 -0.7233  0.1395  0.3686
 6484TIP3   OH243646   0.304   7.326   7.177 -0.3026 -0.0138  0.8116
 6484TIP3    H143647   0.350   7.244   7.197  0.1890  0.6403  2.5063
 6484TIP3    H243648   0.373   7.387   7.152 -0.8419 -0.6877 -3.0132
 6485TIP3   OH243649   4.658   6.378   1.402 -0.0424  0.6490 -0.5735
 6485TIP3    H143650   4.752   6.382   1.417 -0.0999  2.1827 -0.4285
 6485TIP3    H243651   4.649   6.385   1.307 -0.0307  1.5731 -0.5152
 6486TIP3   OH243652   1.212   5.790   8.393  0.7715  0.4782 -0.0650
 6486TIP3    H143653   1.191   5.782   8.300  0.8073  2.0025 -0.2320
 6486TIP3    H243654   1.293   5.840   8.395  0.9217  0.2164  0.7894
 6487TIP3   OH243655   1.806   4.268   2.209  0.0638 -0.6475 -0.6386
 6487TIP3    H143656   1.815   4.193   2.151  0.9729 -0.7702 -0.3617
 6487TIP3    H243657   1.827   4.344   2.154 -1.3821 -0.5278 -1.0567
 6488TIP3   OH243658   4.161   1.764   9.891  0.3232  0.1015  0.2582
 6488TIP3    H143659   4.113   1.753   9.972 -1.3370  0.7235 -0.6063
 6488TIP3    H243660   4.227   1.694   9.893 -1.9429 -2.1622  0.5476
 6489TIP3   OH243661   2.849   1.729   8.546  0.0877 -0.2609  0.0627
 6489TIP3    H143662   2.880   1.799   8.488  0.1203  1.2881  1.8614
 6489TIP3    H243663   2.758   1.751   8.564  0.5608  0.3303  1.9791
 6490TIP3   OH243664   5.983   0.632   2.595 -0.0210  0.1537 -0.5052
 6490TIP3    H143665   5.934   0.612   2.515 -0.0898 -0.4556 -0.3163
 6490TIP3    H243666   6.068   0.591   2.581 -0.3588 -0.7821  0.1327
 6491TIP3   OH243667   2.572   1.987   8.032  0.0524  0.2597  0.0943
 6491TIP3    H143668   2.580   1.932   8.109 -1.6492 -0.4448 -0.1733
 6491TIP3    H243669   2.509   1.941   7.976  1.4141  0.6089 -1.8471
 6492TIP3   OH243670   4.835   5.942   9.483  0.3662  0.0430  0.1296
 6492TIP3    H143671   4.883   5.864   9.457  0.5375  0.1346  0.1651
 6492TIP3    H243672   4.897   5.991   9.538  0.4199  0.4279 -0.2730
 6493TIP3   OH243673   0.198   7.024   1.576  0.3986  0.2837  0.3463
 6493TIP3    H143674   0.293   7.032   1.570  0.3873 -0.1454 -0.5295
 6493TIP3    H243675   0.183   6.934   1.605  0.2129 -0.8201 -2.7896
 6494TIP3   OH243676   4.639   7.239   8.187  0.2421 -0.1613  0.2660
 6494TIP3    H143677   4.593   7.274   8.264  0.9665  0.5409  0.3924
 6494TIP3    H243678   4.695   7.310   8.158  0.3898 -0.6119 -0.5930
 6495TIP3   OH243679   1.562   6.621   9.931  0.3962  0.4058  0.0232
 6495TIP3    H143680   1.532   6.577   9.851  1.3180  0.1154 -0.1829
 6495TIP3    H243681   1.601   6.703   9.900  1.2299  0.0493  0.1093
 6496TIP3   OH243682   6.511   5.885   1.410 -0.2552  0.6397 -0.2582
 6496TIP3    H143683   6.472   5.961   1.367 -1.9188  0.8400  1.4698
 6496TIP3    H243684   6.464   5.878   1.493 -0.0342 -2.1906 -0.2924
 6497TIP3   OH243685   0.896   1.094   8.125  0.0549  0.4752  0.4357
 6497TIP3    H143686   0.896   1.035   8.049  0.7671 -0.0800  0.8491
 6497TIP3    H243687   0.980   1.078   8.167  0.0205  1.3894  0.8791
 6498TIP3   OH243688   7.093   0.762   0.098 -0.2619 -0.4103  0.0631
 6498TIP3    H143689   7.110   0.675   0.062 -0.3451 -0.7262  0.7840
 6498TIP3    H243690   7.180   0.799   0.112 -0.2223 -0.0344 -1.0292
 6499TIP3   OH243691   3.626   7.016   2.692 -0.3777  0.2438  0.0021
 6499TIP3    H143692   3.646   6.974   2.776  0.5797  0.6059 -0.0289
 6499TIP3    H243693   3.712   7.031   2.652 -0.6950  2.1809 -0.0160
 6500TIP3   OH243694   4.377   4.048   7.635 -0.6781 -0.4927 -0.0280
 6500TIP3    H143695   4.446   4.105   7.601  0.2115 -2.6294 -2.0768
 6500TIP3    H243696   4.394   4.043   7.729  1.8299 -0.7579 -0.4325
 6501TIP3   OH243697   3.381   2.390   7.562  0.2267 -0.2668 -0.4393
 6501TIP3    H143698   3.454   2.329   7.552  1.3304  0.6849  1.3517
 6501TIP3    H243699   3.397   2.433   7.646 -1.9844  0.5466 -0.3781
 6502TIP3   OH243700   6.257   2.978   1.664  0.2223  0.2590  0.0128
 6502TIP3    H143701   6.326   2.924   1.627 -0.3731  0.1807 -1.0321
 6502TIP3    H243702   6.178   2.923   1.659 -0.0952  0.6700  0.3555
 6503TIP3   OH243703   0.694   7.176   8.588  0.5973  0.5420  0.0185
 6503TIP3    H143704   0.735   7.094   8.615 -0.0084 -0.4806 -2.0022
 6503TIP3    H243705   0.638   7.201   8.662  1.6559 -0.2184  1.1238
 6504TIP3   OH243706   7.250   4.586   8.730 -0.1740  0.4020  0.5823
 6504TIP3    H143707   7.233   4.495   8.707 -0.1773  0.4752  0.2887
 6504TIP3    H243708   7.230   4.635   8.650  1.1607  0.5207  0.2949
 6505TIP3   OH243709   5.911   7.527   9.082  0.2060 -0.3328 -0.1565
 6505TIP3    H143710   5.836   7.494   9.033  0.2669 -1.4234  0.4454
 6505TIP3    H243711   5.956   7.585   9.021  0.5724 -2.0347 -1.6125
 6506TIP3   OH243712   7.292   5.481   9.661  0.9418  0.2144 -0.1330
 6506TIP3    H143713   7.231   5.547   9.693  1.6323  0.1772  1.3792
 6506TIP3    H243714   7.238   5.419   9.613 -0.5015 -0.5938  2.3393
 6507TIP3   OH243715   2.283   6.677   1.178 -0.4002 -0.0444  0.2001
 6507TIP3    H143716   2.205   6.639   1.137 -1.3626  0.1160  1.7906
 6507TIP3    H243717   2.269   6.665   1.272  1.5639 -0.1142  0.5369
 6508TIP3   OH243718   7.647   6.355   7.833 -0.1327  0.1693 -0.1783
 6508TIP3    H143719   7.658   6.270   7.792  0.0763  0.0195  0.1828
 6508TIP3    H243720   7.648   6.337   7.927 -0.1829  0.5554 -0.1013
 6509TIP3   OH243721   6.792   5.021   8.904 -0.1723  0.2335  0.7368
 6509TIP3    H143722   6.715   5.078   8.894  0.1657  0.6440  0.4349
 6509TIP3    H243723   6.851   5.049   8.834 -0.3612 -1.0873  0.0060
 6510TIP3   OH243724   4.830   4.143   8.446 -0.3961 -0.3124  0.2553
 6510TIP3    H143725   4.794   4.218   8.399  0.4054 -0.4558 -0.6081
 6510TIP3    H243726   4.904   4.114   8.392 -0.7294 -1.7568  0.5496
 6511TIP3   OH243727   3.871   0.825   9.228  0.1649  0.4321  0.6139
 6511TIP3    H143728   3.875   0.742   9.180  0.0261  0.2165  0.9740
 6511TIP3    H243729   3.939   0.818   9.295  0.4157  0.7685  0.3992
 6512TIP3   OH243730   5.423   1.453   0.190 -0.0236 -0.2829  0.0479
 6512TIP3    H143731   5.355   1.390   0.213 -0.0453  0.0167  0.8364
 6512TIP3    H243732   5.404   1.477   0.099 -1.2826  0.1594  0.4040
 6513TIP3   OH243733   7.248   3.420   1.566 -0.0715 -0.0159 -0.0275
 6513TIP3    H143734   7.261   3.510   1.536  1.9271 -0.7530 -1.6119
 6513TIP3    H243735   7.303   3.367   1.508 -0.7477 -2.2118  1.2119
 6514TIP3   OH243736   6.148   2.741   0.399  0.4040  0.6786  0.2797
 6514TIP3    H143737   6.214   2.777   0.459  1.5865  1.8465 -1.6151
 6514TIP3    H243738   6.193   2.669   0.354 -0.2925  0.1632  0.3929
 6515TIP3   OH243739   1.883   4.925   9.456  0.3804  0.0679  0.1738
 6515TIP3    H143740   1.922   5.011   9.443  3.0609 -1.1886 -0.8299
 6515TIP3    H243741   1.817   4.918   9.388  1.5160  0.6185 -1.0243
 6516TIP3   OH243742   2.031   6.901   9.880  0.1504  0.1828  0.1296
 6516TIP3    H143743   2.081   6.821   9.866  1.9621  0.7577  2.5049
 6516TIP3    H243744   2.092   6.972   9.858 -0.9814  0.9361 -0.6835
 6517TIP3   OH243745   3.542   6.319   0.333  0.0435  0.8398  0.4563
 6517TIP3    H143746   3.567   6.379   0.263  1.7118 -1.0566 -0.7115
 6517TIP3    H243747   3.614   6.323   0.396  0.4535 -0.2524  0.0949
 6518TIP3   OH243748   1.271   6.152   8.895  0.0772 -0.2150 -0.4481
 6518TIP3    H143749   1.297   6.065   8.864  1.8736  0.5421 -1.2161
 6518TIP3    H243750   1.344   6.181   8.950  0.0733  1.2650 -1.1625
 6519TIP3   OH243751   6.441   6.081   0.216 -0.3262  0.4139  0.6620
 6519TIP3    H143752   6.486   6.056   0.297  1.8368  0.7809 -0.3598
 6519TIP3    H243753   6.423   6.174   0.227  1.2579  0.8103  0.2025
 6520TIP3   OH243754   4.219   3.877   9.045  0.1651 -0.0353 -0.4300
 6520TIP3    H143755   4.176   3.792   9.034  1.9866 -1.0268 -0.2216
 6520TIP3    H243756   4.148   3.936   9.071 -1.5507 -0.9580 -2.7195
 6521TIP3   OH243757   5.820   7.567   8.690 -0.3008 -0.0400  0.1348
 6521TIP3    H143758   5.896   7.527   8.647  0.5240  1.9087 -0.3181
 6521TIP3    H243759   5.747   7.507   8.670  0.9022 -1.4333 -0.2650
 6522TIP3   OH243760   0.532   2.416   7.489  0.2058 -0.1572  0.0349
 6522TIP3    H143761   0.628   2.412   7.486  0.3468  0.9524  1.6836
 6522TIP3    H243762   0.509   2.488   7.430  0.4729  0.2490  0.4197
 6523TIP3   OH243763   0.831   4.646   7.074  0.3932  0.2632  0.2793
 6523TIP3    H143764   0.760   4.613   7.018  0.1451  1.0927  0.0934
 6523TIP3    H243765   0.785   4.685   7.149  0.6990 -0.1915  0.7075
 6524TIP3   OH243766   7.668   5.097   1.929  0.2652  0.1441  0.3252
 6524TIP3    H143767   7.605   5.058   1.989 -0.4601  0.9735  0.1210
 6524TIP3    H243768   7.661   5.191   1.944  1.7379  0.2320  0.5673
 6525TIP3   OH243769   2.916   1.263   0.294  0.4966  0.0122  0.0299
 6525TIP3    H143770   2.956   1.296   0.214  0.9556 -0.3837  0.0935
 6525TIP3    H243771   2.821   1.266   0.276  0.4500  2.0919  0.3149
 6526TIP3   OH243772   2.953   1.048   9.364 -0.0174  0.6261 -0.4407
 6526TIP3    H143773   3.039   1.008   9.380  0.0983  0.3225 -1.7549
 6526TIP3    H243774   2.963   1.138   9.393  0.3381  0.2620  0.6429
 6527TIP3   OH243775   2.566   2.928   0.904 -0.0097  0.4150 -0.1195
 6527TIP3    H143776   2.567   2.904   0.996 -0.8020 -3.3568 -0.9347
 6527TIP3    H243777   2.488   2.885   0.869 -0.3163  2.6098 -2.4042
 6528TIP3   OH243778   4.139   1.165   1.498 -0.2692 -0.5786 -0.1601
 6528TIP3    H143779   4.054   1.199   1.472 -0.5047  0.6068  2.0042
 6528TIP3    H243780   4.148   1.189   1.590  1.9638 -1.5888 -0.0543
 6529TIP3   OH243781   4.826   3.495   8.291 -0.4481 -0.2438  0.3141
 6529TIP3    H143782   4.839   3.421   8.350  0.3399  1.3395  2.2670
 6529TIP3    H243783   4.914   3.525   8.270 -0.7513  0.2219 -0.3311
 6530TIP3   OH243784   5.487   1.514   1.536 -0.0327  0.5320 -0.4264
 6530TIP3    H143785   5.482   1.521   1.632  1.5832 -0.5786 -0.2110
 6530TIP3    H243786   5.413   1.458   1.513 -0.3547  0.6883  0.1854
 6531TIP3   OH243787   5.266   0.398   8.825 -0.0450 -0.1453 -0.3198
 6531TIP3    H143788   5.270   0.336   8.898 -0.5485  0.0624 -0.1101
 6531TIP3    H243789   5.253   0.343   8.748 -1.9703 -0.2426  0.0289
 6532TIP3   OH243790   5.332   3.202   7.820 -0.3196  0.7717 -0.0907
 6532TIP3    H143791   5.353   3.278   7.766  0.0313  0.1254 -0.8785
 6532TIP3    H243792   5.417   3.170   7.850 -0.1978 -1.0565 -2.1918
 6533TIP3   OH243793   4.472   3.925   7.915 -0.3409 -0.1293  0.1005
 6533TIP3    H143794   4.465   3.885   8.002  0.6214 -0.5587 -0.0060
 6533TIP3    H243795   4.555   3.973   7.918  0.1898 -0.9424 -0.8869
 6534TIP3   OH243796   0.704   7.414   9.300 -0.2823 -0.8334 -0.0714
 6534TIP3    H143797   0.753   7.439   9.222  0.2681  0.2734  0.6021
 6534TIP3    H243798   0.616   7.446   9.285  0.0404  0.1773  0.1239
 6535TIP3   OH243799   6.126   4.913   8.055  0.4395  0.3085  0.4362
 6535TIP3    H143800   6.114   4.991   8.000  0.6283 -0.9387 -1.4722
 6535TIP3    H243801   6.221   4.909   8.069  0.5650 -0.2282 -0.5027
 6536TIP3   OH243802   0.707   5.698   8.157 -0.4086  0.4052  0.3558
 6536TIP3    H143803   0.731   5.642   8.230  0.4475  1.1162  0.6376
 6536TIP3    H243804   0.689   5.783   8.196  1.7936  1.2995 -0.3701
 6537TIP3   OH243805   6.899   4.316   8.794  0.2833 -0.3119  0.0213
 6537TIP3    H143806   6.943   4.231   8.799  1.3027  0.1669 -0.4997
 6537TIP3    H243807   6.813   4.296   8.757  0.1055 -1.2456  0.9067
 6538TIP3   OH243808   2.935   6.106   7.504  0.2528  0.0649 -0.4296
 6538TIP3    H143809   2.973   6.176   7.451  0.2405  0.2268 -0.2275
 6538TIP3    H243810   2.887   6.152   7.573  0.3324 -0.1457 -0.2333
 6539TIP3   OH243811   6.125   5.589   0.558 -0.4721 -0.2705  0.2603
 6539TIP3    H143812   6.180   5.570   0.482 -1.4409  1.5764 -0.9849
 6539TIP3    H243813   6.161   5.669   0.595 -0.7018 -0.5269  1.0625
 6540TIP3   OH243814   7.017   4.636   0.596 -0.2901 -0.2538 -0.0967
 6540TIP3    H143815   6.983   4.588   0.672 -2.2074  1.0405 -0.0532
 6540TIP3    H243816   7.044   4.568   0.534  0.3874 -1.3336  1.3204
 6541TIP3   OH243817   5.599   5.363   1.087  0.6947  0.1819  0.4208
 6541TIP3    H143818   5.656   5.428   1.046  0.7598 -0.1821 -0.0743
 6541TIP3    H243819   5.569   5.308   1.014 -1.1396  1.0063  0.4915
 6542TIP3   OH243820   1.941   3.389   7.622  0.2679  0.6824 -1.2244
 6542TIP3    H143821   1.859   3.340   7.615 -0.1912  1.1263  0.3899
 6542TIP3    H243822   1.931   3.461   7.560 -0.6403  0.8158 -0.9462
 6543TIP3   OH243823   5.418   3.642   0.507 -0.0571 -0.1232 -0.3663
 6543TIP3    H143824   5.453   3.731   0.506 -0.7297  0.1449 -0.5300
 6543TIP3    H243825   5.363   3.638   0.585 -1.6778  0.2740 -1.4405
 6544TIP3   OH243826   3.748   2.255   9.985 -0.2322 -0.0157 -0.3017
 6544TIP3    H143827   3.840   2.277  10.002  0.1354 -0.0329 -2.1304
 6544TIP3    H243828   3.748   2.215   9.898 -1.4647 -3.4492  1.1069
 6545TIP3   OH243829   7.154   3.498   7.914 -0.0567 -0.2329 -0.1314
 6545TIP3    H143830   7.084   3.494   7.849 -2.0080  0.3658  1.8330
 6545TIP3    H243831   7.166   3.591   7.931  0.3817 -0.3870  0.4159
 6546TIP3   OH243832   5.093   2.750   0.058  0.0662  0.1963  0.9103
 6546TIP3    H143833   4.999   2.741   0.041  0.4761  0.3849 -1.8028
 6546TIP3    H243834   5.101   2.735   0.152 -2.3607 -2.6326  0.8294
 6547TIP3   OH243835   1.365   7.448   0.274 -0.0920 -0.3076  0.0421
 6547TIP3    H143836   1.298   7.515   0.265 -1.0418 -1.3757 -1.2671
 6547TIP3    H243837   1.427   7.466   0.204 -1.3076 -1.7728 -1.5182
 6548TIP3   OH243838   2.288   6.749   1.556  0.0846 -0.5398 -0.0989
 6548TIP3    H143839   2.206   6.698   1.555 -0.3843  0.1700  0.7883
 6548TIP3    H243840   2.272   6.821   1.495 -0.5085  0.4023  1.1246
 6549TIP3   OH243841   5.920   3.434   1.195  0.0504 -0.2925  0.0308
 6549TIP3    H143842   5.980   3.387   1.138  0.1232 -0.4553  0.2378
 6549TIP3    H243843   5.908   3.520   1.154  1.4701  0.2414  0.6797
 6550TIP3   OH243844   2.334   3.295   0.724 -0.0239  0.0703 -0.0949
 6550TIP3    H143845   2.418   3.331   0.696  0.4410 -1.3680 -0.6337
 6550TIP3    H243846   2.296   3.258   0.645 -0.3101 -0.9274  0.5010
 6551TIP3   OH243847   4.468   7.091   8.018 -0.3154 -0.7495 -0.2349
 6551TIP3    H143848   4.533   7.106   8.087  0.1401 -4.0191  0.1769
 6551TIP3    H243849   4.513   7.114   7.937  1.5281 -3.0823  0.0196
 6552TIP3   OH243850   4.945   0.191   9.003 -0.0422 -0.2283 -0.2891
 6552TIP3    H143851   4.919   0.148   9.084 -0.6560 -2.4870 -1.5891
 6552TIP3    H243852   4.863   0.202   8.954  0.2595  1.4754 -0.4830
 6553TIP3   OH243853   6.146   2.278   8.497  0.0110  0.3579  0.0638
 6553TIP3    H143854   6.110   2.209   8.553  1.4073 -1.0394 -0.6810
 6553TIP3    H243855   6.079   2.291   8.430 -0.6837  0.4327  0.7514
 6554TIP3   OH243856   7.136   7.536   9.779  0.2520 -0.3474 -0.1061
 6554TIP3    H143857   7.169   7.451   9.807 -2.7330 -1.1018  1.6621
 6554TIP3    H243858   7.183   7.600   9.833  1.0223 -1.0598  0.0752
 6555TIP3   OH243859   1.007   0.227   7.957 -0.0077 -0.1455  0.2707
 6555TIP3    H143860   1.023   0.140   7.992 -0.5890 -0.0305  0.8252
 6555TIP3    H243861   1.020   0.286   8.031  0.5341  0.2584 -0.1346
 6556TIP3   OH243862   7.472   6.298   1.882 -0.3254  0.2611  0.1592
 6556TIP3    H143863   7.508   6.287   1.970 -1.0834  1.0216  0.5810
 6556TIP3    H243864   7.539   6.350   1.836 -0.1866  0.3647  0.4699
 6557TIP3   OH243865   0.872   2.638   0.465  0.0975  0.1388  0.2024
 6557TIP3    H143866   0.876   2.554   0.511 -0.9032  0.7331  1.4406
 6557TIP3    H243867   0.953   2.683   0.488  0.6621 -0.4887 -0.5078
 6558TIP3   OH243868   2.684   0.258   0.979  0.4359  0.2107  0.4933
 6558TIP3    H143869   2.687   0.180   0.923 -0.6021  1.2349 -1.0304
 6558TIP3    H243870   2.664   0.223   1.066  0.1816 -1.2421 -0.1137
 6559TIP3   OH243871   6.668   6.638   8.370  0.4666  0.2002 -0.1118
 6559TIP3    H143872   6.721   6.636   8.290  0.8691 -1.6381  0.1523
 6559TIP3    H243873   6.636   6.728   8.375  1.2246  0.6128 -1.8163
 6560TIP3   OH243874   3.674   1.806   0.662 -0.1795  0.0869  0.2558
 6560TIP3    H143875   3.682   1.871   0.591  0.4151 -0.8721 -0.5785
 6560TIP3    H243876   3.599   1.752   0.636  0.4906 -0.7159 -0.0122
 6561TIP3   OH243877   6.940   3.726   0.887 -0.3780  0.2363  0.0251
 6561TIP3    H143878   6.909   3.640   0.859 -0.1611 -0.4125  1.6701
 6561TIP3    H243879   6.955   3.774   0.805 -2.7623 -0.4492 -0.8999
 6562TIP3   OH243880   6.043   4.144   7.908  0.3838 -0.0202  0.5568
 6562TIP3    H143881   6.027   4.053   7.931 -1.8555 -0.2878 -1.5983
 6562TIP3    H243882   5.961   4.174   7.870  1.0960  2.8870  1.0499
 6563TIP3   OH243883   2.454   6.331   8.568 -0.0111 -0.6353  0.5217
 6563TIP3    H143884   2.382   6.374   8.615 -0.1582 -1.1423  0.7635
 6563TIP3    H243885   2.450   6.240   8.596  0.4700 -0.7532  0.2154
 6564TIP3   OH243886   3.785   1.778   7.458 -0.2077  0.0416 -0.0480
 6564TIP3    H143887   3.757   1.863   7.424 -0.9299  0.6526  1.9192
 6564TIP3    H243888   3.736   1.768   7.540  0.5116 -1.8901  0.1974
 6565TIP3   OH243889   0.713   2.387   2.079 -0.2400  0.3182 -0.6002
 6565TIP3    H143890   0.658   2.358   2.152 -1.1596  1.3592 -0.8508
 6565TIP3    H243891   0.747   2.307   2.041 -0.5818 -0.2888  0.3387
 6566TIP3   OH243892   0.696   1.829   9.236  0.4427 -0.5364 -0.1760
 6566TIP3    H143893   0.640   1.757   9.205 -0.4013  0.5048 -1.1582
 6566TIP3    H243894   0.772   1.826   9.177  0.9263 -1.2543  0.4554
 6567TIP3   OH243895   3.293   4.813   9.011 -0.0454 -0.2383  0.1946
 6567TIP3    H143896   3.380   4.826   9.047  0.3526 -0.0394 -0.8061
 6567TIP3    H243897   3.278   4.719   9.015  0.4939 -0.3434 -0.2645
 6568TIP3   OH243898   5.477   5.973   1.723  0.3409 -0.5712  0.0980
 6568TIP3    H143899   5.446   5.989   1.812  1.7651 -0.5675  0.6166
 6568TIP3    H243900   5.543   6.041   1.708 -0.7881  0.2543 -1.4673
 6569TIP3   OH243901   0.428   3.841   8.735  0.1663  0.0670 -0.1233
 6569TIP3    H143902   0.511   3.881   8.710 -0.2323 -0.1246 -1.8442
 6569TIP3    H243903   0.364   3.877   8.673 -0.5456 -1.7961 -0.5156
 6570TIP3   OH243904   6.911   5.201   0.109  0.6554 -0.3605  0.0824
 6570TIP3    H143905   6.883   5.112   0.130  0.3890 -0.6428 -1.3973
 6570TIP3    H243906   7.006   5.197   0.111  0.6523 -0.3439  1.2757
 6571TIP3   OH243907   5.383   4.708   8.806  0.0380  0.6566  0.2309
 6571TIP3    H143908   5.368   4.632   8.862 -1.2476  0.2461 -0.6025
 6571TIP3    H243909   5.416   4.672   8.724  0.9927  1.1570  0.3870
 6572TIP3   OH243910   2.905   1.310   9.461 -0.0275  0.5454  0.0289
 6572TIP3    H143911   2.871   1.317   9.550 -0.4225 -1.4740  0.0808
 6572TIP3    H243912   2.892   1.397   9.423  1.6786  1.9548  2.4400
 6573TIP3   OH243913   1.140   5.443   1.991  0.4324 -0.7161  0.3998
 6573TIP3    H143914   1.201   5.485   2.052 -1.3901  0.3010  1.6133
 6573TIP3    H243915   1.115   5.512   1.930 -0.7373 -0.6497  0.9266
 6574TIP3   OH243916   7.021   5.835   1.938  0.1803  0.3001  0.7093
 6574TIP3    H143917   7.047   5.913   1.889  0.0489  0.3885  0.7785
 6574TIP3    H243918   6.928   5.825   1.919  0.3679 -0.2973  0.0724
 6575TIP3   OH243919   5.682   4.556   7.465 -0.7332  0.1555 -0.5072
 6575TIP3    H143920   5.753   4.535   7.526  0.4259 -1.2710 -2.2277
 6575TIP3    H243921   5.693   4.649   7.446  1.4899 -0.2645 -1.6184
 6576TIP3   OH243922   1.867   7.163   8.724 -0.1962  0.2232 -0.6634
 6576TIP3    H143923   1.902   7.165   8.635 -0.6140 -0.4111 -0.8457
 6576TIP3    H243924   1.824   7.247   8.736  0.2437  0.4847 -0.9007
 6577TIP3   OH243925   0.604   5.324   3.033  0.0730 -0.2156  0.7742
 6577TIP3    H143926   0.690   5.338   2.991  0.1095  0.3335  1.0273
 6577TIP3    H243927   0.546   5.301   2.961  0.0809  0.9694  0.3631
 6578TIP3   OH243928   6.963   0.820   9.858 -0.0832 -0.0298  0.2011
 6578TIP3    H143929   7.013   0.845   9.936 -3.0514  0.1563  2.1991
 6578TIP3    H243930   6.968   0.724   9.855  0.7677  0.0078  0.0371
 6579TIP3   OH243931   7.074   0.553   8.793 -0.6148  0.1327  0.1884
 6579TIP3    H143932   7.070   0.558   8.698 -1.9232  1.4774  0.2738
 6579TIP3    H243933   7.142   0.488   8.811 -0.7406 -0.5687 -1.6563
 6580TIP3   OH243934   1.994   2.875   1.861  0.0070  0.3133  0.0105
 6580TIP3    H143935   1.901   2.850   1.857  0.0886 -0.0432  0.2941
 6580TIP3    H243936   2.031   2.818   1.928 -0.2776  2.6766  2.3270
 6581TIP3   OH243937   3.812   1.219   9.950 -0.1734  0.1551 -0.7523
 6581TIP3    H143938   3.871   1.151   9.983 -1.0024 -1.2062 -1.9416
 6581TIP3    H243939   3.870   1.282   9.907  0.6637  0.5787  0.9119
 6582TIP3   OH243940   6.228   0.614   9.289  0.0761  0.2356  0.2804
 6582TIP3    H143941   6.217   0.634   9.382  1.0797  0.0671  0.4536
 6582TIP3    H243942   6.323   0.602   9.278 -0.0789 -0.2925 -0.6512
 6583TIP3   OH243943   2.146   2.250   0.887  0.3225 -0.0923  0.0296
 6583TIP3    H143944   2.177   2.180   0.946  0.1393  0.7803  1.1972
 6583TIP3    H243945   2.051   2.241   0.887  0.3827 -1.4510 -1.9049
 6584TIP3   OH243946   5.696   5.338   0.130 -0.2965  0.6463 -0.1127
 6584TIP3    H143947   5.749   5.305   0.203 -1.7800  1.1484  1.2447
 6584TIP3    H243948   5.659   5.420   0.162  0.5598  1.9014 -2.1752
 6585TIP3   OH243949   2.525   1.133   8.518 -0.3563 -0.5540  0.5187
 6585TIP3    H143950   2.474   1.211   8.496  0.4543  0.2514  1.3662
 6585TIP3    H243951   2.460   1.070   8.548 -1.0339 -0.2301 -0.2222
 6586TIP3   OH243952   5.136   2.497   9.937 -0.6097 -0.2032 -0.1080
 6586TIP3    H143953   5.102   2.445  10.009  1.5563 -1.5627  0.0390
 6586TIP3    H243954   5.162   2.580   9.977 -0.9418 -0.3138  0.3402
 6587TIP3   OH243955   2.664   7.425   3.191 -0.1166  0.1991 -0.0364
 6587TIP3    H143956   2.641   7.500   3.135  0.6175  0.8157  0.4554
 6587TIP3    H243957   2.660   7.461   3.280 -0.5698 -0.5795  0.2615
 6588TIP3   OH243958   2.459   1.466   1.827 -0.3074 -0.2561 -0.2053
 6588TIP3    H143959   2.420   1.455   1.914  1.5051 -0.7881  0.5880
 6588TIP3    H243960   2.549   1.436   1.837  0.6227  1.7824 -1.7038
 6589TIP3   OH243961   4.853   4.575   9.604 -0.2884 -0.3241  0.3823
 6589TIP3    H143962   4.853   4.536   9.517 -2.2785 -1.7502  0.9295
 6589TIP3    H243963   4.874   4.502   9.663 -0.2876  0.3013  1.1697
 6590TIP3   OH243964   4.074   4.922   0.401 -0.0142  0.2570  0.4640
 6590TIP3    H143965   3.979   4.917   0.405 -0.1025  0.7471 -0.6945
 6590TIP3    H243966   4.093   4.948   0.311  1.1659  1.3360  0.9957
 6591TIP3   OH243967   4.316   3.567   8.042 -0.1507 -0.3439 -0.1386
 6591TIP3    H143968   4.289   3.561   8.134  3.6743 -0.4383  1.1681
 6591TIP3    H243969   4.301   3.658   8.019 -0.8795 -0.2414  0.6723
 6592TIP3   OH243970   1.846   2.494   2.028 -0.6351 -0.2879  0.4383
 6592TIP3    H143971   1.818   2.404   2.049  1.3939 -0.9254  0.6234
 6592TIP3    H243972   1.937   2.498   2.057 -0.2201  1.3693 -0.9635
 6593TIP3   OH243973   0.430   5.123   0.615 -0.4049 -0.4171  0.1741
 6593TIP3    H143974   0.414   5.030   0.632 -1.9790  0.1172  1.9113
 6593TIP3    H243975   0.519   5.139   0.647 -0.7816 -0.9673  1.5410
 6594TIP3   OH243976   0.907   0.763   8.879  0.2401 -0.3503 -0.5618
 6594TIP3    H143977   0.852   0.707   8.935  1.0555 -0.9581 -0.3475
 6594TIP3    H243978   0.954   0.701   8.823  0.0834  0.2085 -1.3229
 6595TIP3   OH243979   5.523   3.292   0.379  0.3560  0.0890  0.1948
 6595TIP3    H143980   5.568   3.376   0.389 -1.2358  1.1269 -1.0294
 6595TIP3    H243981   5.459   3.306   0.310  0.5251 -2.3616 -0.5579
 6596TIP3   OH243982   7.505   7.330   8.261  0.6334 -0.1119 -0.1231
 6596TIP3    H143983   7.542   7.296   8.343  0.8508 -1.0093 -0.5751
 6596TIP3    H243984   7.579   7.374   8.218  0.5926  0.1048  0.0283
 6597TIP3   OH243985   3.242   4.872   7.550 -0.1214 -0.1796  0.2481
 6597TIP3    H143986   3.216   4.956   7.511 -1.0145 -0.5060  0.1374
 6597TIP3    H243987   3.337   4.869   7.537 -0.3139 -0.0233 -1.3867
 6598TIP3   OH243988   2.278   5.226   8.800 -0.1764  0.3453 -0.1814
 6598TIP3    H143989   2.260   5.146   8.751 -0.8827  0.3610  0.0377
 6598TIP3    H243990   2.219   5.291   8.762 -1.3922  0.1371  1.2678
 6599TIP3   OH243991   2.731   7.130   9.893  0.2475  0.6327  0.3044
 6599TIP3    H143992   2.764   7.194   9.956 -0.6836  0.7925  0.6348
 6599TIP3    H243993   2.734   7.046   9.940  0.9011  0.5094  0.0674
 6600TIP3   OH243994   0.055   6.133   8.387 -0.1027 -0.1151  1.1375
 6600TIP3    H143995   0.015   6.049   8.364 -0.0036  0.2155 -0.2825
 6600TIP3    H243996   0.006   6.162   8.465 -0.0660 -1.5169  1.7110
 6601TIP3   OH243997   3.883   3.210   8.122  0.1337  0.2703 -0.1902
 6601TIP3    H143998   3.973   3.242   8.125  0.6294 -1.1597  1.6238
 6601TIP3    H243999   3.831   3.281   8.159  0.8477  0.1825  1.0394
 6602TIP3   OH244000   3.025   2.617   1.365  0.2285  0.1841  0.0962
 6602TIP3    H144001   3.079   2.640   1.440  3.0823 -0.0899 -1.6937
 6602TIP3    H244002   2.991   2.700   1.333  2.8539  0.9777 -0.9277
 6603TIP3   OH244003   1.855   0.389   7.557  0.1474  0.6170 -0.0071
 6603TIP3    H144004   1.782   0.333   7.583  0.8917  0.0080  0.8459
 6603TIP3    H244005   1.835   0.474   7.596 -0.3890  0.6175 -0.2776
 6604TIP3   OH244006   3.934   3.398   8.974  0.7494 -0.3129 -0.0837
 6604TIP3    H144007   3.974   3.314   8.996  0.5463  0.0360  1.8815
 6604TIP3    H244008   3.841   3.378   8.964  0.6524 -0.2880  0.7093
 6605TIP3   OH244009   1.759   6.726   1.895 -0.1762 -0.0637 -0.0243
 6605TIP3    H144010   1.667   6.740   1.918 -0.0286 -0.0404  0.5791
 6605TIP3    H244011   1.778   6.637   1.927  0.1865  0.1802  0.4659
 6606TIP3   OH244012   4.417   6.201   7.234 -0.2677 -0.0414  0.6323
 6606TIP3    H144013   4.456   6.252   7.163 -1.6092  0.8531  0.4928
 6606TIP3    H244014   4.396   6.117   7.194  0.9341 -0.3240  0.5592
 6607TIP3   OH244015   0.158   5.287   0.221 -0.4409  0.5373 -0.0734
 6607TIP3    H144016   0.076   5.241   0.237  1.5246 -2.7713  1.6788
 6607TIP3    H244017   0.177   5.333   0.303 -0.6453  1.5393 -0.5746
 6608TIP3   OH244018   1.532   4.171   7.545  0.5176 -0.5534 -0.2620
 6608TIP3    H144019   1.516   4.184   7.638 -0.5242  0.9791 -0.6155
 6608TIP3    H244020   1.446   4.151   7.508  0.9258 -1.2088 -0.8981
 6609TIP3   OH244021   3.894   3.909   1.425  0.5627  0.4523  0.6726
 6609TIP3    H144022   3.922   3.994   1.393  3.4548 -0.2333  1.1571
 6609TIP3    H244023   3.911   3.911   1.519 -0.1703 -0.3876  0.8420
 6610TIP3   OH244024   3.990   4.059   9.109  0.1733 -0.0882  0.0017
 6610TIP3    H144025   3.928   3.991   9.136 -1.5504  0.9129 -1.2378
 6610TIP3    H244026   3.970   4.133   9.166  0.1412  0.2951 -0.5074
 6611TIP3   OH244027   0.537   1.860   1.325 -0.2196 -0.4632  0.2001
 6611TIP3    H144028   0.633   1.865   1.318 -0.2242 -0.7730 -0.1005
 6611TIP3    H244029   0.513   1.937   1.377  0.2035 -0.4549  0.3871
 6612TIP3   OH244030   4.958   6.491   9.375 -0.1195 -0.2005  0.2519
 6612TIP3    H144031   4.940   6.465   9.285  2.6915  0.7179 -0.7025
 6612TIP3    H244032   4.977   6.408   9.420  2.5076 -0.4669 -1.1351
 6613TIP3   OH244033   5.216   1.932   1.658 -0.3940  0.2406  0.0827
 6613TIP3    H144034   5.149   1.917   1.591  0.2007 -1.8131 -0.1294
 6613TIP3    H244035   5.295   1.953   1.608 -0.8625  2.9367  0.3396
 6614TIP3   OH244036   1.234   2.470   1.140  0.3182  0.5566 -0.1311
 6614TIP3    H144037   1.239   2.562   1.164  1.9049  0.8188 -1.3236
 6614TIP3    H244038   1.143   2.456   1.114  0.1180  1.8413 -0.1452
 6615TIP3   OH244039   4.795   5.467   2.524  0.6039  0.2944 -0.1317
 6615TIP3    H144040   4.811   5.380   2.486 -1.8060 -1.0658  1.6426
 6615TIP3    H244041   4.778   5.449   2.617  1.7956  2.9189  0.6674
 6616TIP3   OH244042   2.425   4.689   0.526  0.7201  0.2501 -0.4909
 6616TIP3    H144043   2.505   4.693   0.473  0.7991 -1.2921 -0.5299
 6616TIP3    H244044   2.382   4.609   0.497 -0.3674  0.5694  0.2182
 6617TIP3   OH244045   1.113   2.958   2.413 -0.3549 -0.2956  0.1148
 6617TIP3    H144046   1.112   2.985   2.505 -2.7012 -0.7967  0.2882
 6617TIP3    H244047   1.067   3.027   2.366  0.5631 -0.1878 -0.6789
 6618TIP3   OH244048   6.171   1.483   8.338  0.1567  0.3415  0.0680
 6618TIP3    H144049   6.154   1.434   8.258  0.0065  0.6710 -0.1051
 6618TIP3    H244050   6.171   1.417   8.407  0.1106  0.0796 -0.1810
 6619TIP3   OH244051   4.499   1.216   0.185  0.4215  0.2013 -0.3750
 6619TIP3    H144052   4.569   1.152   0.199  1.5648  1.6458  0.8468
 6619TIP3    H244053   4.459   1.227   0.271 -1.1822 -0.3930 -0.9974
 6620TIP3   OH244054   3.473   5.114   9.449 -0.3187  0.0668  0.0213
 6620TIP3    H144055   3.557   5.093   9.490 -0.5371  0.3321  0.6196
 6620TIP3    H244056   3.433   5.029   9.430 -0.3941 -0.0619  0.7429
 6621TIP3   OH244057   4.742   2.888   1.518  0.5615 -0.4661 -0.1026
 6621TIP3    H144058   4.775   2.930   1.439  1.2549 -0.1618  0.3464
 6621TIP3    H244059   4.662   2.936   1.539  1.6993  1.1197  0.7963
 6622TIP3   OH244060   1.826   6.523   1.629 -0.9630  0.8929 -0.0526
 6622TIP3    H144061   1.785   6.442   1.598  0.0675 -0.3326  1.5660
 6622TIP3    H244062   1.784   6.540   1.713  1.1420  0.0427  1.2713
 6623TIP3   OH244063   2.751   2.397   9.707 -0.2155 -0.4308  0.1689
 6623TIP3    H144064   2.740   2.317   9.655 -0.9996 -0.5587  0.5082
 6623TIP3    H244065   2.809   2.371   9.778 -0.9116 -0.8580  0.5916
 6624TIP3   OH244066   4.083   3.980   9.941 -0.3874  0.0057 -0.4058
 6624TIP3    H144067   4.046   4.060   9.978 -0.6774 -0.6348  0.7353
 6624TIP3    H244068   4.039   3.970   9.857  0.7625  1.8539 -1.2880
 6625TIP3   OH244069   5.913   3.974   0.901 -0.6930 -0.0924 -0.1494
 6625TIP3    H144070   6.007   3.976   0.882 -0.7435  1.2987 -0.4016
 6625TIP3    H244071   5.908   3.970   0.996 -0.3548  0.6625 -0.0902
 6626TIP3   OH244072   3.500   1.468   0.643 -0.3020  0.2343 -0.3299
 6626TIP3    H144073   3.551   1.414   0.703 -0.9127  0.0886  0.0691
 6626TIP3    H244074   3.409   1.454   0.670 -0.7521 -1.1162 -2.2829
 6627TIP3   OH244075   6.828   4.543   1.303 -0.2336  0.3166 -0.3558
 6627TIP3    H144076   6.899   4.490   1.266  0.1057  1.4633 -1.4216
 6627TIP3    H244077   6.750   4.488   1.295  0.5044 -0.9813  0.8773
 6628TIP3   OH244078   4.345   3.613   9.496 -0.0657 -0.0179  0.0298
 6628TIP3    H144079   4.424   3.659   9.524 -0.1224 -0.3901  0.8196
 6628TIP3    H244080   4.280   3.682   9.485  0.3813  0.3011 -0.7105
 6629TIP3   OH244081   2.806   3.224   7.355  0.3761 -0.1897  0.2738
 6629TIP3    H144082   2.752   3.154   7.393 -0.1882 -0.5445 -1.1262
 6629TIP3    H244083   2.894   3.189   7.355  0.2772 -0.4444  0.6398
 6630TIP3   OH244084   4.630   5.721   0.840 -0.1041  0.0348 -0.7617
 6630TIP3    H144085   4.542   5.715   0.877  0.3738  2.0763  0.8938
 6630TIP3    H244086   4.685   5.668   0.899  0.1657  0.8007 -0.3162
 6631TIP3   OH244087   3.757   6.806   7.550  0.0811  0.6434 -0.1254
 6631TIP3    H144088   3.756   6.876   7.485 -1.0999  2.2728  1.5430
 6631TIP3    H244089   3.674   6.759   7.536 -0.3054  1.1700  0.3544
 6632TIP3   OH244090   4.501   5.633   9.313 -0.7093 -0.1809 -0.3110
 6632TIP3    H144091   4.594   5.654   9.318 -0.6521 -0.5779  0.4681
 6632TIP3    H244092   4.474   5.623   9.404 -1.8960  1.5504 -0.4286
 6633TIP3   OH244093   4.991   4.412   8.669  0.7619  0.4003 -0.0344
 6633TIP3    H144094   4.919   4.451   8.719  2.7844  1.6178  2.1750
 6633TIP3    H244095   5.016   4.480   8.606 -0.1735 -0.1493 -1.0264
 6634TIP3   OH244096   5.871   3.204   2.025 -0.3629 -0.1252 -0.1740
 6634TIP3    H144097   5.952   3.202   2.076 -1.6192  0.0224  1.9206
 6634TIP3    H244098   5.893   3.158   1.944  2.7797  2.8166 -1.2481
 6635TIP3   OH244099   1.449   7.320   0.666  0.3489 -0.3081  0.1775
 6635TIP3    H144100   1.496   7.367   0.735  2.1183 -1.4770 -0.1560
 6635TIP3    H244101   1.497   7.237   0.657  0.0221 -0.2877 -2.2733
 6636TIP3   OH244102   0.479   2.624   0.224 -0.1311 -0.2949  0.2360
 6636TIP3    H144103   0.430   2.674   0.289 -0.6537  0.1088 -0.4503
 6636TIP3    H244104   0.412   2.589   0.166  0.3270 -0.6393 -0.0878
 6637TIP3   OH244105   1.336   2.382   0.916 -0.4814 -0.2427 -0.0738
 6637TIP3    H144106   1.279   2.306   0.922  0.4555 -0.8819  1.0249
 6637TIP3    H244107   1.333   2.422   1.004 -1.0898  1.0930 -0.6724
 6638TIP3   OH244108   2.840   3.975   7.056  0.0422  0.2017  0.1978
 6638TIP3    H144109   2.783   4.043   7.021 -0.6897 -0.1428  0.6741
 6638TIP3    H244110   2.894   3.948   6.983 -1.6676 -0.7387 -0.7972
 6639TIP3   OH244111   5.700   0.690   7.887  0.6042 -0.3086  0.3446
 6639TIP3    H144112   5.673   0.729   7.804  1.0427 -0.1405  0.2788
 6639TIP3    H244113   5.781   0.644   7.867  0.2177 -1.0626  0.4785
 6640TIP3   OH244114   4.783   1.284   1.229  0.1636 -0.4196 -0.3908
 6640TIP3    H144115   4.837   1.329   1.294  0.4806 -0.0903 -0.8811
 6640TIP3    H244116   4.759   1.201   1.271 -1.4892  0.7132  1.0273
 6641TIP3   OH244117   2.893   5.938   1.691 -0.2248  0.4954  0.1262
 6641TIP3    H144118   2.980   5.921   1.727  0.0516 -0.8409 -1.0966
 6641TIP3    H244119   2.847   5.855   1.699 -0.2965  0.2632 -2.1311
 6642TIP3   OH244120   6.566   2.157   1.133 -0.0753  0.5810 -0.3961
 6642TIP3    H144121   6.635   2.109   1.180 -0.0333  1.8753  0.9583
 6642TIP3    H244122   6.486   2.139   1.182 -0.6152 -0.3643 -1.5647
 6643TIP3   OH244123   6.218   1.960   8.828 -0.5428 -0.0032 -0.7056
 6643TIP3    H144124   6.307   1.975   8.795 -0.1243 -0.6061  0.1145
 6643TIP3    H244125   6.215   2.007   8.911 -0.5670 -1.0211 -0.1121
 6644TIP3   OH244126   5.295   0.780   8.964 -0.0135  0.2509  0.0268
 6644TIP3    H144127   5.279   0.736   8.881  1.6358 -1.8157  0.7065
 6644TIP3    H244128   5.235   0.737   9.026  0.0727  0.4859  0.2752
 6645TIP3   OH244129   4.041   0.467   0.339 -0.1894  0.6248  0.3873
 6645TIP3    H144130   4.119   0.504   0.380 -0.4708  2.3034 -0.4799
 6645TIP3    H244131   4.025   0.523   0.263 -1.4885 -0.4789 -0.1985
 6646TIP3   OH244132   2.030   6.548   2.173 -0.1610  0.0460  0.1635
 6646TIP3    H144133   2.085   6.569   2.249 -0.1057 -2.5527  0.9390
 6646TIP3    H244134   2.091   6.518   2.106 -0.2693  1.7353 -0.7467
 6647TIP3   OH244135   3.407   2.780   9.160 -0.0145  0.3267 -0.3198
 6647TIP3    H144136   3.441   2.745   9.077  0.1009  2.9137 -1.4672
 6647TIP3    H244137   3.479   2.830   9.196 -0.0553 -0.7992  1.4443
 6648TIP3   OH244138   4.135   1.472   1.610  0.0179  0.7197  0.1839
 6648TIP3    H144139   4.117   1.500   1.699 -0.7976  0.4773  0.1046
 6648TIP3    H244140   4.208   1.410   1.619 -0.3287  0.3788  0.7329
 6649TIP3   OH244141   7.594   3.168   9.652  0.3180  0.7132  0.0338
 6649TIP3    H144142   7.553   3.082   9.638 -1.1911  1.2613  0.8712
 6649TIP3    H244143   7.669   3.150   9.708  0.3637 -0.1215 -0.2760
 6650TIP3   OH244144   0.218   2.800   9.196  0.1654 -0.5228  0.1789
 6650TIP3    H144145   0.288   2.754   9.241 -1.5415 -1.0246  2.5406
 6650TIP3    H244146   0.258   2.882   9.166  1.7097 -0.7082  1.5939
 6651TIP3   OH244147   0.742   2.385   8.246 -0.3568 -0.0766  0.0527
 6651TIP3    H144148   0.775   2.400   8.335  1.5955  1.6821 -0.8972
 6651TIP3    H244149   0.791   2.310   8.214  0.3157  0.4621 -0.1879
 6652TIP3   OH244150   2.094   2.659   0.884  0.0092  0.4455 -0.4691
 6652TIP3    H144151   2.036   2.648   0.809 -0.2457 -0.8999 -0.0982
 6652TIP3    H244152   2.068   2.590   0.945  1.9184 -0.1305 -0.2430
 6653TIP3   OH244153   2.652   2.799   9.561  0.1169 -0.8356 -0.8874
 6653TIP3    H144154   2.630   2.892   9.552  0.8591 -0.6540 -0.8762
 6653TIP3    H244155   2.569   2.757   9.585 -0.2093 -0.1695 -0.8277
 6654TIP3   OH244156   1.453   1.234   0.982 -0.8129  0.1095  0.5781
 6654TIP3    H144157   1.366   1.206   0.953 -1.2299  2.4003 -0.5425
 6654TIP3    H244158   1.436   1.298   1.051  0.0339 -0.2233  1.1197
 6655TIP3   OH244159   1.202   1.982   1.210 -0.1798  0.4177 -0.0256
 6655TIP3    H144160   1.177   1.947   1.125  2.3491 -3.3661  0.5653
 6655TIP3    H244161   1.293   2.010   1.199  0.1680 -0.0809  1.3672
 6656TIP3   OH244162   2.238   1.589   7.548  0.1163  0.4373  0.0854
 6656TIP3    H144163   2.307   1.534   7.511 -0.1314  1.0310 -1.3368
 6656TIP3    H244164   2.159   1.536   7.541 -0.0206  0.7450 -0.7348
 6657TIP3   OH244165   2.108   5.337   9.529  0.3824 -0.6209  0.1411
 6657TIP3    H144166   2.141   5.313   9.616 -0.7733 -0.3616  0.6639
 6657TIP3    H244167   2.174   5.397   9.494 -0.9458  2.5131  2.4840
 6658TIP3   OH244168   1.203   6.873   0.436  0.0926  0.6416 -0.1297
 6658TIP3    H144169   1.222   6.784   0.408 -0.4519  0.9287 -1.4795
 6658TIP3    H244170   1.273   6.926   0.398  1.0172  0.6932  1.5351
 6659TIP3   OH244171   6.334   2.321   9.498 -0.1928  0.7581 -0.6463
 6659TIP3    H144172   6.325   2.314   9.593  1.0139  1.0146 -0.5048
 6659TIP3    H244173   6.269   2.260   9.464  1.2552 -1.4894  0.3832
 6660TIP3   OH244174   1.680   3.046   9.706  0.7369  0.4736  0.1864
 6660TIP3    H144175   1.641   3.126   9.741 -1.1929 -0.8459  1.2609
 6660TIP3    H244176   1.636   3.032   9.622  2.9425  1.8374 -1.2985
 6661TIP3   OH244177   2.023   5.024   0.386 -0.6675  0.5365 -0.0531
 6661TIP3    H144178   1.940   5.066   0.410  0.0494  1.8404  0.2661
 6661TIP3    H244179   2.086   5.057   0.449 -0.1475 -1.5436  0.5888
 6662TIP3   OH244180   0.578   1.649   2.761  0.2295 -0.2318  0.3031
 6662TIP3    H144181   0.641   1.591   2.805  0.2446 -0.3217  0.1639
 6662TIP3    H244182   0.552   1.711   2.828 -1.5694 -1.8178  1.1688
 6663TIP3   OH244183   1.097   5.742   1.460 -0.8229 -0.2181  0.7508
 6663TIP3    H144184   1.108   5.785   1.544 -0.7628 -1.6056  1.4879
 6663TIP3    H244185   1.080   5.813   1.398 -2.4409  0.7224  2.1984
 6664TIP3   OH244186   5.906   3.375   9.218 -0.7483 -0.2508 -0.3554
 6664TIP3    H144187   5.967   3.435   9.262  0.7414  1.3754 -4.2462
 6664TIP3    H244188   5.957   3.295   9.204 -1.0382 -0.5557  0.2748
 6665TIP3   OH244189   0.633   0.179   8.483  0.2686  0.3091  0.3080
 6665TIP3    H144190   0.678   0.209   8.562  1.0404 -0.0912  0.0328
 6665TIP3    H244191   0.698   0.126   8.437  0.2158  1.4225 -1.1431
 6666TIP3   OH244192   7.087   3.286   9.316 -0.5197  0.7172  0.0652
 6666TIP3    H144193   7.055   3.218   9.256  0.2164 -0.0934  0.5679
 6666TIP3    H244194   7.179   3.263   9.330 -0.0315  2.3058 -0.3992
 6667TIP3   OH244195   5.616   6.354   9.926 -0.2195  0.3998  0.4249
 6667TIP3    H144196   5.634   6.362   9.833 -1.3219  1.3031  0.2691
 6667TIP3    H244197   5.697   6.317   9.963  0.4811  0.6745 -0.7831
 6668TIP3   OH244198   5.130   5.507   9.867 -0.0831  0.3751  0.4623
 6668TIP3    H144199   5.059   5.445   9.882 -0.3884  0.6596  0.2106
 6668TIP3    H244200   5.138   5.511   9.771  0.0629  0.5796  0.4827
 6669TIP3   OH244201   3.711   1.513   2.310  0.2281  0.4299 -0.2369
 6669TIP3    H144202   3.797   1.486   2.344 -0.9135  1.1674  3.8015
 6669TIP3    H244203   3.713   1.609   2.317 -0.8253  0.4589 -0.3042
 6670TIP3   OH244204   2.404   4.492   8.254 -0.5980 -0.1136  0.6096
 6670TIP3    H144205   2.403   4.403   8.289 -0.6964 -0.6292 -0.6688
 6670TIP3    H244206   2.317   4.526   8.274 -1.1897 -0.9497 -0.4834
 6671TIP3   OH244207   1.408   6.571   9.174 -0.0741  0.4126  0.6294
 6671TIP3    H144208   1.432   6.661   9.195 -2.3091  0.8875  1.3634
 6671TIP3    H244209   1.369   6.575   9.087  1.7606 -0.2543 -0.2855
 6672TIP3   OH244210   1.882   1.201   0.597  0.1633  0.2268  0.0410
 6672TIP3    H144211   1.828   1.139   0.646  0.2354 -0.0195 -0.1884
 6672TIP3    H244212   1.820   1.266   0.564  0.0056 -0.0557 -0.2244
 6673TIP3   OH244213   5.679   6.720   0.168 -0.2775  0.1000  0.3717
 6673TIP3    H144214   5.592   6.691   0.139 -0.5406  2.4331 -1.5610
 6673TIP3    H244215   5.737   6.646   0.149 -0.9456  0.3980 -3.8766
 6674TIP3   OH244216   5.627   4.144   1.652 -0.4062 -0.0741  0.1940
 6674TIP3    H144217   5.600   4.227   1.612  0.1559 -0.0458 -0.1343
 6674TIP3    H244218   5.700   4.167   1.709  1.7538 -0.7380 -2.1471
 6675TIP3   OH244219   0.235   4.501   0.644 -0.4140 -0.8354 -0.5006
 6675TIP3    H144220   0.330   4.506   0.630 -0.4408 -0.8141 -0.6703
 6675TIP3    H244221   0.217   4.572   0.706 -0.1934 -1.3733  0.1957
 6676TIP3   OH244222   1.608   5.356   7.850 -0.2463 -0.9812  0.6385
 6676TIP3    H144223   1.557   5.437   7.858  1.3634  0.3310 -1.2710
 6676TIP3    H244224   1.548   5.287   7.879 -1.7895  0.8228  2.0595
 6677TIP3   OH244225   2.034   3.632   7.457 -0.2168 -0.0394 -0.2973
 6677TIP3    H144226   2.116   3.604   7.497  0.3591 -0.7487 -1.8974
 6677TIP3    H244227   1.983   3.668   7.530  1.7741  1.0955  0.6169
 6678TIP3   OH244228   4.879   1.833   8.674 -0.1035  0.2568  0.1250
 6678TIP3    H144229   4.863   1.889   8.750 -0.6377 -0.7278  0.7590
 6678TIP3    H244230   4.837   1.879   8.601 -1.1417  0.3441  0.7629
 6679TIP3   OH244231   6.606   7.532   0.352 -0.3342 -0.0065 -0.3475
 6679TIP3    H144232   6.551   7.501   0.425  1.7649 -2.1314  0.4995
 6679TIP3    H244233   6.678   7.578   0.395  1.4115 -2.0470 -0.8687
 6680TIP3   OH244234   4.960   0.353   2.706  0.0458  0.1045 -0.1580
 6680TIP3    H144235   5.006   0.436   2.704 -0.9926  0.7162  0.1050
 6680TIP3    H244236   4.868   0.376   2.691 -0.2700 -0.9825 -0.0179
 6681TIP3   OH244237   6.452   3.058   8.967 -0.3436 -0.3525 -0.2577
 6681TIP3    H144238   6.461   3.007   8.886 -0.2727  0.5629 -0.8526
 6681TIP3    H244239   6.432   2.993   9.035  2.5109 -1.5164 -0.4257
 6682TIP3   OH244240   1.621   3.184   0.275  0.4637  0.0031  0.2413
 6682TIP3    H144241   1.596   3.254   0.336  0.6939 -0.4493  0.8695
 6682TIP3    H244242   1.538   3.156   0.236  0.3769  0.6648 -0.0634
 6683TIP3   OH244243   5.639   4.826   8.835  0.2323  0.3656  0.4443
 6683TIP3    H144244   5.574   4.764   8.804  2.0830 -2.1709  1.2816
 6683TIP3    H244245   5.675   4.866   8.756 -0.1381 -0.5618 -0.2029
 6684TIP3   OH244246   2.204   7.189   2.117 -0.3857 -0.3868 -0.0514
 6684TIP3    H144247   2.263   7.152   2.051 -0.2390  0.3037 -0.3147
 6684TIP3    H244248   2.123   7.140   2.107 -0.3758 -0.2605 -0.7728
 6685TIP3   OH244249   5.888   2.014   8.962 -0.4258 -0.2943  0.4688
 6685TIP3    H144250   5.851   1.984   8.880 -0.1811 -0.6263  0.4774
 6685TIP3    H244251   5.915   1.934   9.007 -1.8974 -0.2325  1.5243
 6686TIP3   OH244252   4.888   4.756   9.802  0.6892  0.2337 -0.0005
 6686TIP3    H144253   4.983   4.745   9.797  0.4965 -2.1482  0.2932
 6686TIP3    H244254   4.854   4.696   9.735 -0.6327 -0.1018  0.9336
 6687TIP3   OH244255   3.791   0.459   8.564  0.0823  0.0540  0.3145
 6687TIP3    H144256   3.720   0.400   8.589  0.4574  0.2647  2.0530
 6687TIP3    H244257   3.747   0.532   8.520 -0.6058 -0.5330  0.0197
 6688TIP3   OH244258   1.358   5.289   8.803 -0.3806 -0.2484 -0.8235
 6688TIP3    H144259   1.426   5.269   8.867 -0.1600 -0.3109 -1.0737
 6688TIP3    H244260   1.275   5.267   8.848 -0.2169 -0.5084 -0.6429
 6689TIP3   OH244261   3.618   1.669   6.929  0.3376 -0.4254  0.2284
 6689TIP3    H144262   3.688   1.617   6.967  1.0626  0.3170 -0.0845
 6689TIP3    H244263   3.616   1.750   6.980 -0.6081 -0.6217  0.5367
 6690TIP3   OH244264   4.869   6.797   1.946  0.3026  0.1038  0.3136
 6690TIP3    H144265   4.869   6.821   2.039  0.1024  0.8570  0.1217
 6690TIP3    H244266   4.949   6.835   1.911  0.8862 -1.0156  0.3724
 6691TIP3   OH244267   2.541   5.377   2.352 -0.1497  0.4105  0.5289
 6691TIP3    H144268   2.557   5.359   2.445  0.0410 -2.6114 -0.0131
 6691TIP3    H244269   2.617   5.342   2.307 -2.0063 -1.9917 -1.0204
 6692TIP3   OH244270   3.278   1.747   0.717  0.6252  0.0832 -0.7045
 6692TIP3    H144271   3.277   1.798   0.798 -2.8346  0.4958 -0.8668
 6692TIP3    H244272   3.269   1.656   0.745 -0.4030  0.2123 -0.5854
 6693TIP3   OH244273   3.824   0.291   0.411 -0.4627 -0.2216 -0.8231
 6693TIP3    H144274   3.901   0.340   0.384 -0.2876  0.1191  0.2394
 6693TIP3    H244275   3.768   0.356   0.453 -0.5044 -0.8098  0.0485
 6694TIP3   OH244276   1.313   0.609   8.288 -0.7114 -0.2690 -0.4693
 6694TIP3    H144277   1.290   0.697   8.260  1.1561 -0.0872 -1.5845
 6694TIP3    H244278   1.283   0.604   8.379  0.4939  2.0905  0.1381
 6695TIP3   OH244279   6.865   4.334   2.347  0.5573  0.1518  0.1344
 6695TIP3    H144280   6.924   4.312   2.420  0.8248 -2.9188 -0.8697
 6695TIP3    H244281   6.922   4.334   2.270 -0.1227  1.0241 -0.3785
 6696TIP3   OH244282   6.758   6.967   8.857  0.6263  0.2075  0.3256
 6696TIP3    H144283   6.710   7.028   8.802 -0.9133 -0.2625  1.0784
 6696TIP3    H244284   6.825   7.020   8.899  1.8119  0.5945 -1.8905
 6697TIP3   OH244285   1.009   6.059   2.216  0.0565  0.2710  0.5023
 6697TIP3    H144286   0.972   5.985   2.264 -0.8783 -1.4398 -2.5330
 6697TIP3    H244287   1.103   6.043   2.217  0.1341  0.6979  2.3136
 6698TIP3   OH244288   5.946   5.772   7.965  0.0788  0.2333 -0.4162
 6698TIP3    H144289   5.946   5.866   7.946 -3.2901 -0.1602 -3.7340
 6698TIP3    H244290   5.986   5.732   7.887 -0.4840 -1.1300 -0.0376
 6699TIP3   OH244291   0.427   6.637   7.417 -0.1770  0.5403 -0.4726
 6699TIP3    H144292   0.365   6.692   7.369  0.2796  0.4622 -1.1669
 6699TIP3    H244293   0.513   6.669   7.389  0.2083  2.4649  2.4862
 6700TIP3   OH244294   3.499   3.967   0.573 -0.0573 -0.2160 -1.6142
 6700TIP3    H144295   3.538   3.933   0.492 -0.5601 -1.1141 -1.4844
 6700TIP3    H244296   3.514   4.062   0.568  1.4839 -0.4427 -1.9160
 6701TIP3   OH244297   6.173   6.296   2.147  0.6903  0.2660  0.6543
 6701TIP3    H144298   6.172   6.358   2.073  1.7415 -0.5049 -0.0472
 6701TIP3    H244299   6.266   6.277   2.160  0.4013 -1.0613  0.9238
 6702TIP3   OH244300   1.294   5.877   6.538 -0.0822 -0.4368  0.1065
 6702TIP3    H144301   1.280   5.869   6.632 -0.6079 -0.4676  0.0253
 6702TIP3    H244302   1.383   5.911   6.530  0.6382 -2.1097  0.5739
 6703TIP3   OH244303   1.318   6.227   0.464 -0.0791 -0.2469 -0.2653
 6703TIP3    H144304   1.228   6.203   0.443 -0.5879  0.6929  0.7434
 6703TIP3    H244305   1.345   6.283   0.391  0.0984 -1.4192 -1.1314
 6704TIP3   OH244306   2.698   1.209   8.852 -0.6273 -0.1169  0.2224
 6704TIP3    H144307   2.635   1.250   8.792 -2.4861 -1.1790  1.3594
 6704TIP3    H244308   2.719   1.278   8.916  0.5223  0.6750 -0.9434
 6705TIP3   OH244309   2.695   3.262   9.857 -0.5270 -0.3201 -0.7951
 6705TIP3    H144310   2.601   3.274   9.843 -0.5619 -0.0191 -0.3523
 6705TIP3    H244311   2.732   3.256   9.769 -0.5580  2.7376 -1.1317
 6706TIP3   OH244312   3.432   7.299   2.017  0.7255 -0.4592 -0.2771
 6706TIP3    H144313   3.339   7.318   2.008  0.6597  0.1287  1.3742
 6706TIP3    H244314   3.456   7.333   2.103  2.6499  0.1086 -0.9735
 6707TIP3   OH244315   5.359   1.977   0.519 -0.3830  0.2492 -0.2263
 6707TIP3    H144316   5.419   1.915   0.479  0.2317 -0.3629  1.5441
 6707TIP3    H244317   5.410   2.019   0.589 -1.3412  1.3841 -0.1684
 6708TIP3   OH244318   2.631   4.485   0.078  0.2324 -0.1711  0.1919
 6708TIP3    H144319   2.723   4.461   0.067  0.7685 -0.0064  3.3049
 6708TIP3    H244320   2.606   4.525  -0.005  2.9874 -0.1396 -0.7115
 6709TIP3   OH244321   7.496   0.453   8.839 -0.1382 -0.3249  0.1411
 6709TIP3    H144322   7.533   0.539   8.818 -0.2498 -0.1582  0.6332
 6709TIP3    H244323   7.570   0.393   8.836  0.2446  0.0544  1.4254
 6710TIP3   OH244324   0.985   1.382   7.734  0.0707 -0.3699  0.3453
 6710TIP3    H144325   1.049   1.417   7.673  0.0453  1.5581  1.3609
 6710TIP3    H244326   0.950   1.304   7.689  1.5298 -0.2296 -1.1508
 6711TIP3   OH244327   2.797   6.491   0.293 -0.3521 -0.1550  0.5491
 6711TIP3    H144328   2.755   6.430   0.232 -1.5190  0.5721  0.5973
 6711TIP3    H244329   2.835   6.559   0.238 -1.4222  0.5115  0.6185
 6712TIP3   OH244330   0.799   5.548   0.855  0.2054 -0.1638 -0.6793
 6712TIP3    H144331   0.799   5.487   0.928  1.0248 -0.8000 -1.1998
 6712TIP3    H244332   0.890   5.576   0.846  0.1800 -0.3725 -1.6753
 6713TIP3   OH244333   2.795   0.795   8.822 -0.4292  0.1720 -0.2706
 6713TIP3    H144334   2.776   0.878   8.780  0.1831  0.1704 -0.5548
 6713TIP3    H244335   2.890   0.794   8.834 -0.6045  0.2932  1.3606
 6714TIP3   OH244336   1.000   5.038   1.300  0.0987 -0.8219 -0.4630
 6714TIP3    H144337   0.974   5.097   1.370 -1.3719 -1.9417 -0.0380
 6714TIP3    H244338   1.073   4.987   1.337  3.2607  2.3689 -1.6865
 6715TIP3   OH244339   1.486   4.978   7.074 -0.0697  0.2787 -0.4717
 6715TIP3    H144340   1.563   5.029   7.100 -0.4029  0.1432  0.8860
 6715TIP3    H244341   1.516   4.924   7.001  1.4036 -0.4635  0.6391
 6716TIP3   OH244342   0.815   6.365   0.129 -0.1274 -0.2091 -0.0224
 6716TIP3    H144343   0.723   6.382   0.108  0.2582  1.5768 -0.4463
 6716TIP3    H244344   0.821   6.381   0.223 -0.1123  0.4640 -0.1300
 6717TIP3   OH244345   1.493   0.265   9.976  0.5472  0.2914  0.1406
 6717TIP3    H144346   1.415   0.235   9.930  0.3079 -0.6139  1.0958
 6717TIP3    H244347   1.503   0.204  10.049  2.2252  0.3176 -0.0272
 6718TIP3   OH244348   3.703   0.434   7.146  0.6355  0.0403 -0.7614
 6718TIP3    H144349   3.755   0.512   7.167  0.2828 -0.0004  0.3736
 6718TIP3    H244350   3.617   0.452   7.185  1.4006 -2.1206  2.3380
 6719TIP3   OH244351   5.358   6.840   9.044  0.0115 -0.1871 -0.1410
 6719TIP3    H144352   5.433   6.896   9.021  0.0869 -0.8758 -1.6906
 6719TIP3    H244353   5.351   6.779   8.971 -0.4811 -1.7912  1.2042
 6720TIP3   OH244354   3.190   2.969   8.205  0.1981  0.4777 -0.1867
 6720TIP3    H144355   3.205   2.887   8.253 -0.1292  0.2663 -0.4409
 6720TIP3    H244356   3.246   2.961   8.128 -2.2033 -0.9834 -1.9286
 6721TIP3   OH244357   1.416   2.552   7.332 -0.3471 -0.1888  0.0234
 6721TIP3    H144358   1.336   2.500   7.327 -1.3347  1.2232  0.4084
 6721TIP3    H244359   1.416   2.604   7.252 -0.3866  0.5601  0.4899
 6722TIP3   OH244360   4.319   1.020   0.343  0.0026 -0.3605  0.3239
 6722TIP3    H144361   4.374   0.942   0.337  0.3781 -0.0261 -0.9364
 6722TIP3    H244362   4.369   1.081   0.397  0.5853 -0.3133 -0.2507
 6723TIP3   OH244363   6.215   3.210   8.904  0.3610  0.1811  0.1425
 6723TIP3    H144364   6.299   3.188   8.864  1.5680  1.7018  1.7291
 6723TIP3    H244365   6.167   3.256   8.836  1.4189  0.6027 -0.3410
 6724TIP3   OH244366   5.703   2.237   0.605 -0.3235  0.2088  0.3302
 6724TIP3    H144367   5.622   2.205   0.645 -0.1804  0.0945  0.5349
 6724TIP3    H244368   5.692   2.331   0.599 -0.8175  0.1075 -0.4295
 6725TIP3   OH244369   0.383   7.662   1.751 -0.2052  0.2708 -0.3673
 6725TIP3    H144370   0.374   7.738   1.808 -0.7378 -0.0238 -0.0511
 6725TIP3    H244371   0.399   7.698   1.664  0.4905  0.7275 -0.0593
 6726TIP3   OH244372   7.679   2.319   7.621  0.4567 -0.5014 -0.5592
 6726TIP3    H144373   7.625   2.255   7.574  0.4416 -0.7425 -0.2186
 6726TIP3    H244374   7.620   2.357   7.686  0.1656  0.6279 -1.4350
 6727TIP3   OH244375   3.149   3.781   9.591  0.1980  0.3735  0.8656
 6727TIP3    H144376   3.091   3.805   9.662  1.7474  1.1939  1.9168
 6727TIP3    H244377   3.102   3.805   9.511 -1.6758 -0.7991  1.5639
 6728TIP3   OH244378   2.971   6.207   1.355  1.1525  0.0023  0.1075
 6728TIP3    H144379   3.067   6.203   1.365  1.0567 -0.5271  0.9353
 6728TIP3    H244380   2.956   6.177   1.265  1.7574  0.0222 -0.0111
 6729TIP3   OH244381   4.339   2.831   1.498 -0.0512  0.7617  0.2818
 6729TIP3    H144382   4.407   2.765   1.496 -0.1193  0.7005 -1.0373
 6729TIP3    H244383   4.275   2.799   1.562  0.6734  0.3486  0.8093
 6730TIP3   OH244384   3.050   5.486   1.585 -0.2108 -0.1941 -0.1317
 6730TIP3    H144385   3.109   5.472   1.511 -1.2900  0.2863 -1.1074
 6730TIP3    H244386   2.990   5.555   1.556  1.2517  2.3227  2.3177
 6731TIP3   OH244387   5.789   4.701   8.528 -0.2756  0.3753  0.1632
 6731TIP3    H144388   5.868   4.683   8.477 -0.2390 -0.5867  0.5313
 6731TIP3    H244389   5.810   4.780   8.578  0.8948 -0.5012  1.1036
 6732TIP3   OH244390   3.879   1.464   8.318  0.5833  0.7332  0.8384
 6732TIP3    H144391   3.969   1.493   8.303  0.6216  0.9947  1.5192
 6732TIP3    H244392   3.859   1.409   8.242  1.0605  1.2552  0.3193
 6733TIP3   OH244393   4.085   2.844   2.453  0.2061 -0.0091 -0.1637
 6733TIP3    H144394   4.012   2.888   2.497  0.4392  1.5451 -1.2650
 6733TIP3    H244395   4.068   2.751   2.467 -2.7003  0.2109 -1.4561
 6734TIP3   OH244396   5.425   7.641   8.901 -0.5941  0.4612  0.0290
 6734TIP3    H144397   5.330   7.650   8.903 -0.6270 -0.0312  1.8284
 6734TIP3    H244398   5.453   7.664   8.989  0.7480 -1.5832  0.1797
 6735TIP3   OH244399   6.646   2.828   8.181 -0.1217 -0.4949  0.4664
 6735TIP3    H144400   6.713   2.866   8.125 -0.6118  1.8574  1.3382
 6735TIP3    H244401   6.664   2.734   8.182  1.9433 -0.1542 -0.8608
 6736TIP3   OH244402   3.212   4.345   0.449 -0.2641  0.0975  0.0847
 6736TIP3    H144403   3.229   4.330   0.542  0.2251  0.5394  0.0709
 6736TIP3    H244404   3.293   4.382   0.415  0.0331 -1.2718 -0.8061
 6737TIP3   OH244405   2.729   3.542   2.041 -0.2157 -0.1380  0.0609
 6737TIP3    H144406   2.757   3.454   2.064 -1.4230 -0.7038 -0.5320
 6737TIP3    H244407   2.701   3.582   2.123 -0.8658 -0.7657  0.1486
 6738TIP3   OH244408   0.371   1.112   2.566 -0.4933 -0.5220 -0.0637
 6738TIP3    H144409   0.306   1.059   2.612 -0.6684 -1.0567 -0.9033
 6738TIP3    H244410   0.319   1.172   2.512 -0.2923 -0.3761 -0.0963
 6739TIP3   OH244411   7.378   1.853   1.059 -0.4345  0.6099 -0.1620
 6739TIP3    H144412   7.424   1.929   1.096 -0.9517  1.6816 -1.6337
 6739TIP3    H244413   7.307   1.835   1.120  0.6885  0.2089  1.0836
 6740TIP3   OH244414   2.819   0.975   0.641 -0.2466  0.0641 -0.4510
 6740TIP3    H144415   2.755   0.958   0.710  1.6183  2.2946  2.0359
 6740TIP3    H244416   2.889   0.911   0.657 -1.0065 -1.2858 -2.1505
 6741TIP3   OH244417   6.923   1.114   9.120  0.0043  0.1293  0.1084
 6741TIP3    H144418   6.885   1.121   9.207 -0.6772  0.3290 -0.2059
 6741TIP3    H244419   6.981   1.037   9.125  1.7218  1.4291  1.3752
 6742TIP3   OH244420   6.110   6.683   9.398  0.5574  0.2117  0.2133
 6742TIP3    H144421   6.067   6.682   9.483  1.1463 -3.9682  0.6354
 6742TIP3    H244422   6.186   6.741   9.410  0.1650  0.3450  2.2611
 6743TIP3   OH244423   4.341   6.565   1.611 -0.7126 -0.5440 -0.6085
 6743TIP3    H144424   4.261   6.618   1.610 -1.4431 -1.4230  2.1190
 6743TIP3    H244425   4.369   6.566   1.702  0.2190 -3.3912 -0.7683
 6744TIP3   OH244426   3.302   3.892   8.137 -0.3140 -0.7687  0.1716
 6744TIP3    H144427   3.244   3.880   8.212  0.2689 -1.0074  0.5901
 6744TIP3    H244428   3.268   3.831   8.071 -0.7771 -0.6209  0.2689
 6745TIP3   OH244429   0.702   0.806   8.051  0.1134  0.4184 -0.3401
 6745TIP3    H144430   0.749   0.799   8.134  1.0030  3.5558 -0.4450
 6745TIP3    H244431   0.768   0.785   7.984  0.1359  0.5166 -0.3481
 6746TIP3   OH244432   1.950   4.301   0.458  0.0153  0.8527 -0.2857
 6746TIP3    H144433   1.860   4.322   0.435  0.0372  1.2629 -0.0056
 6746TIP3    H244434   1.952   4.306   0.554 -0.1242 -0.9734 -0.1344
 6747TIP3   OH244435   3.584   0.412   7.724 -0.1663 -0.2182 -0.2985
 6747TIP3    H144436   3.616   0.335   7.676  1.0069 -0.0415  0.1665
 6747TIP3    H244437   3.576   0.382   7.814 -0.9692 -0.1406 -0.3346
 6748TIP3   OH244438   7.219   1.339   9.979 -0.2639  0.1411 -0.4440
 6748TIP3    H144439   7.303   1.326  10.022  0.0334 -0.6367 -1.2176
 6748TIP3    H244440   7.237   1.320   9.887 -1.1027  0.7876 -0.7482
 6749TIP3   OH244441   2.578   4.351   0.331 -0.1354 -0.3343 -0.2727
 6749TIP3    H144442   2.638   4.381   0.264 -0.3096  0.8359  0.0711
 6749TIP3    H244443   2.493   4.385   0.304 -0.2150  0.1055  0.5118
 6750TIP3   OH244444   1.524   7.112   1.111  0.2757  0.4521 -0.0473
 6750TIP3    H144445   1.514   7.206   1.125  0.4024  0.5094 -0.3313
 6750TIP3    H244446   1.479   7.096   1.027 -2.0624 -0.1761  1.2293
 6751TIP3   OH244447   7.288   0.705   7.857  0.1852 -0.0572  0.0516
 6751TIP3    H144448   7.208   0.706   7.805  0.3691 -2.2791 -0.3983
 6751TIP3    H244449   7.359   0.710   7.793  0.4271  0.8904  0.3783
 6752TIP3   OH244450   4.369   1.984   0.320 -0.5874 -0.0780 -0.2756
 6752TIP3    H144451   4.402   2.065   0.358  1.0663 -1.3296  1.1453
 6752TIP3    H244452   4.303   1.953   0.382 -0.3151 -0.4304 -0.1572
 6753TIP3   OH244453   1.660   7.104   9.510  0.0964  0.1567  0.3421
 6753TIP3    H144454   1.706   7.071   9.587  0.1467 -1.5393 -0.3813
 6753TIP3    H244455   1.726   7.105   9.441 -0.0883  1.1231  0.1644
 6754TIP3   OH244456   2.653   5.611   9.795  0.0345  0.2215 -0.8881
 6754TIP3    H144457   2.634   5.518   9.806  2.0820 -0.1440  0.0572
 6754TIP3    H244458   2.567   5.654   9.799 -0.8083 -1.4640  0.3282
 6755TIP3   OH244459   3.040   5.141   9.826  0.1748  0.0963 -0.0084
 6755TIP3    H144460   2.994   5.083   9.887 -0.5562 -0.5400 -1.1156
 6755TIP3    H244461   3.057   5.086   9.749 -0.2956  1.2737 -0.9905
 6756TIP3   OH244462   4.526   5.445   7.840  0.8305  0.0688  0.3426
 6756TIP3    H144463   4.462   5.439   7.911  1.1648 -0.6743  0.5909
 6756TIP3    H244464   4.577   5.364   7.847  2.9255  1.3805  1.2505
 6757TIP3   OH244465   1.120   0.258   6.794  0.6033 -0.1846  0.0285
 6757TIP3    H144466   1.084   0.175   6.762  0.5155 -0.9898  2.0723
 6757TIP3    H244467   1.080   0.324   6.738 -2.7906 -1.1592  1.0634
 6758TIP3   OH244468   3.176   4.327   6.919 -0.1279  0.4258  0.2776
 6758TIP3    H144469   3.108   4.296   6.859  1.0297 -0.0064 -0.8499
 6758TIP3    H244470   3.236   4.378   6.864  1.6682 -1.0615  0.7409
 6759TIP3   OH244471   3.540   5.829   2.280  0.1393 -0.4166 -0.2761
 6759TIP3    H144472   3.469   5.877   2.321 -1.3094 -2.4855 -0.2047
 6759TIP3    H244473   3.575   5.773   2.349 -0.2061 -1.6056 -1.0295
 6760TIP3   OH244474   1.023   6.077   9.817  0.2473 -0.1374  0.4912
 6760TIP3    H144475   0.963   6.085   9.743  1.6864 -1.7147 -0.9227
 6760TIP3    H244476   1.100   6.127   9.791  0.4337  0.0076  1.3006
 6761TIP3   OH244477   2.525   5.472   0.449  0.0028 -0.2312  0.1844
 6761TIP3    H144478   2.593   5.519   0.400 -0.5385 -1.0788 -1.4255
 6761TIP3    H244479   2.453   5.461   0.387 -1.1682 -0.3681  1.5154
 6762TIP3   OH244480   5.338   1.875   1.030 -0.4089  0.0566 -0.2431
 6762TIP3    H144481   5.310   1.811   1.096  1.3182 -3.3473 -2.4925
 6762TIP3    H244482   5.266   1.879   0.968 -0.5942  0.4716 -0.0041
 6763TIP3   OH244483   4.209   3.532   8.312  0.5751 -0.2224 -0.0638
 6763TIP3    H144484   4.264   3.458   8.337  1.3529  0.6486  0.8288
 6763TIP3    H244485   4.176   3.567   8.394 -0.2438  0.1006 -0.5108
 6764TIP3   OH244486   5.131   1.168   7.792  0.2363 -0.1029 -0.5378
 6764TIP3    H144487   5.176   1.155   7.709 -0.6031  0.6008 -1.1265
 6764TIP3    H244488   5.045   1.127   7.780  0.4409 -0.7972  0.3054
 6765TIP3   OH244489   2.495   1.932   8.925  0.4933  0.0899  0.1582
 6765TIP3    H144490   2.430   1.993   8.960  1.7249  1.8319 -0.4354
 6765TIP3    H244491   2.484   1.938   8.830  1.5452  0.4928  0.0459
 6766TIP3   OH244492   0.246   6.063   2.798  0.1735  0.4569 -0.4665
 6766TIP3    H144493   0.270   6.024   2.882  1.7924 -0.7087 -1.4189
 6766TIP3    H244494   0.327   6.099   2.764 -0.6741  1.8797 -1.0975
 6767TIP3   OH244495   0.979   3.207   8.108 -0.0074  0.2394  0.2361
 6767TIP3    H144496   1.047   3.194   8.175 -1.1232 -1.8362  1.0794
 6767TIP3    H244497   0.960   3.118   8.077 -2.7114  0.6532  0.4672
 6768TIP3   OH244498   4.506   6.985   9.814 -0.6597 -0.1930 -0.1202
 6768TIP3    H144499   4.540   6.913   9.866  0.1114 -1.9969 -2.8684
 6768TIP3    H244500   4.563   7.059   9.835 -0.1197 -0.9578  1.2278
 6769TIP3   OH244501   5.834   0.155   1.763 -0.1564  0.2393 -0.7081
 6769TIP3    H144502   5.816   0.224   1.699 -2.0490  0.1300 -0.3616
 6769TIP3    H244503   5.755   0.100   1.761  1.1060 -1.6593 -0.6403
 6770TIP3   OH244504   5.850   6.157   8.494  0.1256  0.6476 -0.0965
 6770TIP3    H144505   5.811   6.181   8.410  0.8695 -0.0927 -0.6743
 6770TIP3    H244506   5.851   6.061   8.493 -2.0649  0.5440  1.8082
 6771TIP3   OH244507   4.090   6.208   7.735 -0.0126  0.2510 -0.0581
 6771TIP3    H144508   4.165   6.224   7.792 -1.0965 -1.7637  2.1566
 6771TIP3    H244509   4.019   6.259   7.775 -0.0828  1.5213 -1.6789
 6772TIP3   OH244510   3.078   0.211   1.048 -0.2332  0.5997  0.1182
 6772TIP3    H144511   3.042   0.298   1.067 -1.4835  0.0733  0.2353
 6772TIP3    H244512   3.170   0.217   1.074 -0.3925  1.7770  0.4583
 6773TIP3   OH244513   0.729   3.530   9.105  0.1562  0.0127 -0.1735
 6773TIP3    H144514   0.776   3.450   9.081  1.3875  0.8505 -0.6737
 6773TIP3    H244515   0.796   3.598   9.104  0.2122  0.3943  4.6473
 6774TIP3   OH244516   0.589   4.498   9.389 -0.1293 -0.7255  0.4985
 6774TIP3    H144517   0.569   4.588   9.415 -0.5437 -1.2025  1.9524
 6774TIP3    H244518   0.685   4.493   9.394  0.0748  0.1569 -1.5456
 6775TIP3   OH244519   4.378   6.024   8.697  0.7199 -0.3707 -0.1415
 6775TIP3    H144520   4.379   6.001   8.790 -2.4082 -0.3912 -0.0129
 6775TIP3    H244521   4.458   6.076   8.685  0.9795  0.0758  2.6777
 6776TIP3   OH244522   4.204   0.199   1.398 -0.6431  0.4038  0.0225
 6776TIP3    H144523   4.127   0.143   1.396 -1.2043  1.1521  0.1815
 6776TIP3    H244524   4.193   0.258   1.324  0.8373 -0.8222 -1.2505
 6777TIP3   OH244525   1.679   3.610   1.898  0.1020  0.8260  0.3653
 6777TIP3    H144526   1.747   3.667   1.933  1.5038  0.8498 -2.1160
 6777TIP3    H244527   1.618   3.670   1.854 -0.5647  0.6594  1.0336
 6778TIP3   OH244528   6.986   3.500   7.694 -0.4382  0.0993 -0.3373
 6778TIP3    H144529   7.018   3.573   7.641  2.3586 -0.5050  0.3701
 6778TIP3    H244530   6.924   3.541   7.756 -0.2231  1.5698 -1.0409
 6779TIP3   OH244531   2.088   5.802   9.422 -0.7241 -0.7240  0.1357
 6779TIP3    H144532   2.166   5.837   9.466 -1.0536  1.7316 -1.0626
 6779TIP3    H244533   2.020   5.805   9.489 -0.0731 -1.9865  0.9108
 6780TIP3   OH244534   1.979   4.315   1.017 -0.5673  0.3382  0.1067
 6780TIP3    H144535   1.899   4.368   1.013  1.5639  3.8531 -1.3446
 6780TIP3    H244536   2.032   4.359   1.083  0.4835 -1.4676  0.5124
 6781TIP3   OH244537   3.850   2.894   0.954  0.2167  0.2739 -0.7756
 6781TIP3    H144538   3.937   2.921   0.926  0.4045 -0.2933 -0.7539
 6781TIP3    H244539   3.800   2.975   0.959  0.1654  0.4152 -2.7677
 6782TIP3   OH244540   5.821   7.627   9.319 -0.1279 -0.0327  0.2027
 6782TIP3    H144541   5.853   7.601   9.233  0.2855 -0.9908  0.6316
 6782TIP3    H244542   5.827   7.722   9.320  1.7620 -0.1228 -0.0982
 6783TIP3   OH244543   7.512   1.696   9.415 -0.1102  0.3023  0.0400
 6783TIP3    H144544   7.519   1.610   9.456 -1.3687  0.4600  0.6060
 6783TIP3    H244545   7.589   1.700   9.357 -0.4296 -1.5041 -0.5886
 6784TIP3   OH244546   6.038   2.041   8.074  0.1583  0.7807  1.0205
 6784TIP3    H144547   5.987   2.021   7.996 -0.1698  1.6151  1.0132
 6784TIP3    H244548   5.985   2.103   8.123  0.1762 -0.0457  2.1273
 6785TIP3   OH244549   5.510   1.012   9.992 -0.1233  1.2445 -0.1533
 6785TIP3    H144550   5.566   1.087  10.011 -0.5272  1.2936  0.9195
 6785TIP3    H244551   5.442   1.046   9.934  0.9037  1.1904 -1.4491
 6786TIP3   OH244552   2.515   5.993   8.269 -0.3350  0.0414  0.3111
 6786TIP3    H144553   2.450   6.064   8.264  1.1139  1.4072  0.3200
 6786TIP3    H244554   2.529   5.981   8.363  1.5122  1.7977  0.3379
 6787TIP3   OH244555   1.324   0.127   9.800 -0.1813  0.2633 -0.0743
 6787TIP3    H144556   1.241   0.083   9.819  0.0265 -0.2324 -0.3060
 6787TIP3    H244557   1.328   0.133   9.705 -0.5858  1.5328 -0.0375
 6788TIP3   OH244558   5.066   0.701   0.547 -0.1803 -0.1729 -0.0074
 6788TIP3    H144559   5.066   0.695   0.642 -1.0256  1.2638  0.1064
 6788TIP3    H244560   5.146   0.655   0.520  0.2594 -0.2823  1.4021
 6789TIP3   OH244561   3.907   7.332   0.551 -0.2292  0.2821  0.1471
 6789TIP3    H144562   3.890   7.238   0.552  0.4151  0.1418 -0.7744
 6789TIP3    H244563   4.002   7.339   0.547 -0.2962  0.9657 -0.4408
 6790TIP3   OH244564   3.188   4.074   2.487 -0.0666  0.4961  0.5057
 6790TIP3    H144565   3.136   4.147   2.520  0.8090  0.9751  0.8529
 6790TIP3    H244566   3.245   4.113   2.421 -1.8781 -0.4598 -1.7663
 6791TIP3   OH244567   3.271   5.626   7.690 -0.4169  0.3773  0.0205
 6791TIP3    H144568   3.204   5.596   7.752  0.7309  1.5298  1.9447
 6791TIP3    H244569   3.254   5.720   7.682 -1.0097  0.1302 -2.0911
 6792TIP3   OH244570   0.639   1.650   0.199 -0.0607  0.4773 -0.0963
 6792TIP3    H144571   0.690   1.651   0.280 -0.7399  1.3422  0.3283
 6792TIP3    H244572   0.686   1.588   0.142  0.6110  0.1185  0.8247
 6793TIP3   OH244573   2.012   5.148   9.368  0.0644  0.0299 -0.2553
 6793TIP3    H144574   2.098   5.125   9.333 -0.0026 -1.0695  0.2678
 6793TIP3    H244575   2.030   5.219   9.429  0.7425 -0.8060  0.5467
 6794TIP3   OH244576   2.426   0.171   2.535 -0.3038 -0.2260  0.1012
 6794TIP3    H144577   2.339   0.179   2.574 -0.1158 -1.2839  0.7917
 6794TIP3    H244578   2.478   0.239   2.578 -0.7766  0.3960 -0.2998
 6795TIP3   OH244579   0.491   2.161   1.087  0.0154  0.1061  0.4381
 6795TIP3    H144580   0.541   2.216   1.148  0.3870 -1.1214  1.2707
 6795TIP3    H244581   0.441   2.103   1.143  1.2815 -1.8909 -0.3863
 6796TIP3   OH244582   4.857   4.133   1.921  0.4231 -0.1179  0.2471
 6796TIP3    H144583   4.914   4.064   1.956  1.3515  0.0286 -0.9042
 6796TIP3    H244584   4.912   4.179   1.857 -0.1825  1.6867  0.9618
 6797TIP3   OH244585   5.731   3.001   1.566 -0.7280 -0.3320  0.2909
 6797TIP3    H144586   5.696   3.057   1.498  0.2586  1.7301  1.3919
 6797TIP3    H244587   5.808   2.960   1.526 -1.7124 -1.3303 -0.6591
 6798TIP3   OH244588   7.368   0.921   1.883 -0.4913  0.2205  0.1055
 6798TIP3    H144589   7.455   0.947   1.854 -1.4435  2.7076 -0.7341
 6798TIP3    H244590   7.328   0.880   1.806 -0.0377 -1.1738  0.5686
 6799TIP3   OH244591   3.929   4.807   7.033  0.5904 -0.5997 -0.2714
 6799TIP3    H144592   3.992   4.784   7.102 -0.4124  0.2544  0.9852
 6799TIP3    H244593   3.918   4.901   7.041  1.4586 -0.2394 -2.5500
 6800TIP3   OH244594   0.165   2.829   0.874  0.1660 -0.7868  0.3088
 6800TIP3    H144595   0.187   2.796   0.961  0.9771  0.2370  0.5120
 6800TIP3    H244596   0.116   2.910   0.891  0.1420 -0.6930 -0.1820
 6801TIP3   OH244597   1.617   4.523   8.474 -0.8148 -0.4441 -0.1072
 6801TIP3    H144598   1.684   4.591   8.476  1.0377 -2.1570 -0.9635
 6801TIP3    H244599   1.660   4.446   8.436 -3.2267 -1.6852 -0.6012
 6802TIP3   OH244600   1.385   1.415   2.102 -0.1058 -1.1807 -0.1615
 6802TIP3    H144601   1.429   1.457   2.029  0.5668 -0.2576  0.7541
 6802TIP3    H244602   1.317   1.361   2.061  1.8529 -2.7000 -1.6422
 6803TIP3   OH244603   1.434   0.073   7.988  0.2445 -0.0479 -0.1696
 6803TIP3    H144604   1.454  -0.017   8.013  0.4789 -0.3050 -1.2239
 6803TIP3    H244605   1.369   0.065   7.918 -2.2158  0.7165  1.8663
 6804TIP3   OH244606   5.617   7.119   1.754 -0.1319  0.5673 -0.5587
 6804TIP3    H144607   5.635   7.045   1.812 -0.8781 -0.5230 -1.6596
 6804TIP3    H244608   5.653   7.195   1.800  1.6193 -0.6121  0.1317
 6805TIP3   OH244609   0.744   3.322   8.379 -0.0327  0.9853 -0.4464
 6805TIP3    H144610   0.733   3.227   8.375  1.4950  0.8120 -1.5832
 6805TIP3    H244611   0.677   3.352   8.440 -0.4412 -0.8401  0.0517
 6806TIP3   OH244612   0.577   0.563   1.511 -0.3330 -0.3157  0.5127
 6806TIP3    H144613   0.559   0.649   1.474  0.1117 -0.2000  0.5614
 6806TIP3    H244614   0.672   0.557   1.514 -0.3428 -1.1526 -0.3012
 6807TIP3   OH244615   7.523   0.664   7.715 -0.8137  0.0794 -0.2674
 6807TIP3    H144616   7.562   0.655   7.628 -1.3008 -0.1981 -0.4654
 6807TIP3    H244617   7.591   0.636   7.776  0.1298  1.8609 -0.4290
 6808TIP3   OH244618   1.145   1.571   2.585  0.1862 -0.3984  0.2072
 6808TIP3    H144619   1.112   1.580   2.496  2.3361  1.3493 -0.4951
 6808TIP3    H244620   1.145   1.476   2.601 -0.3525 -0.7378 -1.5988
 6809TIP3   OH244621   5.683   3.671   0.177 -0.3030 -0.7804  0.3421
 6809TIP3    H144622   5.741   3.726   0.229 -0.7059 -1.6643  1.7743
 6809TIP3    H244623   5.646   3.730   0.111  0.4974  0.2838  0.8241
 6810TIP3   OH244624   0.735   7.520   0.201  1.3054 -0.3927  0.1303
 6810TIP3    H144625   0.664   7.479   0.250 -1.0245  2.2457 -0.7741
 6810TIP3    H244626   0.765   7.591   0.256  1.3906  0.1489 -0.5947
 6811TIP3   OH244627   0.778   7.073   0.234  0.4829  0.5215  0.0800
 6811TIP3    H144628   0.855   7.048   0.183  1.2327 -0.3919  1.5827
 6811TIP3    H244629   0.801   7.157   0.273  0.8471  0.1154  0.7535
 6812TIP3   OH244630   0.179   2.936   7.145  0.3407 -0.5389  0.1255
 6812TIP3    H144631   0.236   2.996   7.097  1.0746 -0.2609  1.3111
 6812TIP3    H244632   0.234   2.861   7.166  0.1989 -0.4071  1.0192
 6813TIP3   OH244633   0.292   5.415   1.906 -0.1890  0.1830  0.1614
 6813TIP3    H144634   0.329   5.376   1.827  1.7212  2.5919 -0.2885
 6813TIP3    H244635   0.205   5.446   1.880  0.4975  1.1270 -1.1316
 6814TIP3   OH244636   0.441   1.279   9.257 -0.2113  0.5299 -0.0329
 6814TIP3    H144637   0.388   1.240   9.188 -0.7589 -1.5682  1.4651
 6814TIP3    H244638   0.383   1.286   9.332  1.3139 -1.0764  1.4101
 6815TIP3   OH244639   1.312   0.528   0.223  0.2058  0.4797  0.0471
 6815TIP3    H144640   1.262   0.587   0.280  0.8012  0.0872  0.9920
 6815TIP3    H244641   1.275   0.442   0.239 -0.0725  0.4644 -0.6700
 6816TIP3   OH244642   3.615   2.218   7.587 -0.5861  0.5074  0.5416
 6816TIP3    H144643   3.696   2.175   7.614 -0.2555  1.1772  0.6319
 6816TIP3    H244644   3.559   2.214   7.665 -1.4318 -1.7381 -0.0978
 6817TIP3   OH244645   7.014   3.075   9.499  0.1372  1.1393 -0.6192
 6817TIP3    H144646   7.022   3.115   9.413  2.9650  1.1030 -0.4543
 6817TIP3    H244647   6.929   3.030   9.497  0.2699  0.8666 -3.4785
 6818TIP3   OH244648   5.295   6.220   8.388  0.2984  0.0874 -0.5968
 6818TIP3    H144649   5.291   6.141   8.441 -1.6914  0.4341 -0.1630
 6818TIP3    H244650   5.344   6.283   8.442  0.0781 -0.2043 -0.0496
 6819TIP3   OH244651   5.243   3.277   8.732  0.0502  0.4459 -0.8629
 6819TIP3    H144652   5.262   3.353   8.677  1.7616  1.5582  1.1313
 6819TIP3    H244653   5.329   3.242   8.755 -0.6791 -1.0615 -0.3059
 6820TIP3   OH244654   6.492   1.477   1.333  0.5390  0.3472  0.0325
 6820TIP3    H144655   6.530   1.457   1.248  0.8034 -0.0358  0.2375
 6820TIP3    H244656   6.554   1.441   1.397 -0.2132 -0.4084  0.3652
 6821TIP3   OH244657   1.222   3.336   1.488  0.0322  0.6386  0.4540
 6821TIP3    H144658   1.307   3.349   1.447 -0.0606 -1.0593 -0.3220
 6821TIP3    H244659   1.160   3.333   1.415 -0.7450  1.9251  1.0122
 6822TIP3   OH244660   7.387   2.919   8.673  0.5757  0.5058  0.0884
 6822TIP3    H144661   7.331   2.841   8.668 -0.0543  1.0076 -0.9605
 6822TIP3    H244662   7.462   2.890   8.725 -0.7825 -0.0785  1.8480
 6823TIP3   OH244663   7.602   5.073   2.750  0.3501  0.3561 -0.7980
 6823TIP3    H144664   7.684   5.032   2.723  0.3938  0.6370 -1.0884
 6823TIP3    H244665   7.599   5.060   2.845  0.8442  0.5536 -0.7537
 6824TIP3   OH244666   7.030   1.349   8.814  0.0985 -0.4671 -0.0079
 6824TIP3    H144667   6.982   1.317   8.738  0.2524 -0.3404 -0.1578
 6824TIP3    H244668   7.021   1.444   8.811 -2.3230 -0.5269  1.7052
 6825TIP3   OH244669   1.109   7.669   7.520  0.5258 -0.0477  0.2847
 6825TIP3    H144670   1.042   7.683   7.453 -1.8964 -3.2835  1.7369
 6825TIP3    H244671   1.186   7.640   7.471  0.3143  1.8551 -1.3109
 6826TIP3   OH244672   6.796   2.824   0.877  0.3805 -0.5645  0.0657
 6826TIP3    H144673   6.863   2.770   0.919  1.2016  0.8181  0.6108
 6826TIP3    H244674   6.728   2.834   0.944  0.3850 -0.6361  0.0816
 6827TIP3   OH244675   4.664   2.218   2.550 -0.0723 -0.1518  0.3584
 6827TIP3    H144676   4.670   2.123   2.541  0.9214 -0.1700  1.1016
 6827TIP3    H244677   4.580   2.233   2.593 -0.6091 -0.6215 -0.4851
 6828TIP3   OH244678   0.249   1.401   9.787  0.1961 -0.1842  0.2301
 6828TIP3    H144679   0.209   1.473   9.737  0.8003 -1.6859 -2.6234
 6828TIP3    H244680   0.338   1.429   9.803  0.2023  0.0554 -0.1972
 6829TIP3   OH244681   4.842   0.937   8.434 -0.2674 -0.3633 -0.4229
 6829TIP3    H144682   4.849   0.946   8.339 -1.4704  0.3555 -0.4687
 6829TIP3    H244683   4.752   0.965   8.454  0.6089  1.5795  1.1502
 6830TIP3   OH244684   7.438   4.681   7.525 -0.5612 -0.1504  0.1597
 6830TIP3    H144685   7.525   4.720   7.516 -1.2005  1.6102  0.9465
 6830TIP3    H244686   7.402   4.722   7.603 -1.4647 -2.1602  0.8604
 6831TIP3   OH244687   1.845   6.373   8.387  0.4081  0.2828  0.3507
 6831TIP3    H144688   1.864   6.279   8.392  1.9706  0.4801 -0.8812
 6831TIP3    H244689   1.904   6.412   8.451  0.6566  0.5131 -0.0145
 6832TIP3   OH244690   1.295   4.705   0.753 -0.1679  0.3282  0.1074
 6832TIP3    H144691   1.220   4.647   0.763 -0.3191  0.4484 -0.3064
 6832TIP3    H244692   1.308   4.712   0.658 -1.0859  2.1420  0.0616
 6833TIP3   OH244693   4.526   2.569   0.065  0.0966 -0.4584  0.5276
 6833TIP3    H144694   4.591   2.547   0.131  0.6226 -0.5244  0.0031
 6833TIP3    H244695   4.572   2.627   0.004 -0.7846  0.7501  0.9746
 6834TIP3   OH244696   1.263   1.735   9.511  1.1874 -0.1815 -0.1280
 6834TIP3    H144697   1.258   1.653   9.461  1.2326 -0.1597 -0.1677
 6834TIP3    H244698   1.185   1.784   9.483 -0.5783 -1.4815  2.1400
 6835TIP3   OH244699   6.426   5.459   8.954  0.3894  0.2017  0.2058
 6835TIP3    H144700   6.434   5.507   9.036 -0.1015  2.2012 -0.8455
 6835TIP3    H244701   6.335   5.474   8.926  1.0889  1.3034 -1.6811
 6836TIP3   OH244702   7.232   0.793   0.602  0.4605  0.0441  0.1207
 6836TIP3    H144703   7.212   0.732   0.531  1.2079  0.0560 -0.1105
 6836TIP3    H244704   7.151   0.842   0.616  0.3700  0.1960 -0.8694
 6837TIP3   OH244705   4.424   4.282   8.974  0.1979  0.0377 -0.5151
 6837TIP3    H144706   4.456   4.192   8.984 -3.1278 -1.3649 -1.0571
 6837TIP3    H244707   4.396   4.307   9.062 -0.7616 -0.2829 -0.7226
 6838TIP3   OH244708   6.613   5.268   0.402 -0.0194 -0.2215 -0.0994
 6838TIP3    H144709   6.689   5.310   0.362 -0.5529  1.2532  0.3927
 6838TIP3    H244710   6.644   5.180   0.424  1.6040  0.4052  0.2544
 6839TIP3   OH244711   6.935   7.368   8.095 -0.0710  0.3498  0.0252
 6839TIP3    H144712   6.889   7.423   8.159 -0.6841 -1.3730  1.1125
 6839TIP3    H244713   6.875   7.297   8.076  0.8850 -0.2074 -0.9993
 6840TIP3   OH244714   3.414   0.778   1.001 -0.7575  0.0686 -0.1554
 6840TIP3    H144715   3.337   0.776   1.059 -0.0955 -0.4829  0.7334
 6840TIP3    H244716   3.486   0.748   1.056 -0.1538 -0.7864 -1.3551
 6841TIP3   OH244717   2.565   6.780   0.342 -0.0378  0.3100  0.2775
 6841TIP3    H144718   2.511   6.848   0.301 -1.3974 -1.6534 -1.3950
 6841TIP3    H244719   2.527   6.769   0.429  0.6835  2.1508  0.8789
 6842TIP3   OH244720   3.977   3.918   1.682 -0.0540  0.0644 -0.1313
 6842TIP3    H144721   4.069   3.903   1.662 -0.2281  1.7423 -2.7566
 6842TIP3    H244722   3.937   3.831   1.683  1.4899 -0.6665  0.8869
 6843TIP3   OH244723   2.863   3.261   8.712 -0.0534 -0.0605  0.3012
 6843TIP3    H144724   2.784   3.209   8.702 -1.3009  1.6156  0.9671
 6843TIP3    H244725   2.901   3.231   8.794 -0.6343 -0.0862  0.5644
 6844TIP3   OH244726   2.711   6.096   3.432  0.1270 -0.3988 -0.4364
 6844TIP3    H144727   2.657   6.093   3.353  0.5081  0.5889 -0.7518
 6844TIP3    H244728   2.648   6.094   3.505 -0.2614 -0.5088 -0.7739
 6845TIP3   OH244729   0.705   1.155   2.085 -0.6994 -0.1343  0.0953
 6845TIP3    H144730   0.788   1.165   2.132  0.3133 -0.3172 -1.5778
 6845TIP3    H244731   0.638   1.174   2.151  0.5997 -1.1552  1.8135
 6846TIP3   OH244732   0.298   1.666   8.382 -0.5717  0.1004  0.0945
 6846TIP3    H144733   0.352   1.649   8.305 -0.9569  0.3685 -0.2346
 6846TIP3    H244734   0.307   1.587   8.435  1.0264  0.5689  0.5668
 6847TIP3   OH244735   2.189   3.205   7.389 -0.3487  0.4069 -0.0441
 6847TIP3    H144736   2.214   3.297   7.396  0.5092  0.3905 -2.1002
 6847TIP3    H244737   2.152   3.198   7.301 -0.0757 -1.2930 -0.0398
 6848TIP3   OH244738   6.441   0.510   2.074 -0.5553 -0.1777  0.3014
 6848TIP3    H144739   6.385   0.502   1.996 -0.1762  1.9785 -0.2356
 6848TIP3    H244740   6.383   0.545   2.141 -0.0821  1.2681 -0.0215
 6849TIP3   OH244741   3.486   6.884   8.754  0.7308 -0.6705  0.0239
 6849TIP3    H144742   3.404   6.902   8.801  1.0912  0.0598  0.3844
 6849TIP3    H244743   3.526   6.812   8.804  1.0865  0.0641  0.8217
 6850TIP3   OH244744   7.590   5.535   7.326 -0.0786  0.1892 -0.3983
 6850TIP3    H144745   7.525   5.600   7.297 -0.3070  0.2397  0.2100
 6850TIP3    H244746   7.665   5.549   7.269  0.1696  1.5151  0.2088
 6851TIP3   OH244747   2.655   6.840   2.979  0.1636 -0.6926  0.4485
 6851TIP3    H144748   2.687   6.901   2.913  0.8879 -0.1621  1.2766
 6851TIP3    H244749   2.700   6.757   2.959  1.9944  0.0003  1.5029
 6852TIP3   OH244750   0.624   0.926   1.981 -0.0208  0.4998  0.5674
 6852TIP3    H144751   0.565   0.946   1.908  0.1595 -1.9582 -0.3496
 6852TIP3    H244752   0.639   1.010   2.024 -1.6446  1.7073 -1.0916
 6853TIP3   OH244753   7.641   5.252   1.570 -0.7124  0.2292 -0.5897
 6853TIP3    H144754   7.589   5.317   1.522 -0.9485  0.3247 -0.2080
 6853TIP3    H244755   7.671   5.298   1.647 -1.1341 -0.1999 -0.1620
 6854TIP3   OH244756   1.324   7.019   9.005 -0.0673  0.0849 -0.2640
 6854TIP3    H144757   1.318   6.929   9.037 -0.9688  0.2591  0.0887
 6854TIP3    H244758   1.348   7.070   9.083 -1.0722  0.3479 -0.1135
 6855TIP3   OH244759   2.100   5.105   6.767  0.3595  0.0659  0.3092
 6855TIP3    H144760   2.160   5.046   6.722  1.7025  0.5397  1.4065
 6855TIP3    H244761   2.143   5.190   6.764 -1.3458  0.9371 -0.8743
 6856TIP3   OH244762   5.198   4.116   1.043 -0.1783  0.1756  0.2328
 6856TIP3    H144763   5.274   4.166   1.072  1.0828 -1.2925 -0.3970
 6856TIP3    H244764   5.187   4.140   0.951 -0.2213  0.0979  0.2175
 6857TIP3   OH244765   1.249   7.375   1.599 -0.2728 -0.2490 -0.0807
 6857TIP3    H144766   1.173   7.356   1.543 -0.9499  1.2276  0.2855
 6857TIP3    H244767   1.324   7.374   1.540 -0.5360 -1.8388 -0.4333
 6858TIP3   OH244768   4.862   7.388   9.613  0.3592  0.1849  0.3069
 6858TIP3    H144769   4.872   7.413   9.522 -0.4505 -0.6257 -0.0215
 6858TIP3    H244770   4.784   7.333   9.615  0.0111  0.6756  1.5873
 6859TIP3   OH244771   3.374   2.020   1.626  0.2313  0.1115 -0.0269
 6859TIP3    H144772   3.307   2.073   1.669 -0.0152  0.1231 -0.4203
 6859TIP3    H244773   3.442   2.084   1.601  0.3344  0.1163  0.2667
 6860TIP3   OH244774   7.081   7.464   0.371 -0.0095  0.0720  0.1178
 6860TIP3    H144775   7.023   7.455   0.447  0.7684  0.1895  0.7428
 6860TIP3    H244776   7.168   7.476   0.409  0.3992  0.0926 -0.8009
 6861TIP3   OH244777   7.073   6.239   8.262 -0.4840 -0.1394  0.1088
 6861TIP3    H144778   7.080   6.334   8.260  0.6044 -0.2159 -0.5731
 6861TIP3    H244779   7.061   6.218   8.355 -2.3754  0.7288  0.1121
 6862TIP3   OH244780   2.584   1.660   0.351  0.0272  0.9963 -0.3293
 6862TIP3    H144781   2.536   1.584   0.320 -0.8992  1.4375 -0.0062
 6862TIP3    H244782   2.676   1.639   0.334 -0.2485 -0.0007 -0.6418
 6863TIP3   OH244783   5.348   1.684   8.911  0.6076  0.2216  0.5697
 6863TIP3    H144784   5.262   1.692   8.869  0.5991 -1.5999  0.1633
 6863TIP3    H244785   5.330   1.650   8.998  0.9729 -2.0704 -0.1814
 6864TIP3   OH244786   4.352   6.066   9.887 -0.0101  0.5938  0.0072
 6864TIP3    H144787   4.346   6.027   9.974  1.3960  0.1397 -0.0679
 6864TIP3    H244788   4.265   6.054   9.849 -0.6676  0.8526  1.3577
 6865TIP3   OH244789   0.691   1.190   9.153 -0.2916 -0.7906 -0.1113
 6865TIP3    H144790   0.717   1.111   9.200  1.5800  0.5379  1.2629
 6865TIP3    H244791   0.604   1.211   9.187  0.0746 -1.1414  1.0721
 6866TIP3   OH244792   4.856   3.586   1.994 -0.0373  0.2316 -0.1371
 6866TIP3    H144793   4.896   3.591   1.907  1.6988 -1.5211  0.4728
 6866TIP3    H244794   4.899   3.654   2.044 -0.2206  0.5058 -0.3497
 6867TIP3   OH244795   4.838   6.467   0.200 -0.5933 -0.1776  0.4703
 6867TIP3    H144796   4.788   6.505   0.272 -1.7390  0.5777 -0.6944
 6867TIP3    H244797   4.810   6.515   0.122  1.0387 -0.5727 -0.4257
 6868TIP3   OH244798   1.138   4.870   0.999  0.7392 -0.1951 -0.3800
 6868TIP3    H144799   1.186   4.916   1.068  1.5220 -0.4161 -0.7723
 6868TIP3    H244800   1.201   4.858   0.929  0.2162 -0.8381 -0.7569
 6869TIP3   OH244801   2.008   4.223   9.953 -0.6062 -0.2268 -0.3159
 6869TIP3    H144802   1.943   4.285   9.986 -0.4490  0.0655 -0.5531
 6869TIP3    H244803   2.057   4.272   9.888 -1.1157 -0.8857 -1.2178
 6870TIP3   OH244804   1.458   5.458   3.061  0.7856  0.1865  0.0619
 6870TIP3    H144805   1.461   5.490   3.151  1.4798  0.9232 -0.2156
 6870TIP3    H244806   1.549   5.449   3.035  0.6166 -1.7161 -0.0007
 6871TIP3   OH244807   4.670   7.537   2.384  0.0074 -0.0849  0.4807
 6871TIP3    H144808   4.735   7.515   2.317  0.7978  0.2135  1.1370
 6871TIP3    H244809   4.705   7.614   2.428 -1.4747  0.9562 -0.0646
 6872TIP3   OH244810   4.678   6.564   1.991  0.0266  0.1483 -0.3218
 6872TIP3    H144811   4.753   6.512   2.020 -0.5538 -1.1384 -1.0486
 6872TIP3    H244812   4.715   6.648   1.966  1.3423 -0.7041 -1.3580
 6873TIP3   OH244813   5.949   2.889   9.682  0.0871  0.2531 -0.1838
 6873TIP3    H144814   5.879   2.952   9.665 -0.1461 -0.3339 -1.5219
 6873TIP3    H244815   5.911   2.829   9.747 -0.5091  0.1837 -0.5859
 6874TIP3   OH244816   0.418   4.855   8.389 -0.2261 -0.7513  0.2730
 6874TIP3    H144817   0.431   4.889   8.477  0.7837  1.2147 -0.5799
 6874TIP3    H244818   0.325   4.870   8.371 -0.2763 -0.4978  0.7407
 6875TIP3   OH244819   4.620   2.489   9.259 -0.1749  0.0350 -0.0686
 6875TIP3    H144820   4.695   2.449   9.304 -0.6333 -0.5304  0.2134
 6875TIP3    H244821   4.649   2.577   9.237  0.3851  0.0072  0.5287
 6876TIP3   OH244822   7.442   2.899   9.168 -0.1764 -0.3274  0.1770
 6876TIP3    H144823   7.462   2.929   9.257 -0.6351  0.1908  0.1156
 6876TIP3    H244824   7.521   2.917   9.118  0.0294 -0.4737  0.4473
 6877TIP3   OH244825   6.177   7.651   8.167  0.2472  0.0716  0.4222
 6877TIP3    H144826   6.209   7.588   8.230  1.4812  1.2696  1.0529
 6877TIP3    H244827   6.254   7.674   8.114 -0.4961 -0.0233 -0.7396
 6878TIP3   OH244828   2.820   6.736   1.495  0.2157 -0.4479 -0.0532
 6878TIP3    H144829   2.768   6.734   1.415  1.5545 -0.3067 -0.9735
 6878TIP3    H244830   2.757   6.753   1.565 -0.9604 -0.3889 -1.0925
 6879TIP3   OH244831   0.691   2.112   9.194 -0.0960  0.5874  0.1683
 6879TIP3    H144832   0.694   2.155   9.108 -0.4137 -0.7870 -0.5770
 6879TIP3    H244833   0.715   2.021   9.175 -0.4436  0.2043  1.4941
 6880TIP3   OH244834   1.252   1.670   0.601 -0.0846  0.7522 -0.1042
 6880TIP3    H144835   1.176   1.727   0.596 -0.3779  0.3988  0.2565
 6880TIP3    H244836   1.323   1.721   0.562 -0.6202  0.8788 -0.9253
 6881TIP3   OH244837   2.305   2.111   8.362  0.3528  0.8741  0.2267
 6881TIP3    H144838   2.267   2.197   8.381 -0.4115  0.5317  0.2851
 6881TIP3    H244839   2.271   2.089   8.275 -0.3566  0.1555  0.6662
 6882TIP3   OH244840   5.006   0.439   1.059 -0.5817 -0.6356  0.4268
 6882TIP3    H144841   5.060   0.509   1.023 -1.4320 -0.6682 -0.9657
 6882TIP3    H244842   5.050   0.358   1.031  0.2196 -0.7041  1.7620
 6883TIP3   OH244843   0.246   3.428   0.920  0.0490  0.1757 -0.5446
 6883TIP3    H144844   0.245   3.491   0.848 -1.2425  0.9685  0.1223
 6883TIP3    H244845   0.256   3.482   0.999  1.7785 -0.6994 -0.1084
 6884TIP3   OH244846   3.067   5.450   7.324 -0.2616  0.0137  0.3195
 6884TIP3    H144847   3.065   5.517   7.392 -1.2749 -0.4146  0.7299
 6884TIP3    H244848   3.067   5.367   7.373 -0.3567 -0.2915 -0.1970
 6885TIP3   OH244849   0.831   4.706   8.970  0.5517 -0.3166 -0.4251
 6885TIP3    H144850   0.913   4.667   8.940 -0.2467 -0.7671 -2.1399
 6885TIP3    H244851   0.851   4.799   8.979  1.6829 -0.6425  0.8513
 6886TIP3   OH244852   3.363   5.766   7.956 -0.2353  1.1649 -0.3837
 6886TIP3    H144853   3.279   5.783   7.998 -1.0742 -2.4923 -0.2306
 6886TIP3    H244854   3.408   5.706   8.016  1.1376  0.5679 -1.9294
 6887TIP3   OH244855   7.324   5.949   0.245  0.2109 -0.3991  0.5124
 6887TIP3    H144856   7.273   6.002   0.183  0.9895 -1.4496 -1.0616
 6887TIP3    H244857   7.280   5.864   0.246  2.2922 -1.5938 -1.4814
 6888TIP3   OH244858   1.901   4.149   8.014  0.2786  0.1159  0.7582
 6888TIP3    H144859   1.986   4.195   8.013 -0.2447  1.1245 -0.1114
 6888TIP3    H244860   1.837   4.219   8.024 -0.5063 -0.5400  0.3944
 6889TIP3   OH244861   0.339   6.249   9.142 -0.1999  0.1621  0.1832
 6889TIP3    H144862   0.264   6.271   9.087 -1.2280 -0.5936  1.2453
 6889TIP3    H244863   0.374   6.334   9.169 -0.2611  0.5316 -0.8210
 6890TIP3   OH244864   1.312   7.621   9.101 -0.5042 -0.2091  0.2300
 6890TIP3    H144865   1.240   7.640   9.041 -1.4876  1.2999  1.7836
 6890TIP3    H244866   1.293   7.674   9.179  2.7249  0.8928  0.4070
 6891TIP3   OH244867   4.419   4.983   1.599  0.0706  0.4841  0.0533
 6891TIP3    H144868   4.393   4.929   1.525  1.6801  1.3625 -1.2162
 6891TIP3    H244869   4.407   5.073   1.569  2.3935  0.8981  0.1363
 6892TIP3   OH244870   5.383   5.897   9.106  0.0396  0.2873 -0.3356
 6892TIP3    H144871   5.346   5.980   9.136 -1.0580 -0.1072 -0.5301
 6892TIP3    H244872   5.435   5.920   9.029  0.2289  0.8721 -0.0335
 6893TIP3   OH244873   5.854   5.011   0.648  0.4196  0.7583 -0.6592
 6893TIP3    H144874   5.938   5.057   0.642  0.7195  0.6118  1.5205
 6893TIP3    H244875   5.874   4.920   0.624  0.2896  1.2160 -2.7182
 6894TIP3   OH244876   4.224   5.397   1.912  0.2369  0.3401 -0.6628
 6894TIP3    H144877   4.255   5.306   1.919 -1.0165 -0.0918 -0.4259
 6894TIP3    H244878   4.259   5.428   1.829  0.6784 -0.3632 -0.7479
 6895TIP3   OH244879   7.433   0.034   8.315  0.4820 -0.0264 -0.0611
 6895TIP3    H144880   7.423  -0.037   8.252  0.5432  0.3488 -0.5047
 6895TIP3    H244881   7.380   0.009   8.390  1.9053 -1.3973  0.5413
 6896TIP3   OH244882   4.627   3.820   9.071  0.1117  0.6828 -0.1984
 6896TIP3    H144883   4.715   3.817   9.034  0.9316 -1.0178  1.7468
 6896TIP3    H244884   4.630   3.892   9.135  0.1364  0.4954  0.0093
 6897TIP3   OH244885   4.370   2.152   8.376 -0.5290 -0.1969  0.2401
 6897TIP3    H144886   4.351   2.200   8.295  0.4425 -1.0404 -0.5076
 6897TIP3    H244887   4.384   2.221   8.441 -2.4083  0.4983 -0.0129
 6898TIP3   OH244888   3.747   5.168   0.240 -0.3655  0.2556  0.2419
 6898TIP3    H144889   3.820   5.111   0.216 -2.0409 -2.0635  0.3289
 6898TIP3    H244890   3.725   5.143   0.330  0.4964  2.9485  1.2832
 6899TIP3   OH244891   0.927   6.614   6.679  0.4535  0.5842  0.1877
 6899TIP3    H144892   0.931   6.523   6.649  0.2736  1.0815 -1.4513
 6899TIP3    H244893   1.012   6.629   6.720  0.4071 -0.3739  0.6693
 6900TIP3   OH244894   7.425   4.633   8.450  0.0770 -0.4068 -0.0156
 6900TIP3    H144895   7.433   4.665   8.540 -0.1806  0.3457 -0.2485
 6900TIP3    H244896   7.353   4.684   8.412 -0.5107 -1.4512 -0.3427
 6901TIP3   OH244897   5.532   6.933   8.197  0.5252  0.0061  0.3579
 6901TIP3    H144898   5.604   6.875   8.219 -0.4120 -1.2232  0.2561
 6901TIP3    H244899   5.490   6.952   8.281  1.8914  2.0737  0.6678
 6902TIP3   OH244900   2.151   1.007   7.898  0.3365 -0.2499 -0.3254
 6902TIP3    H144901   2.158   0.996   7.803  1.0132  0.6445 -0.4027
 6902TIP3    H244902   2.071   0.961   7.922  1.4157 -2.6003 -0.9669
 6903TIP3   OH244903   0.494   6.303   2.374  0.1556  0.1388 -0.3349
 6903TIP3    H144904   0.480   6.215   2.409 -1.4210  0.3173 -0.4872
 6903TIP3    H244905   0.478   6.362   2.447  2.8951  0.3085  0.2646
 6904TIP3   OH244906   0.241   4.781   9.682  0.1619  0.3106  0.5305
 6904TIP3    H144907   0.225   4.722   9.756 -0.5040  0.3082  0.3968
 6904TIP3    H244908   0.196   4.739   9.609 -1.3960  1.5715  0.6986
 6905TIP3   OH244909   3.697   1.651   8.214  0.0258  0.4769 -0.1796
 6905TIP3    H144910   3.611   1.624   8.249 -0.5366 -1.2820 -2.6053
 6905TIP3    H244911   3.758   1.588   8.251 -0.0616  0.4896 -0.0118
 6906TIP3   OH244912   1.210   0.642   8.820  0.7475 -0.1189  0.4585
 6906TIP3    H144913   1.301   0.611   8.817  1.0601  0.7244  0.9594
 6906TIP3    H244914   1.166   0.581   8.879  1.0563 -0.3644  0.4380
 6907TIP3   OH244915   1.509   7.273   8.885 -0.0743  0.4871  0.6228
 6907TIP3    H144916   1.476   7.213   8.952  0.0143  1.0857  1.2119
 6907TIP3    H244917   1.506   7.222   8.804  0.5965 -0.5201  1.2079
 6908TIP3   OH244918   6.614   6.698   1.952 -0.3205  0.0811  0.2952
 6908TIP3    H144919   6.520   6.710   1.966 -0.1646  0.5584  0.9829
 6908TIP3    H244920   6.643   6.649   2.030 -0.1453 -0.8001 -0.3119
 6909TIP3   OH244921   7.360   2.856   1.773 -0.2322 -0.4616  0.2295
 6909TIP3    H144922   7.369   2.903   1.690  1.9133  0.1809  0.7633
 6909TIP3    H244923   7.271   2.876   1.802 -0.2792  1.1157 -0.8411
 6910TIP3   OH244924   1.115   7.676   6.687  0.2527  0.1368 -0.1602
 6910TIP3    H144925   1.088   7.640   6.603  1.5615 -1.4566  0.0396
 6910TIP3    H244926   1.081   7.615   6.752  1.0155  0.1927  0.3132
 6911TIP3   OH244927   7.648   1.240   0.947  0.1256 -0.6256 -0.1607
 6911TIP3    H144928   7.707   1.242   0.872  1.0115 -0.7689  0.5150
 6911TIP3    H244929   7.566   1.207   0.912  0.8072 -1.6244 -0.8701
 6912TIP3   OH244930   6.485   3.422   9.702 -0.0536  0.2860  0.0550
 6912TIP3    H144931   6.397   3.385   9.701  1.1097 -2.8534 -2.3084
 6912TIP3    H244932   6.512   3.416   9.794 -1.7605 -0.0093  0.5824
 6913TIP3   OH244933   2.729   2.455   8.889  0.9759 -0.2558  0.5987
 6913TIP3    H144934   2.735   2.504   8.970  1.1250 -0.0866  0.4845
 6913TIP3    H244935   2.817   2.458   8.852  0.5324  1.1868 -0.4526
 6914TIP3   OH244936   7.246   0.779   9.313  0.2634  0.2663 -1.1128
 6914TIP3    H144937   7.293   0.796   9.395  1.1437 -1.9030 -1.1196
 6914TIP3    H244938   7.192   0.702   9.331 -0.9370  0.8530 -2.0514
 6915TIP3   OH244939   1.815   1.846   0.308  0.0977 -0.1075  0.2692
 6915TIP3    H144940   1.804   1.939   0.288 -0.4031 -0.5776 -1.9687
 6915TIP3    H244941   1.856   1.810   0.229 -0.3224 -1.9056  0.8253
 6916TIP3   OH244942   6.792   2.569   9.678  0.3418  0.1520 -0.3285
 6916TIP3    H144943   6.725   2.572   9.610 -1.2403 -3.0817  0.8505
 6916TIP3    H244944   6.875   2.584   9.632 -0.9096  1.3358 -2.3292
 6917TIP3   OH244945   1.547   5.981   6.915  0.4385  0.1411  0.1280
 6917TIP3    H144946   1.559   5.888   6.933  0.1921 -0.0085 -0.4279
 6917TIP3    H244947   1.497   6.015   6.989  3.0167  0.4960  1.8272
 6918TIP3   OH244948   2.853   5.436   9.970 -0.0746 -0.4371 -0.3822
 6918TIP3    H144949   2.939   5.436   9.929  0.3320 -0.2452  0.4376
 6918TIP3    H244950   2.811   5.516   9.940  0.1122 -0.4298 -0.6221
 6919TIP3   OH244951   0.108   3.604   9.801  0.2994  0.0259  0.7666
 6919TIP3    H144952   0.181   3.592   9.741  0.0248 -1.0585  0.6421
 6919TIP3    H244953   0.060   3.679   9.766  0.3581 -0.3597 -0.1393
 6920TIP3   OH244954   2.529   5.923   7.376  0.1158  0.0257 -0.3396
 6920TIP3    H144955   2.472   5.964   7.441 -0.1242 -1.7162  0.6141
 6920TIP3    H244956   2.470   5.894   7.307  0.2588  1.0154 -0.9003
 6921TIP3   OH244957   4.351   7.463   0.182 -0.0871  0.1978 -0.4674
 6921TIP3    H144958   4.419   7.452   0.116 -0.0338  2.1571 -0.7933
 6921TIP3    H244959   4.269   7.454   0.134 -0.0850  3.3633 -1.2648
 6922TIP3   OH244960   2.203   7.648   0.942  0.1624  0.2224  0.0195
 6922TIP3    H144961   2.121   7.599   0.953  0.5083 -0.1426  1.0940
 6922TIP3    H244962   2.269   7.580   0.928  0.3454  0.4981 -0.4515
 6923TIP3   OH244963   5.264   4.316   7.551 -0.9105 -0.3022 -0.6006
 6923TIP3    H144964   5.343   4.262   7.555 -0.6750  0.0281 -0.6925
 6923TIP3    H244965   5.295   4.400   7.517 -1.0849  0.2201  0.4679
 6924TIP3   OH244966   5.472   5.224   0.902  0.6635 -0.4723 -0.3805
 6924TIP3    H144967   5.494   5.132   0.918  0.3157 -0.4347  0.3238
 6924TIP3    H244968   5.465   5.230   0.806  0.6886 -1.1804 -0.4328
 6925TIP3   OH244969   3.755   3.721   8.168  0.4335  0.0594  0.1914
 6925TIP3    H144970   3.710   3.798   8.203 -1.1262 -0.5868 -0.2975
 6925TIP3    H244971   3.848   3.742   8.176  0.0654  2.3677 -0.7495
 6926TIP3   OH244972   0.217   5.030   9.791 -0.7942 -0.1671  0.3247
 6926TIP3    H144973   0.142   5.053   9.736 -1.2317 -0.1997  0.8952
 6926TIP3    H244974   0.242   4.942   9.763  0.1924  0.5247 -1.1096
 6927TIP3   OH244975   1.374   3.732   1.406  0.3727  0.0124  0.3819
 6927TIP3    H144976   1.287   3.704   1.433 -1.1593  0.3433 -3.5629
 6927TIP3    H244977   1.410   3.778   1.482 -2.2943 -1.2719  2.5843
 6928TIP3   OH244978   1.720   6.782   2.757 -0.0425  0.3065 -0.0745
 6928TIP3    H144979   1.765   6.781   2.842 -0.1291  0.6407 -0.0223
 6928TIP3    H244980   1.638   6.829   2.775  0.0727  0.6353 -0.4091
 6929TIP3   OH244981   6.219   0.201   8.445  0.4471 -0.1153  0.0218
 6929TIP3    H144982   6.270   0.202   8.364  0.5314 -1.5600  0.0264
 6929TIP3    H244983   6.203   0.108   8.462  0.9058  0.1184  1.9617
 6930TIP3   OH244984   3.628   6.747   3.076 -0.4451  0.3732 -0.2669
 6930TIP3    H144985   3.693   6.737   3.006 -1.6214  0.7130 -1.4522
 6930TIP3    H244986   3.657   6.687   3.144  0.4355 -0.3997 -1.2810
 6931TIP3   OH244987   4.233   0.905   7.663  0.1588  0.4604  0.1328
 6931TIP3    H144988   4.173   0.896   7.589 -0.3399  2.0311  0.3067
 6931TIP3    H244989   4.301   0.965   7.632  0.5158  0.3085  0.6050
 6932TIP3   OH244990   6.948   5.836   7.225 -0.0983 -0.6012 -0.0843
 6932TIP3    H144991   7.001   5.884   7.288  1.3564 -0.7337 -1.1645
 6932TIP3    H244992   6.985   5.859   7.140 -0.7915 -1.9046 -0.7632
 6933TIP3   OH244993   2.302   0.065   9.233  0.1310  0.3296  0.4706
 6933TIP3    H144994   2.319   0.155   9.205 -0.8272  0.5517  0.5673
 6933TIP3    H244995   2.353   0.011   9.172  3.1658  0.9647  2.1918
 6934TIP3   OH244996   1.815   2.323   2.804  0.3384  0.0935  0.0347
 6934TIP3    H144997   1.749   2.282   2.860  0.0964  0.3021 -0.0949
 6934TIP3    H244998   1.773   2.329   2.718  0.3177  0.7326  0.0822
 6935TIP3   OH244999   1.583   1.014   2.232 -0.1515 -0.2433 -0.0174
 6935TIP3    H145000   1.627   0.981   2.310 -0.8654 -0.3346  0.3456
 6935TIP3    H245001   1.616   1.103   2.221 -0.4284 -0.0502  0.6765
 6936TIP3   OH245002   5.757   1.111   0.337 -0.0211  0.1246 -0.7359
 6936TIP3    H145003   5.799   1.033   0.302  0.4320 -1.4143  2.7797
 6936TIP3    H245004   5.827   1.159   0.381 -0.7420  1.2921 -0.7985
 6937TIP3   OH245005   0.617   4.791   1.598  0.1091 -0.3739 -0.0924
 6937TIP3    H145006   0.623   4.701   1.566  1.2106 -0.3685  0.0759
 6937TIP3    H245007   0.572   4.838   1.528 -2.6383 -1.4973  0.7837
 6938TIP3   OH245008   6.015   3.879   7.404 -0.4162  0.5275  0.2039
 6938TIP3    H145009   6.071   3.945   7.444  1.2545  1.0011 -2.6330
 6938TIP3    H245010   6.069   3.800   7.404 -1.0548  0.0851  0.3915
 6939TIP3   OH245011   1.802   1.388   9.272 -0.4538 -0.4835 -0.2067
 6939TIP3    H145012   1.764   1.470   9.304  0.0461  0.3774 -1.7060
 6939TIP3    H245013   1.878   1.374   9.329  0.1874  0.7979 -0.6788
 6940TIP3   OH245014   5.652   2.557   7.784  0.3655  0.7079 -0.1697
 6940TIP3    H145015   5.639   2.633   7.726  2.3196 -0.2293 -1.9670
 6940TIP3    H245016   5.641   2.592   7.872 -0.4346  2.7090 -1.0019
 6941TIP3   OH245017   0.029   7.623   0.851 -0.3559  0.7999  0.2638
 6941TIP3    H145018   0.043   7.717   0.853  1.1530  0.5953  0.7138
 6941TIP3    H245019   0.083   7.589   0.923 -1.6843 -0.3108  0.7750
 6942TIP3   OH245020   0.791   5.833   7.532  0.1647  0.0291  0.5469
 6942TIP3    H145021   0.738   5.777   7.475  0.4449  0.7386 -0.4375
 6942TIP3    H245022   0.749   5.827   7.618 -2.0276  1.2374 -0.3881
 6943TIP3   OH245023   2.649   4.841   2.949  0.0714  0.2001 -0.1291
 6943TIP3    H145024   2.710   4.903   2.988 -0.2488  0.4221  0.0288
 6943TIP3    H245025   2.702   4.791   2.887  0.6987 -0.4961  0.9478
 6944TIP3   OH245026   3.089   4.097   9.635  0.2428 -0.0259 -0.4919
 6944TIP3    H145027   3.083   4.009   9.673  2.8197 -1.1188 -2.2759
 6944TIP3    H245028   3.144   4.146   9.696  1.4834 -0.7124 -1.0036
 6945TIP3   OH245029   3.113   1.798   9.308  0.0576 -0.1726  0.0973
 6945TIP3    H145030   3.095   1.794   9.402 -1.6735  2.9087  0.0313
 6945TIP3    H245031   3.172   1.872   9.297  0.0162 -0.3020 -1.2945
 6946TIP3   OH245032   7.558   5.861   0.553  0.4831  0.2214 -0.2446
 6946TIP3    H145033   7.642   5.897   0.580  0.9078 -0.1032 -1.1002
 6946TIP3    H245034   7.519   5.929   0.498  0.5856  0.0064 -0.5823
 6947TIP3   OH245035   5.360   4.548   8.195 -0.0611 -0.2267  0.0073
 6947TIP3    H145036   5.430   4.608   8.171 -0.6410  0.8771  0.9535
 6947TIP3    H245037   5.319   4.588   8.271 -0.9325 -1.4782  0.2344
 6948TIP3   OH245038   5.906   1.480   1.202 -0.0710 -0.1988  0.0406
 6948TIP3    H145039   5.856   1.516   1.275 -0.1138 -2.1344  1.0279
 6948TIP3    H245040   5.865   1.395   1.184  0.1853  0.0631 -1.9881
 6949TIP3   OH245041   1.137   0.726   1.029  0.3309  0.3288  0.1953
 6949TIP3    H145042   1.118   0.742   1.121 -1.9824 -1.1215  0.0497
 6949TIP3    H245043   1.207   0.787   1.008  0.4665  1.1592  2.7300
 6950TIP3   OH245044   2.247   0.764   7.321 -0.0332 -0.0185 -0.1728
 6950TIP3    H145045   2.225   0.790   7.232 -2.0251 -0.5236  0.1262
 6950TIP3    H245046   2.246   0.668   7.319 -0.7960 -0.0374  0.5369
 6951TIP3   OH245047   4.391   4.882   9.055  0.4769 -0.2328 -0.4932
 6951TIP3    H145048   4.348   4.809   9.101 -1.2134  1.4276  0.7275
 6951TIP3    H245049   4.354   4.878   8.967 -0.0465 -0.5299 -0.2723
 6952TIP3   OH245050   0.922   2.370   0.573  0.6194  0.1687  0.1141
 6952TIP3    H145051   0.946   2.349   0.483  0.8547  0.0416  0.2051
 6952TIP3    H245052   1.005   2.389   0.616  0.3824  1.8513 -0.0995
 6953TIP3   OH245053   1.418   3.801   8.774 -0.2522 -0.4490  0.0455
 6953TIP3    H145054   1.497   3.821   8.824 -1.3219  0.9593  1.2405
 6953TIP3    H245055   1.432   3.712   8.742  1.5702 -0.4297  0.7058
 6954TIP3   OH245056   1.551   4.532   9.951  0.0209  0.2542 -0.5493
 6954TIP3    H145057   1.457   4.519   9.935  0.0175  0.6570 -0.8799
 6954TIP3    H245058   1.566   4.624   9.930  0.6527 -0.0171 -1.3472
 6955TIP3   OH245059   2.410   7.301   7.576  0.1581 -0.1331  0.6375
 6955TIP3    H145060   2.497   7.313   7.614 -0.4297 -0.7275  2.2741
 6955TIP3    H245061   2.390   7.209   7.590 -0.6527 -0.0544  0.0598
 6956TIP3   OH245062   5.450   3.757   8.893 -0.9375 -0.1324  0.0167
 6956TIP3    H145063   5.396   3.816   8.946 -1.9766 -1.1896  0.1867
 6956TIP3    H245064   5.487   3.812   8.824 -2.5595  0.5732 -0.3310
 6957TIP3   OH245065   7.418   3.991   1.967  0.0491 -0.3112  0.3156
 6957TIP3    H145066   7.412   4.086   1.963  1.9250 -0.1773 -2.5642
 6957TIP3    H245067   7.438   3.964   1.877  0.4521 -3.3532  1.1836
 6958TIP3   OH245068   4.276   4.108   8.290  0.3490 -0.1479  0.1368
 6958TIP3    H145069   4.262   4.175   8.223 -1.5897 -0.4453  0.1986
 6958TIP3    H245070   4.312   4.157   8.365  3.9118 -0.0093 -1.4452
 6959TIP3   OH245071   7.000   3.243   7.599  0.1536  0.7437  0.5996
 6959TIP3    H145072   7.000   3.333   7.632 -1.7785  0.5600  1.2603
 6959TIP3    H245073   7.014   3.189   7.676  1.7094  0.4431  0.1465
 6960TIP3   OH245074   6.675   0.400   9.761 -0.3468  0.0213 -0.5031
 6960TIP3    H145075   6.696   0.405   9.854 -2.1195 -0.0366 -0.0607
 6960TIP3    H245076   6.621   0.321   9.753 -0.9167  0.4866 -1.4323
 6961TIP3   OH245077   4.946   0.365   8.250  0.0792 -0.0798  0.3462
 6961TIP3    H145078   4.892   0.289   8.275 -1.8209  1.0928  0.0447
 6961TIP3    H245079   4.997   0.334   8.175 -0.7887 -1.0287  0.1163
 6962TIP3   OH245080   2.595   4.888   9.211  0.1541 -0.1994 -0.6723
 6962TIP3    H145081   2.515   4.883   9.159  0.6819 -0.5575 -1.4580
 6962TIP3    H245082   2.657   4.935   9.156  0.8070 -0.8154 -0.4769
 6963TIP3   OH245083   6.192   0.549   2.196  0.5656 -0.3396  0.1557
 6963TIP3    H145084   6.129   0.521   2.130  0.3140  0.0673  0.2207
 6963TIP3    H245085   6.150   0.527   2.279  0.2274  0.5071  0.2158
 6964TIP3   OH245086   6.348   0.417   1.548  0.3130 -0.2271 -0.5484
 6964TIP3    H145087   6.378   0.385   1.633  0.9477  0.4501 -0.5027
 6964TIP3    H245088   6.341   0.339   1.493  0.1532 -0.6362  0.0438
 6965TIP3   OH245089   6.808   4.342   1.999 -0.7202  0.2799  0.6661
 6965TIP3    H145090   6.848   4.317   2.082  1.2017 -0.8075 -0.5148
 6965TIP3    H245091   6.743   4.273   1.983 -0.6159  0.1138  0.9405
 6966TIP3   OH245092   2.809   3.473   8.196  0.1269  0.0024  0.2613
 6966TIP3    H145093   2.749   3.413   8.153  0.5695  0.1297 -0.5494
 6966TIP3    H245094   2.839   3.426   8.274 -2.2607  0.5520  1.5995
 6967TIP3   OH245095   1.677   5.331   1.395 -0.1388  0.0139 -0.6249
 6967TIP3    H145096   1.638   5.246   1.375 -0.3131 -0.2057  0.6016
 6967TIP3    H245097   1.767   5.324   1.362  0.1114 -0.9612  0.2079
 6968TIP3   OH245098   1.842   4.792   9.133 -0.2069  0.5591  0.2603
 6968TIP3    H145099   1.926   4.829   9.160 -0.1289  0.8084 -0.3107
 6968TIP3    H245100   1.864   4.711   9.088 -0.4817 -1.4481  3.4118
 6969TIP3   OH245101   1.665   3.039   8.854  0.2795  0.4217  0.1247
 6969TIP3    H145102   1.732   3.053   8.922  0.7171 -0.7435 -0.0273
 6969TIP3    H245103   1.692   3.096   8.782  0.9375  0.2121  0.1919
 6970TIP3   OH245104   5.938   6.777   0.015 -0.2725 -0.2498 -0.1683
 6970TIP3    H145105   5.849   6.751   0.036 -0.1336 -0.3730  0.2764
 6970TIP3    H245106   5.963   6.836   0.087  0.3428 -0.9781  0.2286
 6971TIP3   OH245107   3.967   2.760   8.179 -0.4618  0.1788 -0.1519
 6971TIP3    H145108   3.932   2.678   8.145 -0.0369  0.3749 -1.0895
 6971TIP3    H245109   3.978   2.816   8.102  1.0714  0.4241  0.2069
 6972TIP3   OH245110   0.600   4.775   9.322  0.2143 -0.0163  0.3744
 6972TIP3    H145111   0.680   4.727   9.299 -0.2298 -0.6515  0.1163
 6972TIP3    H245112   0.629   4.865   9.336  1.3523 -0.6487  2.5000
 6973TIP3   OH245113   7.541   2.725   2.499 -0.0423 -0.0513 -0.2653
 6973TIP3    H145114   7.519   2.813   2.468  1.4483  0.1914 -0.7155
 6973TIP3    H245115   7.636   2.727   2.512  0.1878 -1.9216 -1.3286
 6974TIP3   OH245116   6.879   7.115   0.558 -0.7873 -0.3262 -0.0434
 6974TIP3    H145117   6.934   7.136   0.483 -0.1154  1.3729  0.8727
 6974TIP3    H245118   6.899   7.023   0.577  0.2582 -0.3049 -0.9345
 6975TIP3   OH245119   4.493   7.482   8.235  0.3968 -0.2399 -0.0593
 6975TIP3    H145120   4.515   7.438   8.317 -0.8134 -3.3980 -1.2917
 6975TIP3    H245121   4.497   7.575   8.256 -2.2690 -0.8523  4.2693
 6976TIP3   OH245122   6.157   5.478   8.698  0.8871 -0.1428  0.1958
 6976TIP3    H145123   6.132   5.447   8.611 -0.1897 -0.0412  0.4559
 6976TIP3    H245124   6.211   5.555   8.681 -1.1132  1.2192 -0.3934
 6977TIP3   OH245125   0.356   5.291   9.642  0.4087 -0.9480 -0.0772
 6977TIP3    H145126   0.340   5.333   9.558 -0.1664 -1.0272 -0.0102
 6977TIP3    H245127   0.271   5.294   9.687  0.7427 -0.7962  0.5467
 6978TIP3   OH245128   0.015   1.222   9.568  0.6269  0.0014 -0.0414
 6978TIP3    H145129  -0.004   1.195   9.657  1.5209  1.4746  0.6248
 6978TIP3    H245130  -0.042   1.167   9.514 -1.8167  0.7944  1.5450
 6979TIP3   OH245131   5.021   5.354   1.018  0.1430 -0.0807  0.0773
 6979TIP3    H145132   5.005   5.332   0.926 -1.8291 -0.4031  0.4592
 6979TIP3    H245133   4.934   5.352   1.059  0.9876 -0.0439  1.9724
 6980TIP3   OH245134   2.164   1.968   0.107  0.8961 -0.4308 -0.1185
 6980TIP3    H145135   2.247   2.016   0.105  0.1121  0.9578 -1.5682
 6980TIP3    H245136   2.151   1.947   0.199  2.0676  0.7982  0.3616
 6981TIP3   OH245137   1.481   2.005   9.781 -0.4873 -0.2291 -0.2695
 6981TIP3    H145138   1.567   2.016   9.739  0.4371  0.9211  1.8224
 6981TIP3    H245139   1.420   2.046   9.720  0.7622  1.0456 -0.7268
 6982TIP3   OH245140   2.682   3.385   2.321 -0.3324  0.1309  0.0347
 6982TIP3    H145141   2.743   3.445   2.363 -2.1440  1.9284  0.2444
 6982TIP3    H245142   2.601   3.393   2.371 -1.2223 -0.9976 -1.1411
 6983TIP3   OH245143   5.625   2.231   9.663  0.6257  0.4251 -0.5924
 6983TIP3    H145144   5.540   2.196   9.639  0.3304  1.1923 -0.6952
 6983TIP3    H245145   5.609   2.324   9.680  1.1976  0.3314  0.6043
 6984TIP3   OH245146   4.378   4.438   1.208  0.1978 -0.5178 -0.6097
 6984TIP3    H145147   4.452   4.380   1.228  1.4008  1.2527  0.3906
 6984TIP3    H245148   4.377   4.501   1.280 -1.8316 -0.0107 -1.0099
 6985TIP3   OH245149   6.307   1.697   8.143  0.8158 -0.0775  0.4863
 6985TIP3    H145150   6.245   1.645   8.092 -1.3260  0.4372  2.4172
 6985TIP3    H245151   6.322   1.775   8.089  0.5039 -0.6088 -0.3939
 6986TIP3   OH245152   5.536   3.382   9.052  0.3038 -0.4356  0.2145
 6986TIP3    H145153   5.601   3.326   9.094  0.0118 -0.2415  0.9479
 6986TIP3    H245154   5.482   3.414   9.125  0.7969  1.2421 -0.1066
 6987TIP3   OH245155   5.135   6.995   0.890  0.0363 -0.0934  0.4783
 6987TIP3    H145156   5.144   6.926   0.825  1.2705 -1.0951  1.6462
 6987TIP3    H245157   5.045   7.026   0.881 -0.3560 -1.4324 -0.4825
 6988TIP3   OH245158   5.919   1.705   1.037 -0.0148  0.4827 -0.1378
 6988TIP3    H145159   5.952   1.626   1.080  0.2445  0.4664 -0.3647
 6988TIP3    H245160   5.936   1.776   1.100  1.0550  0.5800 -0.5060
 6989TIP3   OH245161   7.204   4.151   8.472 -0.6765  0.0964  0.3615
 6989TIP3    H145162   7.291   4.180   8.446  0.2724 -2.4375  0.4221
 6989TIP3    H245163   7.192   4.066   8.428 -1.8002 -1.1185  2.7791
 6990TIP3   OH245164   5.849   0.642   8.765 -0.4004 -0.2192 -0.0320
 6990TIP3    H145165   5.908   0.585   8.716  0.7994 -0.0607  1.1812
 6990TIP3    H245166   5.792   0.583   8.813 -0.9245 -0.3754 -0.8304
 6991TIP3   OH245167   4.113   6.167   8.731  0.3315  0.3849 -0.1867
 6991TIP3    H145168   4.142   6.258   8.740 -0.4937  0.6709 -0.2906
 6991TIP3    H245169   4.185   6.123   8.686  1.4328  0.6098  1.2870
 6992TIP3   OH245170   3.467   5.414   3.185 -0.0754 -0.1648 -0.1696
 6992TIP3    H145171   3.505   5.463   3.112 -1.4391 -0.0624 -0.8368
 6992TIP3    H245172   3.463   5.323   3.155 -1.1768 -0.0319 -0.4819
 6993TIP3   OH245173   2.595   0.410   7.992  0.0177 -0.5750  0.3325
 6993TIP3    H145174   2.671   0.466   7.973 -0.3368  0.3399  1.4867
 6993TIP3    H245175   2.628   0.321   7.981  0.6451 -0.1815 -1.4059
 6994TIP3   OH245176   0.150   1.708   8.918  0.7583  0.4644 -0.2493
 6994TIP3    H145177   0.135   1.697   9.012 -1.3215 -0.8846 -0.6652
 6994TIP3    H245178   0.127   1.799   8.900  1.4345  0.8112  0.5754
 6995TIP3   OH245179   4.404   4.584   1.430 -0.5908 -0.2305 -0.3932
 6995TIP3    H145180   4.371   4.622   1.511 -1.5481  0.3669 -1.0458
 6995TIP3    H245181   4.498   4.601   1.432 -0.7771  0.7867  0.0743
 6996TIP3   OH245182   3.239   0.804   2.293  1.0689  0.4362  0.0911
 6996TIP3    H145183   3.170   0.869   2.282  0.3151 -0.4207 -0.3459
 6996TIP3    H245184   3.212   0.752   2.368 -0.4070 -1.8513 -1.8800
 6997TIP3   OH245185   1.838   1.207   1.328 -0.1411  0.0522 -0.5652
 6997TIP3    H145186   1.903   1.258   1.280 -1.5450  2.3235 -0.2062
 6997TIP3    H245187   1.823   1.257   1.408 -2.8863  0.0766 -1.0072
 6998TIP3   OH245188   4.317   6.401   0.891 -0.7327  0.4490  0.5121
 6998TIP3    H145189   4.254   6.440   0.830  0.2904  2.2748  0.5501
 6998TIP3    H245190   4.325   6.466   0.961 -0.8185 -0.9889  1.8913
 6999TIP3   OH245191   5.051   5.174   0.331 -0.5131  0.0599  0.2552
 6999TIP3    H145192   5.121   5.109   0.327 -0.0183  0.6057 -0.0326
 6999TIP3    H245193   5.068   5.232   0.257 -0.7730  0.7071  0.6980
 7000TIP3   OH245194   3.962   0.336   9.201 -0.3162 -0.1897  0.2164
 7000TIP3    H145195   3.974   0.370   9.290 -1.1186  0.5930  0.0336
 7000TIP3    H245196   3.915   0.254   9.214  1.2162 -1.0431  0.6266
 7001TIP3   OH245197   2.963   7.039   3.023  0.1910  0.2251 -0.0159
 7001TIP3    H145198   2.893   7.048   3.088  0.9626  1.8461  0.6645
 7001TIP3    H245199   2.941   7.103   2.956  0.8064  0.4905  0.0242
 7002TIP3   OH245200   4.824   2.398   9.666 -0.2718 -0.0838  0.1227
 7002TIP3    H145201   4.804   2.307   9.688  1.4308 -0.0015  2.3545
 7002TIP3    H245202   4.740   2.443   9.671 -1.1865 -1.5201 -1.2601
 7003TIP3   OH245203   2.930   6.073   6.872 -0.5859  0.2441  0.2854
 7003TIP3    H145204   2.967   5.997   6.826 -0.5994  1.0022 -1.0426
 7003TIP3    H245205   2.852   6.096   6.822 -0.5843  1.1311  0.6700
 7004TIP3   OH245206   5.828   0.830   0.219  0.1450 -0.3000  0.0098
 7004TIP3    H145207   5.919   0.861   0.220  0.2358 -0.5380  1.5054
 7004TIP3    H245208   5.817   0.786   0.303 -0.3579 -3.2721 -1.4753
 7005TIP3   OH245209   7.321   4.976   8.174  0.1914  0.3267  0.1415
 7005TIP3    H145210   7.311   4.888   8.211  0.2855 -0.9250 -2.5916
 7005TIP3    H245211   7.414   4.995   8.184  0.6454 -0.9258 -1.2740
 7006TIP3   OH245212   0.548   3.546   9.540 -0.4452  0.5419 -0.5915
 7006TIP3    H145213   0.629   3.595   9.530 -0.6484  0.8469 -0.7940
 7006TIP3    H245214   0.569   3.457   9.512 -0.4225  0.8439 -1.5728
 7007TIP3   OH245215   2.241   7.574   1.266 -0.2763  0.8155  0.4575
 7007TIP3    H145216   2.245   7.505   1.332 -1.2076  0.9260  0.6500
 7007TIP3    H245217   2.299   7.545   1.196 -1.3960 -0.6507  0.0850
 7008TIP3   OH245218   7.246   2.802   9.004  0.2311  0.0836  0.4476
 7008TIP3    H145219   7.305   2.838   9.070  0.1967  0.4550  0.2795
 7008TIP3    H245220   7.169   2.859   9.008  0.1021 -0.0812  0.3020
 7009TIP3   OH245221   1.059   2.114   8.663  0.1124 -0.1373 -0.4796
 7009TIP3    H145222   1.149   2.142   8.679  0.1531 -0.0268 -0.8933
 7009TIP3    H245223   1.054   2.025   8.698  0.0875  0.2404  0.5023
 7010TIP3   OH245224   2.452   2.855   8.222 -0.3137  0.2266 -0.5597
 7010TIP3    H145225   2.377   2.843   8.164  0.9099 -1.5018 -1.8888
 7010TIP3    H245226   2.471   2.949   8.217  0.0249  0.1035 -3.4158
 7011TIP3   OH245227   1.886   6.228   8.894  0.0169 -0.5141  0.8563
 7011TIP3    H145228   1.904   6.161   8.959  1.5913 -2.4191 -1.3533
 7011TIP3    H245229   1.946   6.208   8.822 -0.8388  2.1247 -0.7309
 7012TIP3   OH245230   1.429   2.789   9.421  0.0457 -0.3126  0.3614
 7012TIP3    H145231   1.389   2.818   9.339 -0.8113 -0.2842  0.7822
 7012TIP3    H245232   1.396   2.700   9.434  0.8477 -0.6435  0.2579
 7013TIP3   OH245233   1.124   2.782   9.433  0.5302  0.3075  0.6071
 7013TIP3    H145234   1.153   2.872   9.416  1.3189  0.0357  0.4638
 7013TIP3    H245235   1.043   2.792   9.484  1.3397  1.1037  1.8109
 7014TIP3   OH245236   6.808   4.802   1.249  0.5392 -0.3574 -0.0781
 7014TIP3    H145237   6.784   4.804   1.156  1.6566 -0.0052 -0.3745
 7014TIP3    H245238   6.813   4.709   1.271 -0.2611 -0.4411 -0.2154
 7015TIP3   OH245239   1.103   4.579   2.232 -0.4122 -0.0737  0.1071
 7015TIP3    H145240   1.165   4.621   2.173 -1.0266  0.5980 -0.0727
 7015TIP3    H245241   1.141   4.592   2.319 -0.4465  0.6079  0.0270
 7016TIP3   OH245242   6.083   7.317   1.751 -0.0999  1.0569  0.0459
 7016TIP3    H145243   6.061   7.406   1.725 -0.0401  1.2400  0.6077
 7016TIP3    H245244   6.129   7.327   1.834 -0.4142  0.4781  0.2966
 7017TIP3   OH245245   4.617   5.798   0.077  0.1563 -0.6255 -0.0838
 7017TIP3    H145246   4.666   5.820  -0.002  0.0914  0.0530  0.0607
 7017TIP3    H245247   4.678   5.746   0.129 -0.4301 -2.7915 -1.4184
 7018TIP3   OH245248   1.147   2.647   0.064 -0.0480  0.0598 -0.1756
 7018TIP3    H145249   1.172   2.730   0.105 -2.7476  0.7836  0.2181
 7018TIP3    H245250   1.187   2.580   0.120  0.9661  1.0582  0.3411
 7019TIP3   OH245251   7.616   3.170   2.023  0.4666  0.2174  0.3880
 7019TIP3    H145252   7.662   3.128   2.096 -0.8335 -0.5480  0.8195
 7019TIP3    H245253   7.552   3.228   2.065 -1.3160 -1.3358 -0.0313
 7020TIP3   OH245254   4.777   1.766   0.225 -0.1992 -0.1041 -0.1754
 7020TIP3    H145255   4.823   1.682   0.229 -1.4968 -0.7876  1.7031
 7020TIP3    H245256   4.686   1.743   0.244 -0.7659  1.6080 -0.7082
 7021TIP3   OH245257   7.557   4.084   0.046  0.3534  1.1051  0.2023
 7021TIP3    H145258   7.572   4.164  -0.005  0.9634  0.7223 -0.2386
 7021TIP3    H245259   7.606   4.017  -0.002  1.8648  0.9384  1.8852
 7022TIP3   OH245260   5.908   4.035   1.513 -0.1275 -0.0971  0.2741
 7022TIP3    H145261   5.834   3.994   1.557 -0.6562  0.6658  0.1227
 7022TIP3    H245262   5.913   4.123   1.551  0.1381  0.1622 -0.3387
 7023TIP3   OH245263   6.071   2.433   1.305 -0.0403  0.2522  0.2225
 7023TIP3    H145264   6.050   2.390   1.223  0.1740  0.6644 -0.0533
 7023TIP3    H245265   6.109   2.365   1.360  1.6862  0.3981 -0.7278
 7024TIP3   OH245266   1.443   2.882   1.611  0.2607 -0.7755  0.5017
 7024TIP3    H145267   1.409   2.915   1.694 -0.5784  0.4021 -0.2920
 7024TIP3    H245268   1.469   2.791   1.630 -0.2231 -0.6243  1.9533
 7025TIP3   OH245269   4.265   6.600   0.529 -0.2700  0.2956 -0.1271
 7025TIP3    H145270   4.334   6.661   0.551  0.0610 -0.1949  0.2118
 7025TIP3    H245271   4.212   6.646   0.464 -1.0222  1.6086  1.3567
 7026TIP3   OH245272   0.007   1.793   0.566  0.3648  0.1366  0.1538
 7026TIP3    H145273   0.065   1.870   0.568 -0.0521  0.4775 -0.4795
 7026TIP3    H245274  -0.073   1.825   0.524 -0.4007 -0.2574  1.2889
 7027TIP3   OH245275   1.062   4.599   8.863 -0.0010 -0.1316 -0.0969
 7027TIP3    H145276   1.057   4.519   8.810  1.7632 -2.0507  2.3719
 7027TIP3    H245277   1.125   4.654   8.817 -0.2680 -0.6946 -1.1844
 7028TIP3   OH245278   2.232   3.206   1.859  0.0506  0.3009  0.0226
 7028TIP3    H145279   2.285   3.268   1.911  1.1809 -0.9374  0.4207
 7028TIP3    H245280   2.250   3.121   1.900 -4.3973  0.0386  1.9723
 7029TIP3   OH245281   7.508   3.454   2.428 -0.2382 -0.2351  0.0347
 7029TIP3    H145282   7.525   3.403   2.508  0.7787  1.9151  1.2873
 7029TIP3    H245283   7.560   3.534   2.440 -1.5900  1.0066 -1.9244
 7030TIP3   OH245284   5.652   2.669   8.025  0.1853 -0.1164  0.2630
 7030TIP3    H145285   5.660   2.750   7.976 -1.3166 -0.3564 -0.4381
 7030TIP3    H245286   5.630   2.697   8.114 -3.7248  0.3253 -0.6580
 7031TIP3   OH245287   2.625   5.475   6.687  0.2259  0.6862 -0.7101
 7031TIP3    H145288   2.611   5.384   6.714  0.7129  1.0271  0.7986
 7031TIP3    H245289   2.538   5.506   6.662 -0.3893  0.4549  0.9612
 7032TIP3   OH245290   1.780   0.680   9.771  0.5989 -0.3354 -0.1392
 7032TIP3    H145291   1.720   0.728   9.713  2.7674  1.6020 -0.9119
 7032TIP3    H245292   1.824   0.617   9.713 -0.7563 -1.9515  0.4794
 7033TIP3   OH245293   0.990   0.811   0.544 -0.0290 -0.1328 -0.3128
 7033TIP3    H145294   0.932   0.886   0.530  0.7393  0.2962 -1.4021
 7033TIP3    H245295   1.072   0.850   0.575  0.0568 -0.6188  0.0734
 7034TIP3   OH245296   4.574   7.304   8.458 -0.2257 -0.0894  0.6417
 7034TIP3    H145297   4.645   7.362   8.486  0.2991  0.2033 -1.1264
 7034TIP3    H245298   4.571   7.235   8.524  0.8557  0.5814  1.4192
 7035TIP3   OH245299   0.915   4.669   2.562 -0.3581  0.5186 -0.4404
 7035TIP3    H145300   0.960   4.665   2.647 -0.4739 -0.8722 -0.4290
 7035TIP3    H245301   0.978   4.711   2.504  0.2031  0.3603  0.0372
 7036TIP3   OH245302   1.373   4.122   7.248 -0.3739 -0.3176 -0.1063
 7036TIP3    H145303   1.419   4.049   7.208  0.8455  0.7198 -0.6714
 7036TIP3    H245304   1.341   4.088   7.332  1.3462 -1.1359  0.2579
 7037TIP3   OH245305   7.302   2.908   0.611 -0.4964 -0.8835 -0.2408
 7037TIP3    H145306   7.218   2.898   0.655 -1.0844 -1.9422 -1.5648
 7037TIP3    H245307   7.357   2.838   0.648 -0.1962 -0.2559  0.5474
 7038TIP3   OH245308   6.725   2.331   1.777  0.2173  0.8129  0.2134
 7038TIP3    H145309   6.774   2.393   1.832  4.0163 -1.8015  0.1991
 7038TIP3    H245310   6.719   2.251   1.830 -2.1824  0.2872 -0.7206
 7039TIP3   OH245311   1.292   4.342   7.654  0.1389  0.3288  0.7828
 7039TIP3    H145312   1.294   4.263   7.707 -0.5101 -0.5656 -0.4605
 7039TIP3    H245313   1.204   4.378   7.667 -1.0934 -1.4297 -1.7065
 7040TIP3   OH245314   3.664   4.275   0.145  0.3290  0.3357 -0.5300
 7040TIP3    H145315   3.659   4.192   0.193 -1.0836  1.2919  1.0798
 7040TIP3    H245316   3.574   4.290   0.114  0.2780  1.8484  0.2833
 7041TIP3   OH245317   0.366   4.473   9.134 -0.1600 -0.2216  0.3713
 7041TIP3    H145318   0.358   4.465   9.039  0.1613  0.1469  0.3132
 7041TIP3    H245319   0.441   4.418   9.156  1.3862  1.6774  0.0952
 7042TIP3   OH245320   2.604   7.422   0.423  0.1181 -0.0492 -0.2366
 7042TIP3    H145321   2.694   7.409   0.395 -0.2858  0.1465 -1.7665
 7042TIP3    H245322   2.603   7.397   0.515  2.0270  1.2448  0.2025
 7043TIP3   OH245323   4.247   3.049   2.563  0.6376 -0.7130  0.0975
 7043TIP3    H145324   4.187   2.988   2.519 -1.7850 -0.4582  2.7345
 7043TIP3    H245325   4.247   3.127   2.508 -2.8386 -0.1181  0.7009
 7044TIP3   OH245326   5.097   2.406   7.468 -0.0515 -0.4574 -0.4013
 7044TIP3    H145327   5.079   2.474   7.403 -2.3769 -2.4033 -2.0014
 7044TIP3    H245328   5.021   2.406   7.525  1.1870  0.0592  1.3216
 7045TIP3   OH245329   1.767   0.112   9.720 -0.1279  0.4182 -0.4446
 7045TIP3    H145330   1.789   0.098   9.627  1.4136 -0.1365 -0.0299
 7045TIP3    H245331   1.849   0.096   9.766 -0.7002  1.3820  0.9732
 7046TIP3   OH245332   4.632   3.686   1.817 -0.1436  0.4027  0.0944
 7046TIP3    H145333   4.677   3.770   1.820 -0.0502  0.3421  0.3796
 7046TIP3    H245334   4.677   3.632   1.882 -0.5766  0.3158  0.3243
 7047TIP3   OH245335   2.201   1.584   9.836  0.1813 -0.1575  0.2762
 7047TIP3    H145336   2.170   1.651   9.775  0.6804 -0.8559 -0.7673
 7047TIP3    H245337   2.296   1.585   9.827  0.1269 -2.0927 -0.9670
 7048TIP3   OH245338   6.624   2.628   1.885  0.6610 -0.9484 -0.2336
 7048TIP3    H145339   6.531   2.626   1.909  0.9678 -1.5617  1.0025
 7048TIP3    H245340   6.664   2.563   1.943  1.8661 -0.6568 -0.7310
 7049TIP3   OH245341   2.638   3.145   2.188 -0.2443  0.2053  0.7321
 7049TIP3    H145342   2.597   3.166   2.104  1.4683  0.5272 -0.0841
 7049TIP3    H245343   2.653   3.230   2.229  2.0879  0.3668 -0.2777
 7050TIP3   OH245344   0.554   3.880   2.150 -0.2998 -0.2675  0.3402
 7050TIP3    H145345   0.556   3.944   2.221  1.8585 -0.9467  0.9825
 7050TIP3    H245346   0.481   3.821   2.173 -0.3064  0.1348  1.4221
 7051TIP3   OH245347   1.418   3.494   7.379 -0.0897  0.1294  0.2105
 7051TIP3    H145348   1.365   3.550   7.436 -0.6416  0.9901 -1.1193
 7051TIP3    H245349   1.377   3.499   7.293  0.3102 -1.7292 -0.1402
 7052TIP3   OH245350   5.965   5.571   8.173  0.0465 -0.0248  0.1619
 7052TIP3    H145351   5.913   5.650   8.159 -0.3034 -0.1224  0.8635
 7052TIP3    H245352   5.929   5.508   8.110  0.2528  0.3342 -0.3219
 7053TIP3   OH245353   3.253   4.304   8.129 -0.3301  0.0935  0.1074
 7053TIP3    H145354   3.286   4.390   8.102  0.9260 -0.3082  0.3198
 7053TIP3    H245355   3.207   4.321   8.211  1.9584  0.2421  1.4385
 7054TIP3   OH245356   5.723   6.789   8.734  0.4733 -0.2091  0.2377
 7054TIP3    H145357   5.811   6.762   8.709  0.4012  0.3085 -0.5982
 7054TIP3    H245358   5.735   6.839   8.814  0.8637 -0.6977  0.4886
 7055TIP3   OH245359   2.573   3.643   7.893  0.0212 -0.0531  0.5323
 7055TIP3    H145360   2.536   3.596   7.967  0.2330 -2.1830 -0.6170
 7055TIP3    H245361   2.499   3.693   7.857 -0.3643  0.0549  1.4486
 7056TIP3   OH245362   2.200   4.945   6.175  0.7413  0.2113 -0.5359
 7056TIP3    H145363   2.202   5.020   6.235  0.9184 -0.1783 -0.0457
 7056TIP3    H245364   2.107   4.928   6.162  0.6769 -0.5695  0.7549
 7057TIP3   OH245365   4.915   3.877   9.094 -0.2415  0.0510  0.3341
 7057TIP3    H145366   4.942   3.848   9.007 -0.7048 -0.9396  0.5002
 7057TIP3    H245367   4.937   3.970   9.096  1.6665 -0.3429 -0.0890
 7058TIP3   OH245368   1.664   0.096   7.330 -0.8745  0.2627  0.2474
 7058TIP3    H145369   1.672   0.001   7.329 -2.4265  0.0942  0.6339
 7058TIP3    H245370   1.692   0.124   7.243  3.1279 -0.1311  1.2300
 7059TIP3   OH245371   3.701   0.186   6.985 -0.1086 -0.0219 -0.9845
 7059TIP3    H145372   3.686   0.276   7.013  0.2422 -0.1320 -0.4241
 7059TIP3    H245373   3.657   0.133   7.052  0.7933 -0.2879 -0.5868
 7060TIP3   OH245374   2.238   4.612   9.761  0.1584 -0.1305  0.2417
 7060TIP3    H145375   2.228   4.682   9.825 -2.1416  0.3350 -0.5486
 7060TIP3    H245376   2.293   4.547   9.806 -1.7068 -0.0464  2.9425
 7061TIP3   OH245377   0.401   7.463   9.297  0.1644 -0.2601  0.9015
 7061TIP3    H145378   0.376   7.515   9.373  1.4454  0.1277  1.0821
 7061TIP3    H245379   0.364   7.510   9.222  1.3760  0.9795  1.0586
 7062TIP3   OH245380   1.052   2.993   0.424  0.3178  0.1018 -0.3551
 7062TIP3    H145381   1.033   2.919   0.481 -1.1938  0.2095 -0.6737
 7062TIP3    H245382   1.091   2.955   0.345 -0.9503 -0.4314 -0.7438
 7063TIP3   OH245383   7.089   0.956   7.840 -0.0891  0.3412  0.0108
 7063TIP3    H145384   7.164   0.947   7.781  0.6307  0.0862  0.9440
 7063TIP3    H245385   7.044   1.034   7.810 -0.1048 -0.1297 -1.2772
 7064TIP3   OH245386   1.440   7.413   1.192  0.3120  0.0057 -0.6357
 7064TIP3    H145387   1.527   7.449   1.175  0.1375  0.2870 -0.9421
 7064TIP3    H245388   1.399   7.476   1.251 -0.6979  1.3597 -2.6619
 7065TIP3   OH245389   2.326   7.188   1.044  0.0218 -0.3327 -0.0036
 7065TIP3    H145390   2.367   7.220   1.125 -0.5983  1.5252 -0.3717
 7065TIP3    H245391   2.271   7.115   1.072 -0.6238  0.6428  1.3789
 7066TIP3   OH245392   1.870   3.836   0.822 -0.1672 -0.2436  0.4009
 7066TIP3    H145393   1.886   3.903   0.888  0.3114 -0.7151  0.7691
 7066TIP3    H245394   1.891   3.879   0.739 -1.3308  0.5332  0.4844
 7067TIP3   OH245395   2.321   3.045   8.833  0.0194 -0.2733 -0.8544
 7067TIP3    H145396   2.342   3.118   8.774  2.1112 -1.0617 -1.1818
 7067TIP3    H245397   2.272   2.983   8.778  0.0345 -0.0260 -1.1477
 7068TIP3   OH245398   2.313   0.049   0.119  0.1464 -0.3302  0.4901
 7068TIP3    H145399   2.350   0.007   0.197  0.4111  0.6004  0.8850
 7068TIP3    H245400   2.341   0.141   0.126 -2.1944  0.4289  0.8002
 7069TIP3   OH245401   6.237   0.922   0.008 -0.3046  0.1168  0.0694
 7069TIP3    H145402   6.211   0.833   0.033 -0.1322 -0.6540 -2.2131
 7069TIP3    H245403   6.303   0.947   0.073 -1.3561 -0.8471  1.5670
 7070TIP3   OH245404   5.902   1.757   9.566  0.0880  0.7897  0.1829
 7070TIP3    H145405   5.943   1.716   9.490 -0.6116 -0.9473  0.6915
 7070TIP3    H245406   5.973   1.768   9.629  0.0773 -0.8273  0.5037
 7071TIP3   OH245407   4.051   4.174   0.781 -0.0488 -1.0393  0.0468
 7071TIP3    H145408   4.068   4.082   0.800  0.6420 -1.0456 -0.5685
 7071TIP3    H245409   4.137   4.212   0.766 -0.3169 -0.2519  0.4320
 7072TIP3   OH245410   7.484   1.758   7.585 -0.1407  0.0451 -0.4419
 7072TIP3    H145411   7.476   1.716   7.500  0.1692 -0.1274 -0.3853
 7072TIP3    H245412   7.551   1.825   7.573  1.8305 -1.6871  0.3214
 7073TIP3   OH245413   5.327   4.020   8.723 -0.3050 -0.1268 -0.4663
 7073TIP3    H145414   5.319   4.114   8.736 -2.0728 -0.5502  2.4118
 7073TIP3    H245415   5.240   3.992   8.695 -0.2688 -1.0472  0.2622
 7074TIP3   OH245416   1.037   7.525   1.280  0.1584  0.5463  0.0735
 7074TIP3    H145417   1.126   7.552   1.304 -0.4960  1.3462  1.7795
 7074TIP3    H245418   1.041   7.511   1.186  1.5054  3.0077 -0.3265
 7075TIP3   OH245419   5.793   5.969   1.375 -0.1190 -0.1459 -0.2757
 7075TIP3    H145420   5.817   5.980   1.283 -0.1777  0.7401 -0.2024
 7075TIP3    H245421   5.736   5.893   1.377  0.7184 -0.8083 -0.8155
 7076TIP3   OH245422   2.553   4.025   1.841  0.5689 -0.6728 -0.4379
 7076TIP3    H145423   2.556   4.089   1.912  1.4009  0.1727 -1.2202
 7076TIP3    H245424   2.552   3.940   1.886 -1.5824 -0.1402  0.6401
 7077TIP3   OH245425   1.596   0.468   7.817  0.6995  0.6854 -0.8970
 7077TIP3    H145426   1.552   0.494   7.736 -3.0230 -0.2539  0.5878
 7077TIP3    H245427   1.604   0.373   7.811 -0.1866  0.5300  0.0188
 7078TIP3   OH245428   0.114   3.301   7.574 -0.5168  0.4726 -0.5333
 7078TIP3    H145429   0.104   3.364   7.503  0.3663  0.3168 -0.8061
 7078TIP3    H245430   0.162   3.228   7.535 -0.0099  0.3875  0.2251
 7079TIP3   OH245431   5.628   1.823   2.081  0.5098  0.1549 -0.0741
 7079TIP3    H145432   5.680   1.902   2.068  3.1039 -1.2667  0.8152
 7079TIP3    H245433   5.589   1.805   1.995  0.7454  1.8046 -0.5462
 7080TIP3   OH245434   5.302   1.216   9.120 -0.3029  0.8108 -0.0326
 7080TIP3    H145435   5.378   1.219   9.178 -0.4311  0.7547  0.1416
 7080TIP3    H245436   5.338   1.213   9.032 -0.0323 -1.5028  0.0953
 7081TIP3   OH245437   3.263   0.472   1.063 -0.1403 -0.3952 -0.6620
 7081TIP3    H145438   3.208   0.534   1.111 -0.1693 -1.2473  0.4608
 7081TIP3    H245439   3.291   0.520   0.986  0.7930  1.4282  0.7202
 7082TIP3   OH245440   4.762   3.025   9.117 -0.3342  0.0576 -0.6628
 7082TIP3    H145441   4.769   3.038   9.212 -1.2840 -2.1074 -0.2338
 7082TIP3    H245442   4.807   3.100   9.079  1.2994  0.2804  1.5211
 7083TIP3   OH245443   5.858   6.583   8.596  0.0160  1.0202 -0.2898
 7083TIP3    H145444   5.762   6.586   8.591 -0.0117  1.0918  0.1698
 7083TIP3    H245445   5.876   6.503   8.647  0.1457  1.6328  0.6580
 7084TIP3   OH245446   5.636   3.111   1.122 -0.1490  0.1147  0.0351
 7084TIP3    H145447   5.632   3.026   1.167  1.3416 -0.1090 -0.1986
 7084TIP3    H245448   5.729   3.132   1.119 -0.3633  0.9893 -1.3640
 7085TIP3   OH245449   3.109   1.035   1.219  0.0623  0.1815 -0.2836
 7085TIP3    H145450   3.167   1.051   1.294  0.8658 -1.3792 -0.5369
 7085TIP3    H245451   3.102   1.121   1.177  0.5584  0.8330  0.8895
 7086TIP3   OH245452   1.968   7.080   2.081  0.0721  0.5912  0.2320
 7086TIP3    H145453   1.915   7.055   2.005  1.4830  0.0884 -0.6239
 7086TIP3    H245454   2.014   6.999   2.106  0.6595  1.0804  0.7712
 7087TIP3   OH245455   1.886   5.065   0.936 -0.0856  0.0977 -1.0389
 7087TIP3    H145456   1.865   5.078   1.029  0.1628 -1.8658 -0.6603
 7087TIP3    H245457   1.927   5.147   0.909  1.0119  0.2822  0.9475
 7088TIP3   OH245458   4.580   5.652   1.288  0.5777  0.5537 -0.4068
 7088TIP3    H145459   4.591   5.733   1.239  2.5128 -1.1451 -2.9988
 7088TIP3    H245460   4.498   5.615   1.255  1.3238 -0.0520 -1.6495
 7089TIP3   OH245461   6.886   3.466   2.145  0.5022 -0.0744  0.0042
 7089TIP3    H145462   6.908   3.483   2.053 -2.0985 -1.6667 -1.0516
 7089TIP3    H245463   6.857   3.551   2.178 -0.4116  0.1549 -1.2894
 7090TIP3   OH245464   1.787   6.905   7.247  0.2818  0.1770  0.6886
 7090TIP3    H145465   1.801   6.858   7.329  0.2830  1.3311  1.3792
 7090TIP3    H245466   1.819   6.845   7.180 -0.4201 -1.1031  1.4539
 7091TIP3   OH245467   0.669   4.381   8.327  0.0648  0.7250 -0.3932
 7091TIP3    H145468   0.647   4.290   8.348  1.7508  0.2375 -0.5935
 7091TIP3    H245469   0.585   4.426   8.324 -0.6768 -0.0608  3.1785
 7092TIP3   OH245470   2.865   0.891   1.236 -0.0894  0.5575 -0.5456
 7092TIP3    H145471   2.951   0.925   1.258  0.1536 -0.2230 -0.2918
 7092TIP3    H245472   2.814   0.969   1.211  0.3049  1.1673  0.5286
 7093TIP3   OH245473   7.406   1.305   1.228 -0.0168 -0.5177 -0.2441
 7093TIP3    H145474   7.366   1.245   1.165 -1.5520 -1.3195  1.4045
 7093TIP3    H245475   7.457   1.249   1.287  1.7233  0.2616 -0.9488
 7094TIP3   OH245476   2.592   0.643   2.724  0.3631 -0.0415 -0.2235
 7094TIP3    H145477   2.671   0.607   2.763  0.7548 -0.0943 -1.0341
 7094TIP3    H245478   2.618   0.665   2.634 -0.5353 -0.0421 -0.4948
 7095TIP3   OH245479   5.628   1.285   1.321 -0.7059 -0.2931 -0.2358
 7095TIP3    H145480   5.658   1.226   1.252 -0.3037 -1.0104  0.5313
 7095TIP3    H245481   5.562   1.340   1.278 -2.1595 -2.2417 -0.6512
 7096TIP3   OH245482   1.537   5.095   9.892  0.1652 -0.2418  0.1388
 7096TIP3    H145483   1.566   5.186   9.889 -1.3148  0.2658  0.4615
 7096TIP3    H245484   1.468   5.090   9.826 -0.6078 -0.8075  0.9638
 7097TIP3   OH245485   4.634   5.763   8.382  0.3166  0.4541  0.4017
 7097TIP3    H145486   4.594   5.764   8.469 -0.6626  1.0273 -0.0372
 7097TIP3    H245487   4.628   5.671   8.354  0.4725  0.3018  0.8633
 7098TIP3   OH245488   2.024   2.156   7.526  0.3831  0.6304 -0.1552
 7098TIP3    H145489   1.978   2.111   7.597  0.3680  1.3188  0.2770
 7098TIP3    H245490   1.978   2.239   7.515 -1.9119 -0.8625 -3.4055
 7099TIP3   OH245491   0.117   0.006   2.731 -0.2816  0.2263  0.1915
 7099TIP3    H145492   0.195   0.061   2.742 -0.0203 -0.2575  0.7659
 7099TIP3    H245493   0.149  -0.073   2.688 -0.5497  0.2464 -0.0505
 7100TIP3   OH245494   7.161   4.452   8.295 -0.5405  0.4980 -0.1646
 7100TIP3    H145495   7.162   4.468   8.390  0.1097  0.3770 -0.1457
 7100TIP3    H245496   7.098   4.381   8.284 -0.7579  0.6354  0.1563
 7101TIP3   OH245497   5.164   1.120   1.701  0.1771 -0.0817 -0.0172
 7101TIP3    H145498   5.239   1.165   1.739  1.7211 -0.4981 -2.3573
 7101TIP3    H245499   5.109   1.190   1.666  1.5709  0.1590 -1.8697
 7102TIP3   OH245500   2.544   7.603   2.183 -0.0526  0.7990 -0.0280
 7102TIP3    H145501   2.509   7.524   2.141 -1.0874  0.9453  0.5196
 7102TIP3    H245502   2.495   7.610   2.265 -0.1483  2.1298 -0.1748
 7103TIP3   OH245503   0.310   4.102   1.641 -0.2630  0.3017  0.2226
 7103TIP3    H145504   0.287   4.162   1.570  3.0033  1.2352 -0.2059
 7103TIP3    H245505   0.376   4.044   1.603  1.3266  0.5901  2.3276
 7104TIP3   OH245506   2.458   0.673   7.805  0.0378  0.0151 -0.4964
 7104TIP3    H145507   2.494   0.620   7.876 -0.9432  0.2982  0.2503
 7104TIP3    H245508   2.481   0.626   7.725  1.5023 -0.1117 -0.0301
 7105TIP3   OH245509   1.145   4.270   2.528  0.3046 -0.6971  0.2538
 7105TIP3    H145510   1.165   4.240   2.617  1.3223 -2.2291 -0.4603
 7105TIP3    H245511   1.215   4.333   2.508 -0.0087 -0.2388  0.5682
 7106TIP3   OH245512   0.553   4.947   1.832  0.2264 -0.2431  0.5958
 7106TIP3    H145513   0.571   4.864   1.789 -2.1258  0.0748 -1.1909
 7106TIP3    H245514   0.583   4.935   1.922  2.1675 -2.1364 -0.2237
 7107TIP3   OH245515   6.304   3.939   0.412 -0.2059 -0.1223 -0.5669
 7107TIP3    H145516   6.302   3.956   0.506 -1.5211  1.6043 -0.8450
 7107TIP3    H245517   6.384   3.982   0.382 -1.2169  1.8936 -0.5846
 7108TIP3   OH245518   6.947   4.143   1.479 -0.6695  0.8466 -0.1272
 7108TIP3    H145519   6.992   4.065   1.447  0.6287  1.1853  0.7867
 7108TIP3    H245520   6.869   4.109   1.523 -0.8101  0.1722 -0.8664
 7109TIP3   OH245521   0.366   6.155   0.190  0.2033 -0.1763 -0.5701
 7109TIP3    H145522   0.423   6.150   0.114 -0.3832  0.6084 -1.0849
 7109TIP3    H245523   0.298   6.218   0.165  1.3541  2.0904  1.4621
 7110TIP3   OH245524   1.921   0.041   0.491 -0.1565  0.4155  0.1214
 7110TIP3    H145525   1.992   0.083   0.443 -0.1118  1.2948  0.9326
 7110TIP3    H245526   1.965  -0.013   0.557 -0.2039 -1.3422 -1.2407
 7111TIP3   OH245527   2.783   5.666   1.758 -0.2828 -0.0718 -0.2926
 7111TIP3    H145528   2.822   5.584   1.789  0.5010  0.5138  0.3080
 7111TIP3    H245529   2.755   5.647   1.669  1.2190 -0.5812 -0.6836
 7112TIP3   OH245530   4.094   6.768   0.336 -0.0298  0.1424  0.2799
 7112TIP3    H145531   4.126   6.786   0.248 -0.7651 -0.0669 -0.0361
 7112TIP3    H245532   4.113   6.848   0.385  1.1640 -0.0585  0.1670
 7113TIP3   OH245533   4.153   2.253   9.001 -0.1914 -0.3220 -0.0327
 7113TIP3    H145534   4.068   2.245   8.959 -0.3982 -0.8108  0.4627
 7113TIP3    H245535   4.165   2.347   9.014 -0.1430 -0.1668 -1.1254
 7114TIP3   OH245536   2.403   7.219   7.158 -0.0691 -0.3140 -1.0248
 7114TIP3    H145537   2.487   7.259   7.176  0.0300 -0.3072 -1.4884
 7114TIP3    H245538   2.422   7.125   7.148 -0.2468 -0.4366 -0.2903
 7115TIP3   OH245539   2.773   5.875   8.437 -0.4190  0.1575  0.7798
 7115TIP3    H145540   2.683   5.876   8.469 -0.4790 -0.5672  0.6530
 7115TIP3    H245541   2.796   5.782   8.431  0.6837  0.3427  1.7495
 7116TIP3   OH245542   2.243   4.524   0.770  0.7200  0.5159 -0.0657
 7116TIP3    H145543   2.244   4.532   0.675  1.0571 -1.1427 -0.2248
 7116TIP3    H245544   2.250   4.430   0.787  1.5638  0.8337  1.6003
 7117TIP3   OH245545   1.642   6.015   0.117 -0.2063 -0.4186 -0.2289
 7117TIP3    H145546   1.685   5.931   0.096 -0.7722 -0.2966 -2.0917
 7117TIP3    H245547   1.627   6.011   0.211  1.1142 -1.7733 -0.0178
 7118TIP3   OH245548   0.541   6.236   9.373 -0.3443  0.1572  0.1175
 7118TIP3    H145549   0.494   6.289   9.436 -0.2469 -0.3141  0.5892
 7118TIP3    H245550   0.481   6.226   9.299 -0.9257 -0.3134  0.6485
 7119TIP3   OH245551   4.381   5.703   9.833  0.7205  0.0477  0.1766
 7119TIP3    H145552   4.447   5.757   9.875  2.6376 -2.0892  0.1101
 7119TIP3    H245553   4.339   5.656   9.906  0.0292  0.5573  0.1208
 7120TIP3   OH245554   4.678   0.584   2.659  0.3968  0.3215  0.2178
 7120TIP3    H145555   4.586   0.570   2.635 -0.1058 -2.1466  2.9888
 7120TIP3    H245556   4.727   0.560   2.580 -1.2704  0.1712 -0.8252
 7121TIP3   OH245557   1.037   1.262   0.074 -0.4926 -0.0959 -0.2302
 7121TIP3    H145558   0.965   1.236   0.132 -0.3864  0.8878  0.3709
 7121TIP3    H245559   1.049   1.355   0.092 -0.0475  0.0903 -1.4118
 7122TIP3   OH245560   2.901   1.292   1.211  0.1822 -0.1750  0.5101
 7122TIP3    H145561   2.819   1.310   1.258 -0.2282  1.4370 -0.7204
 7122TIP3    H245562   2.875   1.234   1.140  0.0410  0.4853  0.0085
 7123TIP3   OH245563   6.226   3.544   9.365 -0.4063  0.2140 -0.1438
 7123TIP3    H145564   6.216   3.542   9.270  0.5355 -1.5057 -0.2418
 7123TIP3    H245565   6.255   3.456   9.388 -1.5037  0.3210  1.8556
 7124TIP3   OH245566   2.785   0.841   0.095  0.2162 -0.4205  0.1384
 7124TIP3    H145567   2.832   0.924   0.087 -0.5816  0.0268 -0.1006
 7124TIP3    H245568   2.770   0.831   0.188  1.8597 -1.2025  0.3471
 7125TIP3   OH245569   4.573   4.787   2.019  0.1679 -0.1888 -0.2426
 7125TIP3    H145570   4.568   4.848   1.945 -0.4168  0.4512  0.3118
 7125TIP3    H245571   4.548   4.839   2.095  0.7017 -0.8557  0.4072
 7126TIP3   OH245572   7.313   2.521   9.047 -0.8604 -0.0245  0.1109
 7126TIP3    H145573   7.358   2.605   9.036 -0.0361 -0.4012  0.5476
 7126TIP3    H245574   7.304   2.510   9.142 -1.2372 -0.2945  0.0491
 7127TIP3   OH245575   5.621   0.248   8.173 -0.0993  0.7547  0.5173
 7127TIP3    H145576   5.637   0.175   8.233  0.9410 -0.6789 -1.4118
 7127TIP3    H245577   5.597   0.321   8.231  3.6652  0.3284  2.9856
 7128TIP3   OH245578   5.642   6.371   0.687 -0.5563  0.1499  0.1631
 7128TIP3    H145579   5.722   6.338   0.729  0.1287  1.9413  0.3502
 7128TIP3    H245580   5.674   6.421   0.612 -1.3872  1.8269  0.8702
 7129TIP3   OH245581   2.709   3.027   7.721  0.5261 -0.0694 -0.0146
 7129TIP3    H145582   2.641   3.094   7.712  0.6737 -0.1215 -1.7771
 7129TIP3    H245583   2.687   2.981   7.802 -0.6101  0.9317  0.2736
 7130TIP3   OH245584   4.259   4.848   8.774 -0.1181 -0.1945  0.4631
 7130TIP3    H145585   4.219   4.894   8.700 -0.5079 -0.5060  0.4797
 7130TIP3    H245586   4.190   4.792   8.808  0.2017 -0.4061  0.7720
 7131TIP3   OH245587   6.140   5.995   8.592 -0.2563 -0.2309  0.2646
 7131TIP3    H145588   6.177   6.075   8.554  1.2705 -0.9026  0.2629
 7131TIP3    H245589   6.099   6.024   8.674  0.8628  0.4637  0.5976
 7132TIP3   OH245590   4.422   1.230   0.478  0.2591  0.1750 -0.4535
 7132TIP3    H145591   4.489   1.272   0.533 -0.2547  0.4229 -0.0119
 7132TIP3    H245592   4.339   1.248   0.523 -0.2801  1.2168 -1.8258
 7133TIP3   OH245593   1.030   6.900   7.522  0.2179  0.3289  0.7174
 7133TIP3    H145594   1.017   6.816   7.566  2.0418  0.0594  0.8014
 7133TIP3    H245595   1.030   6.964   7.593  0.4781  0.1998  0.8365
 7134TIP3   OH245596   1.923   5.266   1.960 -0.3025 -0.4426  0.1170
 7134TIP3    H145597   1.947   5.173   1.955  0.0129 -0.3981  0.7789
 7134TIP3    H245598   1.883   5.284   1.875 -0.7362 -1.2844  0.1255
 7135TIP3   OH245599   5.936   1.582   0.104 -0.3001 -0.2205 -0.0926
 7135TIP3    H145600   5.856   1.612   0.147 -0.2347 -0.6966  0.3589
 7135TIP3    H245601   5.951   1.494   0.138 -0.7265 -0.9781 -1.7267
 7136TIP3   OH245602   1.624   4.088   0.770  0.4312 -0.0535  0.6368
 7136TIP3    H145603   1.616   4.119   0.860 -0.0120 -0.1301  0.6275
 7136TIP3    H245604   1.568   4.009   0.767 -0.2278  0.4198  0.0809
 7137TIP3   OH245605   1.345   1.073   1.245  0.0998  0.4138 -0.0460
 7137TIP3    H145606   1.422   1.109   1.289 -0.1075  1.0487 -0.1939
 7137TIP3    H245607   1.310   1.009   1.307  1.4940 -0.8727 -0.5156
 7138TIP3   OH245608   0.727   1.089   2.455  0.1134 -0.2779  0.2951
 7138TIP3    H145609   0.792   1.158   2.468 -0.0993  0.1568 -0.8431
 7138TIP3    H245610   0.656   1.131   2.408  0.4949 -1.5034 -1.5355
 7139TIP3   OH245611   3.399   5.337   1.144  0.5370  0.0374 -0.0871
 7139TIP3    H145612   3.487   5.316   1.114  0.3138  0.1838 -0.8543
 7139TIP3    H245613   3.388   5.429   1.124  0.3653  0.1308  0.4160
 7140TIP3   OH245614   4.809   0.135   8.742 -0.1436 -0.5850 -0.1080
 7140TIP3    H145615   4.834   0.220   8.778  1.8704 -1.9893  2.1668
 7140TIP3    H245616   4.880   0.112   8.682  0.7827 -1.7897  1.3878
 7141TIP3   OH245617   6.072   4.206   8.727  1.0924  0.2363  0.4871
 7141TIP3    H145618   6.061   4.133   8.665 -1.0433  0.7544  0.1760
 7141TIP3    H245619   6.164   4.231   8.719  0.8838  0.4097 -2.6486
 7142TIP3   OH245620   5.928   5.869   8.505  0.2989  0.2704  0.2566
 7142TIP3    H145621   5.891   5.810   8.571  0.7547  0.1608  0.4164
 7142TIP3    H245622   5.996   5.917   8.552 -0.2188  1.0865  0.1821
 7143TIP3   OH245623   1.372   0.042   1.035  0.6133  0.5832  0.3282
 7143TIP3    H145624   1.331   0.122   1.068  0.3291  0.7456 -0.3968
 7143TIP3    H245625   1.466   0.061   1.036  0.7226  0.1304  2.2117
 7144TIP3   OH245626   6.125   5.398   8.947  0.7395  0.1444  0.4504
 7144TIP3    H145627   6.154   5.418   8.858  0.3790  0.2186  0.3508
 7144TIP3    H245628   6.103   5.305   8.946  1.2143  0.0237  0.5934
 7145TIP3   OH245629   0.618   5.085   7.681 -0.4156 -0.6568 -0.3566
 7145TIP3    H145630   0.630   4.993   7.705  2.1369 -1.5746 -4.2228
 7145TIP3    H245631   0.544   5.085   7.620  0.4261 -0.4338 -1.4037
 7146TIP3   OH245632   2.467   1.530   9.762  0.4122  0.0707  0.2326
 7146TIP3    H145633   2.494   1.541   9.671 -2.2425 -1.8709 -0.9146
 7146TIP3    H245634   2.502   1.446   9.788 -2.4999 -1.5661 -0.6480
 7147TIP3   OH245635   1.452   6.495   7.816  0.1581 -0.7435 -0.0619
 7147TIP3    H145636   1.381   6.509   7.879  0.4613 -0.1781  0.1593
 7147TIP3    H245637   1.409   6.454   7.740 -0.6650  0.8671 -0.4987
 7148TIP3   OH245638   2.384   6.403   0.085 -0.4364 -0.5967 -0.6514
 7148TIP3    H145639   2.288   6.400   0.085 -0.5596  1.3018  0.8660
 7148TIP3    H245640   2.406   6.444   0.169  1.6227  1.1788 -1.9783
 7149TIP3   OH245641   0.354   6.248   8.798  0.0956 -0.0487  0.0573
 7149TIP3    H145642   0.302   6.302   8.859 -2.2669 -2.1548  0.0825
 7149TIP3    H245643   0.394   6.181   8.854 -1.2959 -1.4078 -0.5004
 7150TIP3   OH245644   1.211   3.800   8.405  0.1208 -0.6934  0.1103
 7150TIP3    H145645   1.294   3.797   8.357  0.2579  0.9062  0.1933
 7150TIP3    H245646   1.157   3.732   8.364  1.3005 -1.4484 -0.2427
 7151TIP3   OH245647   1.000   3.220   6.820 -0.4437  0.1727 -0.4246
 7151TIP3    H145648   1.003   3.291   6.884  1.8367 -1.4576  1.4317
 7151TIP3    H245649   0.926   3.165   6.848  0.6248 -0.6036  0.9901
 7152TIP3   OH245650   6.226   7.086   0.365 -0.7763  1.1729 -0.1633
 7152TIP3    H145651   6.220   7.085   0.461 -0.4980 -0.9288 -0.1372
 7152TIP3    H245652   6.138   7.064   0.336 -0.8289  1.6882 -0.4003
 7153TIP3   OH245653   1.485   1.140   1.974 -0.3242 -0.1628  0.1851
 7153TIP3    H145654   1.495   1.208   2.041  0.6688 -0.1578  0.0354
 7153TIP3    H245655   1.428   1.075   2.015 -0.3744  0.2215  0.7410
 7154TIP3   OH245656   5.166   1.683   2.469 -0.0926  0.6826 -0.5076
 7154TIP3    H145657   5.256   1.691   2.499  0.1436  0.0694 -1.0328
 7154TIP3    H245658   5.166   1.721   2.382 -0.2552  0.3234 -0.6657
 7155TIP3   OH245659   6.381   5.342   2.171  0.4935  0.3365  0.4327
 7155TIP3    H145660   6.432   5.261   2.165 -1.3536 -0.7986 -1.0861
 7155TIP3    H245661   6.401   5.377   2.258  2.7586 -0.7462  0.4152
 7156TIP3   OH245662   0.980   5.857   1.147  0.3697  0.6160 -0.0253
 7156TIP3    H145663   0.980   5.762   1.160 -0.4952  0.5494 -0.4289
 7156TIP3    H245664   0.978   5.894   1.235 -2.3520  0.2152  0.1400
 7157TIP3   OH245665   7.312   0.912   0.373 -0.4557 -0.1512  0.2784
 7157TIP3    H145666   7.292   0.855   0.446 -1.0896 -0.3183 -0.0171
 7157TIP3    H245667   7.238   0.973   0.369 -0.7424 -0.5396 -0.6011
 7158TIP3   OH245668   5.650   2.345   8.988  0.2055 -0.1701  0.2350
 7158TIP3    H145669   5.640   2.411   8.919  0.0914 -0.5892 -0.1515
 7158TIP3    H245670   5.590   2.374   9.057 -1.0139 -0.7012 -0.5737
 7159TIP3   OH245671   5.930   2.283   0.091 -0.5770  0.0676 -0.4567
 7159TIP3    H145672   5.918   2.341   0.016 -1.1184  0.4307 -0.0893
 7159TIP3    H245673   5.853   2.297   0.146 -0.0215  0.0641  0.3421
 7160TIP3   OH245674   1.850   0.151   2.085  0.0215  0.0896 -0.2272
 7160TIP3    H145675   1.793   0.178   2.157 -3.2021 -2.2446 -1.7108
 7160TIP3    H245676   1.831   0.213   2.015 -0.2543 -0.3549 -0.5461
 7161TIP3   OH245677   4.288   5.153   1.422 -0.0148 -0.1706 -0.2978
 7161TIP3    H145678   4.261   5.245   1.423  0.0987 -0.1380 -0.1982
 7161TIP3    H245679   4.262   5.121   1.335 -0.9160 -0.3088  0.0220
 7162TIP3   OH245680   5.159   0.690   1.043 -0.0755 -0.3117 -0.2941
 7162TIP3    H145681   5.176   0.651   1.128 -0.5682 -3.1585 -1.3740
 7162TIP3    H245682   5.077   0.739   1.054  0.8954  1.0672  1.2754
 7163TIP3   OH245683   3.721   1.433   0.477  0.1080  0.3773 -0.4405
 7163TIP3    H145684   3.664   1.402   0.407  0.2909 -3.0747  0.7610
 7163TIP3    H245685   3.662   1.474   0.540 -0.3753  1.1595 -1.3838
 7164TIP3   OH245686   1.806   5.751   2.868 -0.8151  0.5476 -0.6502
 7164TIP3    H145687   1.798   5.836   2.911 -0.9990 -1.0428  2.7565
 7164TIP3    H245688   1.836   5.771   2.780 -1.0329  4.1209 -0.0349
 7165TIP3   OH245689   1.514   4.328   9.273 -0.1101 -0.6073  0.5589
 7165TIP3    H145690   1.528   4.238   9.303  1.1749 -0.2536  1.0674
 7165TIP3    H245691   1.552   4.331   9.186  2.7404  0.2072  1.7255
 7166TIP3   OH245692   7.166   2.764   9.312 -0.1777 -0.6646 -0.0232
 7166TIP3    H145693   7.209   2.759   9.226 -0.3416 -1.9927 -0.0530
 7166TIP3    H245694   7.117   2.846   9.309  1.3455  0.2716 -0.4582
 7167TIP3   OH245695   1.022   5.548   2.585  0.3429 -0.1269  0.2622
 7167TIP3    H145696   0.999   5.467   2.630  1.0697 -1.9175 -2.3345
 7167TIP3    H245697   0.939   5.596   2.579 -0.3797 -1.2659  0.7456
 7168TIP3   OH245698   1.445   5.525   7.190  0.3094 -0.4614 -0.5107
 7168TIP3    H145699   1.402   5.543   7.274  0.2816 -0.1282 -0.5953
 7168TIP3    H245700   1.433   5.431   7.177 -0.8922 -0.2862 -0.8071
 7169TIP3   OH245701   5.729   4.194   0.406 -0.2686  0.0611  0.2713
 7169TIP3    H145702   5.798   4.213   0.469  0.3193 -2.6621  0.5864
 7169TIP3    H245703   5.738   4.261   0.338  1.2652  1.0366  1.3753
 7170TIP3   OH245704   3.616   2.183   0.233 -0.2288  0.3153 -0.3284
 7170TIP3    H145705   3.623   2.231   0.150  0.6826 -0.9867 -1.0393
 7170TIP3    H245706   3.667   2.103   0.219 -0.2944 -0.0694  1.4006
 7171TIP3   OH245707   6.396   0.600   9.683 -0.0457 -0.1372 -0.1912
 7171TIP3    H145708   6.397   0.592   9.778 -2.4372 -1.0156 -0.1703
 7171TIP3    H245709   6.385   0.511   9.651  1.4311  0.0555 -1.3719
 7172TIP3   OH245710   5.825   5.757   9.289  0.4929  0.6045  0.2717
 7172TIP3    H145711   5.916   5.735   9.266  1.2273  2.7191  0.9499
 7172TIP3    H245712   5.780   5.767   9.205  1.2965  1.0824 -0.1150
 7173TIP3   OH245713   3.820   3.147   9.650  0.9679 -0.4011 -0.0104
 7173TIP3    H145714   3.729   3.135   9.624  0.8715  1.0637 -0.4346
 7173TIP3    H245715   3.840   3.238   9.628  1.5347  0.3441  3.0736
 7174TIP3   OH245716   6.088   2.976   8.376 -0.0580 -0.2819 -0.1093
 7174TIP3    H145717   6.109   2.883   8.385 -0.2660 -0.3786 -0.5656
 7174TIP3    H245718   6.009   2.988   8.429 -0.2140 -0.4348 -0.3064
 7175TIP3   OH245719   5.870   5.621   0.724  0.4795 -0.2936 -0.1519
 7175TIP3    H145720   5.841   5.529   0.724 -0.9900  0.1415  0.3135
 7175TIP3    H245721   5.931   5.627   0.650  0.2182 -1.5204 -0.4957
 7176TIP3   OH245722   2.929   5.347   3.221 -0.2100  0.6871 -0.4047
 7176TIP3    H145723   3.016   5.377   3.248  0.2923 -0.3106 -0.8611
 7176TIP3    H245724   2.868   5.398   3.275  0.6812  0.5382  0.7803
 7177TIP3   OH245725   3.278   4.689   0.602 -0.1579 -0.3914 -0.1298
 7177TIP3    H145726   3.216   4.698   0.674  1.4638  0.6486  1.1922
 7177TIP3    H245727   3.249   4.753   0.537 -0.6800 -0.1688  0.3156
 7178TIP3   OH245728   6.961   1.576   1.772 -0.1028  0.0722  0.5040
 7178TIP3    H145729   6.901   1.620   1.833 -1.1496  1.0485 -1.1462
 7178TIP3    H245730   7.021   1.645   1.743  0.2366 -0.3212  0.2567
 7179TIP3   OH245731   0.001   7.347   0.535 -0.3133  0.2768  0.2053
 7179TIP3    H145732   0.009   7.384   0.447 -1.7129 -1.5654 -0.7711
 7179TIP3    H245733   0.065   7.276   0.536 -0.1131  0.4667  0.7711
 7180TIP3   OH245734   0.329   2.253   9.124  0.2972 -0.2124  0.8565
 7180TIP3    H145735   0.292   2.335   9.091  0.0344 -0.1765  1.2303
 7180TIP3    H245736   0.385   2.279   9.197  0.8387 -0.2958  0.4793
 7181TIP3   OH245737   7.385   5.624   0.071 -0.3725  0.7959 -0.0276
 7181TIP3    H145738   7.334   5.647   0.149  0.7040  0.5845  0.7538
 7181TIP3    H245739   7.318   5.603   0.005 -1.3024  0.4797  0.9748
 7182TIP3   OH245740   2.627   5.553   8.052 -0.6689 -0.1302  0.1601
 7182TIP3    H145741   2.719   5.525   8.050 -0.7369 -0.3204 -0.4204
 7182TIP3    H245742   2.631   5.648   8.065 -0.3985 -0.1765  0.4283
 7183TIP3   OH245743   5.175   7.550   0.784  0.3208  0.0114 -0.3945
 7183TIP3    H145744   5.210   7.633   0.751  4.3878 -0.2975  2.4109
 7183TIP3    H245745   5.211   7.483   0.726  0.3557 -0.0251 -0.3313
 7184TIP3   OH245746   3.192   5.272   8.807  0.5816 -0.0820  0.0679
 7184TIP3    H145747   3.154   5.198   8.854  1.3419 -1.2253 -1.0395
 7184TIP3    H245748   3.119   5.309   8.758  0.6105 -1.6141 -1.2249
 7185TIP3   OH245749   6.009   3.882   7.993 -0.3687 -0.4666  0.4188
 7185TIP3    H145750   5.918   3.889   8.021 -0.2975 -0.2003  0.5879
 7185TIP3    H245751   6.036   3.795   8.021 -0.9477 -1.0379 -0.7478
 7186TIP3   OH245752   5.328   7.168   1.715  0.1194  0.2853  0.1701
 7186TIP3    H145753   5.417   7.134   1.718  0.6385  1.6168  0.4228
 7186TIP3    H245754   5.336   7.254   1.673 -0.9818  0.6214  0.5990
 7187TIP3   OH245755   6.972   1.588   2.148 -0.1137  0.0666  0.2771
 7187TIP3    H145756   6.889   1.545   2.126 -1.1044  1.7286  0.6351
 7187TIP3    H245757   6.947   1.674   2.181  1.7993  0.8364 -0.1590
 7188TIP3   OH245758   4.780   1.390   9.808  0.7607 -0.2132  0.7400
 7188TIP3    H145759   4.746   1.395   9.898 -1.9784 -1.1038 -0.1563
 7188TIP3    H245760   4.764   1.300   9.781  2.7865 -0.3203 -0.2387
 7189TIP3   OH245761   3.704   3.742   2.644  0.1004  0.0615 -0.3296
 7189TIP3    H145762   3.717   3.802   2.718 -0.4352  0.3900 -0.4960
 7189TIP3    H245763   3.687   3.800   2.569  0.0314 -0.2848 -0.5830
 7190TIP3   OH245764   1.165   1.041   8.605  0.1946 -0.3194 -0.0859
 7190TIP3    H145765   1.187   1.130   8.631  0.3314 -0.4999  0.4234
 7190TIP3    H245766   1.146   0.995   8.687  0.8481 -0.9572 -0.2811
 7191TIP3   OH245767   1.646   5.287   8.531 -0.0058 -0.0655  0.3018
 7191TIP3    H145768   1.650   5.219   8.598 -1.2714 -1.1185 -0.6546
 7191TIP3    H245769   1.691   5.362   8.571 -2.5771  0.1119  3.2389
 7192TIP3   OH245770   4.752   3.164   8.762  0.1118 -0.2606  0.2401
 7192TIP3    H145771   4.752   3.218   8.841 -0.2308  0.4488 -0.2346
 7192TIP3    H245772   4.814   3.207   8.703 -1.6340  0.8091 -0.9143
 7193TIP3   OH245773   3.563   4.074   7.822 -0.0976 -0.0477 -0.2030
 7193TIP3    H145774   3.551   4.086   7.917  0.9462 -1.2701  0.1207
 7193TIP3    H245775   3.478   4.042   7.791 -0.1633 -0.6042  0.5171
 7194TIP3   OH245776   7.020   1.034   7.484 -0.4249 -0.6382  0.2110
 7194TIP3    H145777   7.072   1.089   7.543  0.0424 -1.1119  0.2461
 7194TIP3    H245778   7.081   0.968   7.454 -0.7713 -0.6434 -0.4872
 7195TIP3   OH245779   3.887   0.582   9.062 -0.2517 -0.4295  0.4314
 7195TIP3    H145780   3.798   0.605   9.091 -0.1117 -1.3346  1.6120
 7195TIP3    H245781   3.892   0.487   9.072  0.2135 -0.6474 -1.4812
 7196TIP3   OH245782   0.952   7.155   9.206 -0.2753  0.2035  1.0316
 7196TIP3    H145783   1.026   7.099   9.186  0.0832  0.5625  1.3433
 7196TIP3    H245784   0.988   7.224   9.261 -0.5974  1.0489  0.2110
 7197TIP3   OH245785   1.660   1.251   9.953  0.3765  0.2132 -0.3541
 7197TIP3    H145786   1.730   1.221  10.011  1.3313 -1.0486 -2.0609
 7197TIP3    H245787   1.645   1.177   9.894 -0.3099  1.5412 -1.9183
 7198TIP3   OH245788   2.967   4.277   9.971 -0.0697  0.3275 -0.5562
 7198TIP3    H145789   2.897   4.251  10.031  0.5149  1.2689  0.5818
 7198TIP3    H245790   3.041   4.220   9.992 -0.2632 -0.2291 -1.3144
 7199TIP3   OH245791   1.803   1.948   8.806 -0.6846  0.2707 -0.2271
 7199TIP3    H145792   1.852   1.956   8.888 -0.5465  1.2877 -0.3887
 7199TIP3    H245793   1.723   1.998   8.822 -1.4238 -0.9219 -0.1558
 7200TIP3   OH245794   6.334   3.748   0.816 -0.0411 -0.3836 -0.1892
 7200TIP3    H145795   6.266   3.719   0.755  0.6569 -0.1005 -1.1287
 7200TIP3    H245796   6.415   3.713   0.779  0.3164 -0.9123  1.0384
 7201TIP3   OH245797   3.985   3.856   9.710  1.1218  0.0300  0.5262
 7201TIP3    H145798   3.915   3.799   9.676  0.3396  0.9232  0.5856
 7201TIP3    H245799   4.022   3.897   9.632  0.4929  0.7608  0.5956
 7202TIP3   OH245800   3.949   6.144   0.565 -0.1964  0.0183  0.1018
 7202TIP3    H145801   4.008   6.111   0.632 -0.1176  1.6938  0.9186
 7202TIP3    H245802   4.001   6.140   0.484  0.7989  0.7642  0.6770
 7203TIP3   OH245803   6.630   3.830   9.577 -0.5857  0.3477  0.0569
 7203TIP3    H145804   6.578   3.824   9.497  1.7240 -0.4983 -1.4801
 7203TIP3    H245805   6.614   3.747   9.621 -0.8221  0.2450 -0.2153
 7204TIP3   OH245806   3.603   7.090   1.961 -0.5066  0.3522  0.1789
 7204TIP3    H145807   3.545   7.163   1.981  1.5406  2.2609 -0.4376
 7204TIP3    H245808   3.545   7.013   1.958 -2.3722  1.3935  3.5811
 7205TIP3   OH245809   6.222   7.087   9.059  0.9508  0.0900  0.4173
 7205TIP3    H145810   6.254   7.012   9.008  3.3327 -0.0932  2.0301
 7205TIP3    H245811   6.128   7.090   9.041  1.2986 -1.3375 -2.1404
 7206TIP3   OH245812   6.287   2.647   1.420 -0.3847  0.0685 -0.7014
 7206TIP3    H145813   6.348   2.573   1.420  0.3139  0.5995  0.9759
 7206TIP3    H245814   6.201   2.606   1.403 -0.0314 -1.1546  0.3043
 7207TIP3   OH245815   1.016   0.881   1.246  0.2082  0.2479  0.0946
 7207TIP3    H145816   0.962   0.959   1.236 -2.0843 -1.2520  0.1540
 7207TIP3    H245817   1.069   0.898   1.324 -1.0950  1.2693  0.7862
 7208TIP3   OH245818   4.611   6.468   9.013 -0.5646  0.3502  0.5307
 7208TIP3    H145819   4.570   6.473   8.927  0.2267  2.1341  0.2075
 7208TIP3    H245820   4.703   6.491   8.998  0.1272 -1.5049  1.5448
 7209TIP3   OH245821   6.978   6.161   8.858  0.1318  0.4506  0.1068
 7209TIP3    H145822   7.040   6.202   8.799 -0.0828  0.8054  0.1274
 7209TIP3    H245823   6.912   6.228   8.876 -0.4789 -0.0471 -0.2305
 7210TIP3   OH245824   3.591   2.877   1.433 -0.3223 -0.0257  0.1955
 7210TIP3    H145825   3.533   2.918   1.368 -0.3651 -0.5362 -0.0908
 7210TIP3    H245826   3.676   2.874   1.389  0.4412  2.5019  1.3036
 7211TIP3   OH245827   1.165   4.254   9.802  0.0882 -0.6069  0.6145
 7211TIP3    H145828   1.127   4.167   9.796  0.4173 -0.7274  0.2012
 7211TIP3    H245829   1.105   4.303   9.858 -0.6296 -0.8150  0.0385
 7212TIP3   OH245830   4.738   0.504   8.426  0.3860  0.1505 -0.1150
 7212TIP3    H145831   4.728   0.497   8.331 -0.7316 -1.5319  0.0913
 7212TIP3    H245832   4.816   0.558   8.438  1.5780 -1.0381 -2.0121
 7213TIP3   OH245833   1.911   2.640   2.688 -0.2868 -0.2688 -0.2894
 7213TIP3    H145834   1.815   2.637   2.688 -0.2880 -1.2221  0.6865
 7213TIP3    H245835   1.937   2.550   2.711  0.8726 -0.4067 -1.9832
 7214TIP3   OH245836   4.043   6.405   9.566 -0.5551  0.1014  0.2226
 7214TIP3    H145837   3.961   6.423   9.521 -0.9568 -0.8811  0.5540
 7214TIP3    H245838   4.057   6.483   9.621 -0.9093  0.5628 -0.3263
 7215TIP3   OH245839   1.936   2.683   7.514  0.1396  0.0292  0.7928
 7215TIP3    H145840   1.990   2.730   7.577  0.1156  0.1814  0.7004
 7215TIP3    H245841   1.897   2.752   7.460 -1.8471  0.1181  2.1965
 7216TIP3   OH245842   1.587   6.146   0.496 -0.4329  0.0959 -0.5625
 7216TIP3    H145843   1.532   6.069   0.481  0.0560 -0.5390  0.7131
 7216TIP3    H245844   1.525   6.217   0.512 -0.9113 -0.4676  0.2127
 7217TIP3   OH245845   2.347   5.755   2.003  0.1646 -0.4608 -0.0943
 7217TIP3    H145846   2.312   5.682   2.054  0.2144 -1.3501 -1.3105
 7217TIP3    H245847   2.417   5.717   1.950  0.7671  0.6449 -0.1160
 7218TIP3   OH245848   0.106   5.315   8.506 -0.2552  0.1890 -0.2515
 7218TIP3    H145849   0.095   5.223   8.483  0.2640 -0.5652  2.1966
 7218TIP3    H245850   0.020   5.343   8.536 -0.5139  0.6678 -1.3728
 7219TIP3   OH245851   3.272   7.413   0.153  0.2273  0.2206  0.7720
 7219TIP3    H145852   3.304   7.389   0.066  0.6151 -0.2922  1.0523
 7219TIP3    H245853   3.181   7.384   0.153 -0.2437  1.5993  0.0072
 7220TIP3   OH245854   1.940   4.894   7.810  0.4553  0.1758  0.1302
 7220TIP3    H145855   1.918   4.975   7.855 -0.1112 -0.1250  0.4015
 7220TIP3    H245856   1.856   4.854   7.788  0.7221 -0.6262  0.5131
 7221TIP3   OH245857   5.809   6.291   8.725  0.1188  0.6747  0.0999
 7221TIP3    H145858   5.822   6.243   8.643  1.0388  1.5440 -0.2817
 7221TIP3    H245859   5.715   6.311   8.726  0.1129  0.7432 -0.7933
 7222TIP3   OH245860   5.929   6.876   1.177  0.3541  0.1120  0.1038
 7222TIP3    H145861   5.888   6.794   1.149 -1.6959  1.2552 -0.4286
 7222TIP3    H245862   5.885   6.898   1.259 -0.8236  1.8471 -0.9505
 7223TIP3   OH245863   3.423   4.557   1.075 -0.0229 -0.4156 -0.3239
 7223TIP3    H145864   3.407   4.577   1.167 -1.0830 -0.1530 -0.5558
 7223TIP3    H245865   3.514   4.582   1.061  0.3091 -0.9342  0.7720
 7224TIP3   OH245866   7.123   7.289   7.293 -0.5519 -0.4355 -0.3046
 7224TIP3    H145867   7.183   7.227   7.251 -0.1783  0.2468 -0.8159
 7224TIP3    H245868   7.173   7.371   7.297 -1.4031  0.1097 -0.6188
 7225TIP3   OH245869   6.967   6.398   1.180  0.1618 -0.1249  0.3704
 7225TIP3    H145870   6.980   6.491   1.200 -1.9582  0.0885  0.9711
 7225TIP3    H245871   6.894   6.397   1.119 -0.9545 -1.4636  1.6675
 7226TIP3   OH245872   3.715   1.812   7.827  1.0499  0.1154 -0.2658
 7226TIP3    H145873   3.809   1.798   7.836  0.7424 -1.2057  1.3716
 7226TIP3    H245874   3.675   1.736   7.869 -0.7657  1.0860 -0.1282
 7227TIP3   OH245875   5.455   1.334   9.748 -0.5113  0.8339 -0.5678
 7227TIP3    H145876   5.506   1.396   9.696  0.4496 -0.4763 -1.2462
 7227TIP3    H245877   5.456   1.371   9.836  0.9791  1.2405 -0.7239
 7228TIP3   OH245878   1.560   1.129   8.003 -0.3141  0.1204 -0.7917
 7228TIP3    H145879   1.596   1.181   7.931 -0.7319  1.1792 -0.2632
 7228TIP3    H245880   1.555   1.040   7.968  0.7320  0.3580 -1.6129
 7229TIP3   OH245881   6.437   6.058   7.667  1.0486  0.0323 -0.4784
 7229TIP3    H145882   6.393   6.091   7.588  0.3004  1.4748  0.4855
 7229TIP3    H245883   6.527   6.044   7.639  1.5302  3.2965 -0.9715
 7230TIP3   OH245884   6.997   1.163   1.502  0.0079 -0.3721 -0.4056
 7230TIP3    H145885   6.964   1.210   1.425  2.1974 -0.6222 -1.5643
 7230TIP3    H245886   6.927   1.101   1.524 -0.4117 -0.7749 -2.6258
 7231TIP3   OH245887   2.380   6.591   2.232  0.1411  0.1640 -0.1857
 7231TIP3    H145888   2.357   6.678   2.265 -0.8591 -0.0773 -0.2014
 7231TIP3    H245889   2.393   6.604   2.138 -0.3067  0.2441 -0.2378
 7232TIP3   OH245890   0.935   0.705   9.270 -0.1806 -0.1538  0.1652
 7232TIP3    H145891   0.867   0.660   9.220  0.5770 -1.8669  0.6308
 7232TIP3    H245892   0.909   0.693   9.362 -0.0066  0.4388  0.2949
 7233TIP3   OH245893   1.941   5.984   8.996  0.0218  0.2337  1.0389
 7233TIP3    H145894   1.911   5.904   8.953 -0.3486  0.9707 -0.1049
 7233TIP3    H245895   2.032   5.967   9.018  0.4892  0.1526 -0.8463
 7234TIP3   OH245896   0.209   6.369   0.138 -0.5125 -0.1430 -0.6978
 7234TIP3    H145897   0.137   6.360   0.201 -0.7325 -1.1569 -1.0736
 7234TIP3    H245898   0.247   6.454   0.158 -0.1090 -0.7217  1.2980
 7235TIP3   OH245899   1.038   6.320   2.097  0.2889 -0.2343 -0.0718
 7235TIP3    H145900   1.030   6.233   2.137  0.0473 -1.3759 -2.4461
 7235TIP3    H245901   1.130   6.326   2.071  0.0671 -0.2398 -0.8712
 7236TIP3   OH245902   5.620   3.232   1.869  0.3626  0.1165 -0.2240
 7236TIP3    H145903   5.666   3.216   1.951  1.5204  1.0012 -0.6835
 7236TIP3    H245904   5.644   3.321   1.844  0.6858 -0.4165 -1.9447
 7237TIP3   OH245905   0.302   2.807   7.942 -0.2897 -0.0516  0.1716
 7237TIP3    H145906   0.336   2.785   8.029  1.6165 -0.8418 -0.7040
 7237TIP3    H245907   0.264   2.725   7.910 -3.0781  0.7801  1.0670
 7238TIP3   OH245908   0.022   1.431   1.134  0.6967 -0.1395  0.4089
 7238TIP3    H145909  -0.010   1.385   1.057 -0.0982  1.3483 -0.1806
 7238TIP3    H245910   0.005   1.370   1.207  0.0905 -0.9507 -0.3842
 7239TIP3   OH245911   1.611   0.472   7.384 -0.3029  0.1902  0.2697
 7239TIP3    H145912   1.653   0.543   7.335 -0.0122  0.7899  1.3472
 7239TIP3    H245913   1.662   0.394   7.363 -1.2650  0.0443 -1.7683
 7240TIP3   OH245914   3.688   5.656   8.952 -0.2426 -0.0229  0.0961
 7240TIP3    H145915   3.596   5.682   8.948 -0.4324 -0.5655  0.8448
 7240TIP3    H245916   3.689   5.576   9.004  0.7585  0.4678  0.8783
 7241TIP3   OH245917   7.454   6.985   0.702  0.3697 -0.4320  0.3070
 7241TIP3    H145918   7.486   7.006   0.790  0.9515 -1.3035  0.3145
 7241TIP3    H245919   7.363   6.960   0.715  0.4801 -0.6399  0.6721
 7242TIP3   OH245920   7.433   0.553   0.094  0.3228 -0.6134  0.2937
 7242TIP3    H145921   7.459   0.592   0.177  0.1816 -1.3839  0.7028
 7242TIP3    H245922   7.346   0.517   0.110  0.5291 -1.2684 -0.0158
 7243TIP3   OH245923   4.338   4.628   7.920 -0.1302 -0.7578  0.0345
 7243TIP3    H145924   4.363   4.535   7.911 -0.3625 -0.6764 -1.8546
 7243TIP3    H245925   4.298   4.650   7.836  0.3043  1.1831  0.2913
 7244TIP3   OH245926   2.688   7.567   1.045  0.4026 -0.4178  0.2310
 7244TIP3    H145927   2.658   7.566   1.136  1.8438 -0.7474  0.7356
 7244TIP3    H245928   2.775   7.606   1.049  0.4637 -0.3806 -1.0216
 7245TIP3   OH245929   2.015   3.061   8.212  0.1744  0.0723 -0.1715
 7245TIP3    H145930   2.016   2.994   8.145  1.1084 -0.7237  0.6034
 7245TIP3    H245931   2.103   3.098   8.211  0.8895 -1.3534  1.9252
 7246TIP3   OH245932   3.907   2.127   2.472 -0.1974  0.0005  0.1812
 7246TIP3    H145933   3.816   2.150   2.455 -0.1986 -0.4457 -0.4587
 7246TIP3    H245934   3.921   2.046   2.424 -0.1775 -1.3578  2.3401
 7247TIP3   OH245935   0.500   6.886   9.066  0.3306  0.5087 -0.7417
 7247TIP3    H145936   0.467   6.798   9.047 -0.7586  1.3610 -3.0778
 7247TIP3    H245937   0.580   6.871   9.116 -0.3204 -1.7754 -0.2741
 7248TIP3   OH245938   4.565   5.496   8.323  0.2615  0.3455 -0.2485
 7248TIP3    H145939   4.591   5.419   8.273  0.4566  0.4516 -0.3100
 7248TIP3    H245940   4.471   5.503   8.308 -0.5094 -1.9506  2.5788
 7249TIP3   OH245941   6.347   4.258   8.789 -0.2551 -0.4608  0.0846
 7249TIP3    H145942   6.342   4.352   8.804 -0.0101 -0.3099 -0.7482
 7249TIP3    H245943   6.300   4.220   8.863 -0.3726  0.3130  0.4201
 7250TIP3   OH245944   5.518   1.198   8.568 -0.4910 -0.0050 -0.4994
 7250TIP3    H145945   5.432   1.238   8.554 -0.0428  0.6493 -1.4717
 7250TIP3    H245946   5.581   1.268   8.553  0.2568 -0.6941 -0.6746
 7251TIP3   OH245947   4.292   7.332   9.413 -0.2067 -0.4232 -0.4194
 7251TIP3    H145948   4.236   7.314   9.338 -2.1752 -1.1693  1.1399
 7251TIP3    H245949   4.243   7.300   9.489  1.0848  1.4656  1.3594
 7252TIP3   OH245950   5.650   0.325   8.790  0.3552  0.6609  0.0453
 7252TIP3    H145951   5.716   0.254   8.787 -0.0712  0.2813 -0.8038
 7252TIP3    H245952   5.640   0.344   8.883 -0.2249 -1.0805  0.3837
 7253TIP3   OH245953   5.681   2.501   0.588  0.2621 -0.1450 -0.1441
 7253TIP3    H145954   5.747   2.570   0.583 -0.1602  0.2708 -0.0279
 7253TIP3    H245955   5.599   2.545   0.568  0.1038 -0.7947 -0.9629
 7254TIP3   OH245956   6.703   2.888   8.646  0.6648 -0.4306 -0.1254
 7254TIP3    H145957   6.653   2.842   8.714  0.7253 -1.7957 -0.9527
 7254TIP3    H245958   6.642   2.896   8.573  0.7350  0.6314 -0.0858
 7255TIP3   OH245959   4.107   6.315   1.348  0.2382 -0.4650  0.1933
 7255TIP3    H145960   4.029   6.316   1.404 -0.5745 -2.7132 -0.7869
 7255TIP3    H245961   4.087   6.378   1.279 -0.8266 -1.1339 -0.1424
 7256TIP3   OH245962   2.766   6.380   1.818  0.1489  0.3287  0.0617
 7256TIP3    H145963   2.823   6.440   1.867 -0.2440  1.2715 -0.6020
 7256TIP3    H245964   2.821   6.303   1.802  1.0961  1.0328 -0.1799
 7257TIP3   OH245965   2.547   6.565   7.254  0.7119 -0.4918 -0.2919
 7257TIP3    H145966   2.532   6.638   7.194 -0.9529 -0.6859 -0.1505
 7257TIP3    H245967   2.578   6.494   7.197 -0.2410 -0.4808 -0.8478
 7258TIP3   OH245968   2.961   0.386   7.053  0.4692  0.1641  0.0826
 7258TIP3    H145969   2.908   0.324   7.002 -2.6877  2.1555  0.6541
 7258TIP3    H245970   2.962   0.349   7.142  1.6585 -0.7737 -0.2942
 7259TIP3   OH245971   1.749   6.966   0.809 -0.2717 -0.6076  0.0530
 7259TIP3    H145972   1.659   6.976   0.841 -0.7047  0.8208 -1.4789
 7259TIP3    H245973   1.749   7.010   0.724  2.0742  0.0223  0.3208
 7260TIP3   OH245974   4.463   6.512   9.799 -0.4319  0.0878  1.0140
 7260TIP3    H145975   4.420   6.574   9.740 -0.5941 -1.9789 -1.1728
 7260TIP3    H245976   4.424   6.530   9.885 -1.1671  2.3059  0.2974
 7261TIP3   OH245977   4.733   0.445   0.387 -0.4517 -0.1107  0.3872
 7261TIP3    H145978   4.667   0.495   0.433  0.5081 -0.4348  2.2230
 7261TIP3    H245979   4.706   0.354   0.396 -0.1198 -0.1970  0.5356
 7262TIP3   OH245980   0.801   6.674   0.022  0.4157 -0.4714  0.5202
 7262TIP3    H145981   0.767   6.641  -0.061  0.8012  1.0612 -0.2841
 7262TIP3    H245982   0.890   6.638   0.028  0.2212 -0.9538  0.4989
 7263TIP3   OH245983   4.770   1.021   9.313  0.3548 -0.3703 -0.2159
 7263TIP3    H145984   4.741   0.932   9.333 -0.5830 -0.1048 -0.3194
 7263TIP3    H245985   4.831   1.043   9.383 -0.4690 -0.6065  0.6003
 7264TIP3   OH245986   2.584   6.553   8.440 -0.2724  0.0172 -0.0130
 7264TIP3    H145987   2.520   6.606   8.486  0.2685 -0.0277  0.8027
 7264TIP3    H245988   2.556   6.463   8.454 -0.9382  0.0509 -1.0243
 7265TIP3   OH245989   1.917   4.161   1.995  0.1375  0.2166  0.2934
 7265TIP3    H145990   1.974   4.174   1.919 -0.5830  0.4292 -0.2183
 7265TIP3    H245991   1.967   4.103   2.053  1.0304  0.7143  0.0310
 7266TIP3   OH245992   5.189   1.906   9.827  0.0531 -0.1589  0.4926
 7266TIP3    H145993   5.260   1.845   9.846  0.2389 -0.3454 -0.7084
 7266TIP3    H245994   5.168   1.945   9.912  1.1612 -0.5546  0.9763
 7267TIP3   OH245995   3.296   3.886   0.791 -0.3539  0.4485  0.4496
 7267TIP3    H145996   3.263   3.970   0.823  0.7168  0.6170  1.1522
 7267TIP3    H245997   3.351   3.908   0.716 -0.2800  0.3515  0.4744
 7268TIP3   OH245998   2.368   2.108   7.641 -0.0273 -0.2072 -0.0865
 7268TIP3    H145999   2.339   2.017   7.635  0.0216 -0.2721  0.5271
 7268TIP3    H246000   2.316   2.145   7.713 -0.9898  0.6277 -1.1620
 7269TIP3   OH246001   1.644   3.004   7.983  0.2160  0.1133 -0.3365
 7269TIP3    H146002   1.703   3.075   7.958 -1.0071  1.0933 -0.5310
 7269TIP3    H246003   1.618   2.964   7.900  0.0996  0.0965 -0.2917
 7270TIP3   OH246004   1.768   5.380   0.721 -1.0926  0.4335 -0.0143
 7270TIP3    H146005   1.776   5.468   0.757 -0.1290  0.8478 -1.1804
 7270TIP3    H246006   1.833   5.329   0.769  0.0598  0.9411 -0.9847
 7271TIP3   OH246007   6.582   1.559   8.076 -0.2141 -0.1780  0.3366
 7271TIP3    H146008   6.507   1.549   8.017  0.0400  1.5959 -0.3448
 7271TIP3    H246009   6.650   1.504   8.038 -0.2359  0.5065 -0.7452
 7272TIP3   OH246010   3.867   3.152   9.383 -0.4850 -0.2014  0.0505
 7272TIP3    H146011   3.961   3.156   9.368 -0.7278  0.4394 -1.4987
 7272TIP3    H246012   3.858   3.121   9.473  1.2957  3.9630  1.9166
 7273TIP3   OH246013   5.859   4.951   0.991  0.2229 -0.0103 -0.4148
 7273TIP3    H146014   5.915   4.906   0.928  0.6372 -2.2739  1.4299
 7273TIP3    H246015   5.900   5.037   1.003  1.2058 -0.2576 -1.7684
 7274TIP3   OH246016   2.203   5.731   7.023  0.1649 -0.5606  0.2825
 7274TIP3    H146017   2.164   5.815   7.049 -0.3543 -0.8901  0.5866
 7274TIP3    H246018   2.197   5.730   6.928 -2.2347 -1.3734  0.3909
 7275TIP3   OH246019   5.859   0.365   1.222  0.3148 -0.2370 -0.4163
 7275TIP3    H146020   5.865   0.272   1.201 -0.5943  0.1552 -2.5865
 7275TIP3    H246021   5.768   0.377   1.249 -0.1544  0.3694 -2.1689
 7276TIP3   OH246022   2.291   3.454   9.471 -0.0246 -0.4827  0.2156
 7276TIP3    H146023   2.231   3.422   9.404 -2.0632 -1.1880  2.2366
 7276TIP3    H246024   2.350   3.381   9.488  1.1289  0.0171 -1.3757
 7277TIP3   OH246025   5.937   4.266   0.593  0.2913 -0.3428  0.4523
 7277TIP3    H146026   6.016   4.259   0.540 -0.7438  0.0001 -1.2080
 7277TIP3    H246027   5.956   4.336   0.655  1.2262 -0.1507 -0.0330
 7278TIP3   OH246028   4.513   6.223   2.151 -0.1555 -0.2014 -0.2526
 7278TIP3    H146029   4.608   6.223   2.151 -0.1543 -0.1350 -0.0602
 7278TIP3    H246030   4.488   6.204   2.241 -0.3279 -0.5749 -0.3779
 7279TIP3   OH246031   3.256   4.688   2.184 -0.0783 -0.1546  0.0462
 7279TIP3    H146032   3.301   4.605   2.197 -0.9150 -1.0201 -2.0955
 7279TIP3    H246033   3.316   4.741   2.132 -0.1658  0.0026  0.1025
 7280TIP3   OH246034   5.086   7.620   0.154  0.1465 -0.8411 -0.4331
 7280TIP3    H146035   5.014   7.674   0.122  0.4988  0.3625  0.7013
 7280TIP3    H246036   5.119   7.576   0.076 -0.6699 -0.0305 -1.2722
 7281TIP3   OH246037   3.114   6.904   9.178  0.0104 -0.0740  1.1480
 7281TIP3    H146038   3.068   6.988   9.179  1.4619  0.7571  1.8405
 7281TIP3    H246039   3.113   6.876   9.270  1.2376  0.1749  1.2468
 7282TIP3   OH246040   2.532   2.001   9.647 -0.4489  0.5712  0.3205
 7282TIP3    H146041   2.542   2.087   9.606 -1.5592  1.1117  1.1069
 7282TIP3    H246042   2.592   1.944   9.600  1.8072  2.2027  1.0680
 7283TIP3   OH246043   3.541   7.501   8.483 -0.1625  0.0325  0.2302
 7283TIP3    H146044   3.592   7.482   8.404 -2.2008 -2.8157 -0.5476
 7283TIP3    H246045   3.477   7.430   8.488 -0.4436  0.3521  4.2222
 7284TIP3   OH246046   3.999   6.469   1.145 -0.0473 -0.4685  0.1325
 7284TIP3    H146047   4.013   6.515   1.062  1.0389  1.3709  1.2516
 7284TIP3    H246048   3.909   6.438   1.141 -0.8865  1.8480 -0.7121
 7285TIP3   OH246049   1.236   0.131   7.819 -0.2243 -0.1209  0.9230
 7285TIP3    H146050   1.173   0.185   7.868  0.6472  0.6260  1.2644
 7285TIP3    H246051   1.182   0.072   7.767 -1.2621  1.7722 -0.2521
 7286TIP3   OH246052   7.205   1.708   8.506 -0.2747  0.4047  0.0681
 7286TIP3    H146053   7.155   1.645   8.454 -0.5605  0.1194  0.6823
 7286TIP3    H246054   7.150   1.786   8.508 -1.2605 -0.2815  1.6975
 7287TIP3   OH246055   2.357   3.137   1.115  0.1151 -0.3673 -0.2181
 7287TIP3    H146056   2.397   3.122   1.201  1.3274  0.0870 -0.6867
 7287TIP3    H246057   2.332   3.050   1.085  0.5494 -0.6389  0.1854
 7288TIP3   OH246058   6.164   2.189   0.178 -0.0307 -0.1875  0.0489
 7288TIP3    H146059   6.208   2.262   0.221  2.4505 -1.1047 -0.7705
 7288TIP3    H246060   6.086   2.228   0.139  1.3842  2.1397 -0.6651
 7289TIP3   OH246061   0.278   5.004   8.675 -0.5995 -0.4247 -0.1734
 7289TIP3    H146062   0.275   5.047   8.760  2.8427 -0.1826 -0.0191
 7289TIP3    H246063   0.328   4.924   8.690  1.2479  0.2757 -2.1367
 7290TIP3   OH246064   0.125   7.241   1.743 -0.0047  0.3314 -0.4557
 7290TIP3    H146065   0.143   7.162   1.691  0.8666  1.0688 -1.3033
 7290TIP3    H246066   0.059   7.213   1.807  2.5317 -1.9803  1.3879
 7291TIP3   OH246067   4.050   5.470   0.859 -0.4625  0.1483 -0.2972
 7291TIP3    H146068   4.056   5.399   0.795 -1.0199  0.3204 -0.5458
 7291TIP3    H246069   4.111   5.537   0.826  0.6262 -0.5027  0.3308
 7292TIP3   OH246070   7.121   6.782   1.214 -0.5806  0.2713  0.6539
 7292TIP3    H146071   7.203   6.732   1.211 -0.4260  0.4094  1.9889
 7292TIP3    H246072   7.105   6.807   1.123  1.0120  0.4887  0.4010
 7293TIP3   OH246073   3.757   1.628   9.139 -0.4514 -0.3713  0.3019
 7293TIP3    H146074   3.791   1.609   9.052 -0.0482  1.4641  0.0133
 7293TIP3    H246075   3.835   1.652   9.190 -0.6392 -1.7209  1.2752
 7294TIP3   OH246076   0.781   3.669   0.541  0.1632  0.0253 -0.1405
 7294TIP3    H146077   0.708   3.679   0.603  0.3946  0.9818 -0.0112
 7294TIP3    H246078   0.738   3.651   0.457 -0.2247  0.4489 -0.0384
 7295TIP3   OH246079   4.941   3.108   0.289  0.0398 -0.2396  0.1912
 7295TIP3    H146080   4.887   3.178   0.251  0.9388  0.0392 -0.6454
 7295TIP3    H246081   5.027   3.121   0.248  1.0856  0.0637  2.3306
 7296TIP3   OH246082   4.806   4.193   8.055 -0.1645  0.0337 -0.6219
 7296TIP3    H146083   4.793   4.101   8.035 -1.1916  0.3394 -1.4548
 7296TIP3    H246084   4.897   4.211   8.029 -0.7652 -0.1158 -3.0416
 7297TIP3   OH246085   4.250   5.140   0.929  0.5099 -0.2487 -0.2431
 7297TIP3    H146086   4.311   5.212   0.942  0.3785 -0.2707  0.5781
 7297TIP3    H246087   4.189   5.172   0.863 -0.4643  1.0246  1.1841
 7298TIP3   OH246088   3.256   3.426   2.018  0.1198  0.2437 -0.1815
 7298TIP3    H146089   3.173   3.407   2.061  0.4276 -0.6994  0.0198
 7298TIP3    H246090   3.232   3.472   1.938 -0.6631 -0.8642 -0.6001
 7299TIP3   OH246091   4.522   1.564   9.758  0.1528  0.3035 -0.7778
 7299TIP3    H146092   4.609   1.589   9.728  0.1235  1.6971  0.1885
 7299TIP3    H246093   4.470   1.557   9.678  1.6272 -2.9244 -1.6409
 7300TIP3   OH246094   5.571   2.530   2.263 -0.4415  0.0435  0.3669
 7300TIP3    H146095   5.587   2.624   2.276 -0.4556  0.3075 -1.2341
 7300TIP3    H246096   5.485   2.527   2.220  0.8557 -0.4060 -2.4600
 7301TIP3   OH246097   7.107   0.260   1.070  0.2302  0.7056 -0.1725
 7301TIP3    H146098   7.122   0.166   1.066 -2.3676  0.1888  0.5991
 7301TIP3    H246099   7.150   0.288   1.152 -0.4189 -0.1313  0.4667
 7302TIP3   OH246100   5.966   7.387   0.594 -0.0938 -0.0899 -0.2148
 7302TIP3    H146101   5.886   7.387   0.646  0.1754 -1.8218  0.2830
 7302TIP3    H246102   6.024   7.326   0.640  1.2758  0.6332 -0.9232
 7303TIP3   OH246103   6.700   7.320   9.458 -0.3821 -0.0632  0.0405
 7303TIP3    H146104   6.773   7.261   9.480  0.7244  1.1896 -0.1363
 7303TIP3    H246105   6.742   7.396   9.417 -1.8882  0.2422 -1.0364
 7304TIP3   OH246106   7.350   2.300   8.451 -0.2138  0.1646 -0.5916
 7304TIP3    H146107   7.418   2.234   8.447 -1.4481 -1.1153 -1.1737
 7304TIP3    H246108   7.373   2.354   8.527  0.7576 -0.9958 -0.0400
 7305TIP3   OH246109   2.574   3.980   1.157  0.2145  0.5294 -0.0970
 7305TIP3    H146110   2.615   4.059   1.121  1.4043 -0.4843 -1.0556
 7305TIP3    H246111   2.527   3.942   1.083  1.1923 -0.6222 -0.1531
 7306TIP3   OH246112   4.808   7.075   1.219 -0.3131 -0.2503  0.4930
 7306TIP3    H146113   4.770   6.996   1.181 -1.8243  0.2974  0.7818
 7306TIP3    H246114   4.821   7.053   1.311  0.5216 -0.5919  0.2971
 7307TIP3   OH246115   0.377   7.374   1.780 -0.1731  0.0381  0.2750
 7307TIP3    H146116   0.387   7.465   1.807 -0.4816 -0.3343  1.7259
 7307TIP3    H246117   0.298   7.344   1.825 -0.8611 -0.5710 -1.2522
 7308TIP3   OH246118   1.502   2.589   1.653  0.6731 -0.0057 -0.0392
 7308TIP3    H146119   1.597   2.602   1.663  0.8616  1.3794 -2.7081
 7308TIP3    H246120   1.494   2.540   1.571 -0.9063 -1.8472  1.1409
 7309TIP3   OH246121   7.635   3.184   1.272 -0.4169  0.0478  0.0656
 7309TIP3    H146122   7.692   3.122   1.226  0.1199 -0.1690  0.9763
 7309TIP3    H246123   7.681   3.268   1.265 -1.4187  0.4879 -1.6461
 7310TIP3   OH246124   0.830   4.430   8.985 -0.2647  0.4835  0.1832
 7310TIP3    H146125   0.916   4.426   9.026 -0.1425  1.5333  0.0654
 7310TIP3    H246126   0.810   4.524   8.979 -2.0974  0.2541  1.6216
 7311TIP3   OH246127   6.085   4.428   9.490  0.3530  0.0287 -0.0187
 7311TIP3    H146128   6.136   4.453   9.413  0.2735  0.2602  0.0039
 7311TIP3    H246129   6.071   4.509   9.537  1.1181 -0.2352  0.6815
 7312TIP3   OH246130   1.906   6.632   0.329  0.0703 -0.1747 -0.1555
 7312TIP3    H146131   1.986   6.586   0.307 -0.7048 -2.0065  0.6756
 7312TIP3    H246132   1.913   6.716   0.283  2.9882  0.2660  0.8651
 7313TIP3   OH246133   3.441   3.827   2.824 -0.5053  0.0996 -0.1585
 7313TIP3    H146134   3.370   3.889   2.812 -0.3541  0.5717  1.1669
 7313TIP3    H246135   3.507   3.875   2.874  0.2172 -0.7061 -0.2959
 7314TIP3   OH246136   6.432   6.145   0.589  0.0381 -0.0061 -0.4679
 7314TIP3    H146137   6.446   6.053   0.613  2.6081 -0.1418 -2.1197
 7314TIP3    H246138   6.348   6.167   0.629  0.4277 -2.3658  1.9672
 7315TIP3   OH246139   1.091   4.269   7.987  0.6731 -0.0402 -0.3690
 7315TIP3    H146140   1.005   4.245   8.020  1.0701 -1.1959 -0.1194
 7315TIP3    H246141   1.150   4.203   8.023  1.5030  0.1336 -1.3524
 7316TIP3   OH246142   6.634   3.531   9.056  0.2392 -0.9707 -0.2025
 7316TIP3    H146143   6.592   3.457   9.014 -0.5501 -0.1775 -0.8657
 7316TIP3    H246144   6.602   3.607   9.007  2.0034 -0.2853 -0.3561
 7317TIP3   OH246145   5.620   7.573   2.018  0.0502  0.3389 -0.4901
 7317TIP3    H146146   5.546   7.634   2.013 -0.1984  0.0175 -0.7324
 7317TIP3    H246147   5.661   7.594   2.102 -0.2482  0.5978 -0.4039
 7318TIP3   OH246148   2.950   3.976   8.581 -0.5468 -0.2408 -0.1972
 7318TIP3    H146149   3.013   3.911   8.613 -0.4569 -0.4389 -0.7794
 7318TIP3    H246150   2.923   3.944   8.495 -1.6522 -0.3000  0.1558
 7319TIP3   OH246151   0.641   5.694   9.070  0.1949  0.0744  0.5486
 7319TIP3    H146152   0.558   5.667   9.109  0.6331 -1.1138  0.6988
 7319TIP3    H246153   0.693   5.614   9.066  0.4955  0.3053 -1.6816
 7320TIP3   OH246154   1.270   6.479   7.177 -0.4858  0.0190  0.2051
 7320TIP3    H146155   1.201   6.480   7.245 -0.9537  0.6313 -0.2718
 7320TIP3    H246156   1.257   6.560   7.129  0.7682  0.2738  0.2844
 7321TIP3   OH246157   4.644   3.307   9.451 -0.0538  0.4781  0.0115
 7321TIP3    H146158   4.613   3.247   9.520  0.2313  1.3893  0.9541
 7321TIP3    H246159   4.609   3.269   9.370  1.4055 -1.8322  0.3674
 7322TIP3   OH246160   1.905   5.710   8.844  0.5406  0.3735  0.2817
 7322TIP3    H146161   1.819   5.669   8.846 -0.5746  2.4410 -1.8067
 7322TIP3    H246162   1.965   5.641   8.874 -1.5565 -1.7783 -0.1988
 7323TIP3   OH246163   3.544   4.256   0.538  0.0527 -0.2363 -0.0547
 7323TIP3    H146164   3.632   4.239   0.503  0.3533 -0.0848  0.5978
 7323TIP3    H246165   3.525   4.346   0.513  1.0222  0.4957  1.6598
 7324TIP3   OH246166   1.138   6.863   0.133  0.1869  0.0614  0.3716
 7324TIP3    H146167   1.230   6.858   0.108  0.2509 -0.3429  0.6806
 7324TIP3    H246168   1.138   6.854   0.229 -0.1020  0.9812  0.4720
 7325TIP3   OH246169   3.005   1.702   2.774 -0.1250 -0.1558  0.9045
 7325TIP3    H146170   2.930   1.710   2.715  0.3490 -0.4058  0.2587
 7325TIP3    H246171   3.047   1.788   2.771 -0.3939 -0.0077  1.2861
 7326TIP3   OH246172   6.892   3.612   8.445  0.1939 -0.6966 -0.5702
 7326TIP3    H146173   6.865   3.679   8.507 -0.4538 -1.3756 -0.0946
 7326TIP3    H246174   6.918   3.538   8.500 -0.1745 -1.2272 -1.0998
 7327TIP3   OH246175   2.030   2.280   1.320 -0.2768  0.0417  0.0879
 7327TIP3    H146176   2.085   2.350   1.285  1.4101 -0.3845  1.7010
 7327TIP3    H246177   2.089   2.207   1.333 -1.2037 -0.4676  1.8598
 7328TIP3   OH246178   5.757   3.334   8.007 -0.9717  0.8720 -0.3329
 7328TIP3    H146179   5.803   3.352   7.926 -0.2618  0.6078  0.0057
 7328TIP3    H246180   5.698   3.261   7.986 -2.0615  1.9231 -1.0530
 7329TIP3   OH246181   5.138   0.869   1.803 -0.0487 -0.0803  0.1973
 7329TIP3    H146182   5.178   0.884   1.889 -0.6036  1.5012  0.2134
 7329TIP3    H246183   5.135   0.955   1.762 -2.8800 -0.1751 -0.0281
 7330TIP3   OH246184   3.190   2.231   8.762  0.3027  0.4032  0.5309
 7330TIP3    H146185   3.237   2.189   8.833  0.2694 -0.9457 -0.2090
 7330TIP3    H246186   3.257   2.249   8.696  0.1060  0.2967  0.2975
 7331TIP3   OH246187   1.044   2.961   1.075 -0.0707 -0.1057  0.0971
 7331TIP3    H146188   1.036   2.946   0.981  0.0018  0.1932  0.0404
 7331TIP3    H246189   1.092   3.044   1.082 -1.2104  0.5560  0.3743
 7332TIP3   OH246190   3.892   2.156   0.382 -0.5188 -0.2713  0.2734
 7332TIP3    H146191   3.903   2.083   0.321  0.6599 -0.2511  0.4372
 7332TIP3    H246192   3.832   2.122   0.449  1.5678 -1.8684  1.4704
 7333TIP3   OH246193   6.619   6.945   0.015  0.3798  0.1229 -0.5576
 7333TIP3    H146194   6.582   6.978   0.097  2.0759  0.3231  0.1774
 7333TIP3    H246195   6.584   6.857   0.006 -0.6236  0.4617 -0.1694
 7334TIP3   OH246196   2.449   0.229   2.255 -0.0965  0.6309 -0.2628
 7334TIP3    H146197   2.359   0.196   2.255 -0.2713  1.0891 -0.5836
 7334TIP3    H246198   2.480   0.216   2.344 -0.3482  0.1161 -0.2445
 7335TIP3   OH246199   0.931   0.310   9.435  0.1489 -0.4633  0.3532
 7335TIP3    H146200   0.839   0.285   9.422 -0.2165  0.4857  0.9634
 7335TIP3    H246201   0.936   0.335   9.528  0.4097  1.7994 -0.2022
 7336TIP3   OH246202   0.519   0.219   9.680 -0.1436  0.3973  0.2075
 7336TIP3    H146203   0.600   0.203   9.633 -0.3287  2.2890 -0.8453
 7336TIP3    H246204   0.545   0.227   9.772  0.7644  0.4044 -0.0464
 7337TIP3   OH246205   1.637   0.027   3.442  0.1679 -0.2288 -0.1444
 7337TIP3    H146206   1.679   0.016   3.357 -0.6123 -0.8891 -0.4520
 7337TIP3    H246207   1.671   0.111   3.474 -0.5200  0.6813 -1.6745
 7338TIP3   OH246208   1.472   2.960   9.992  0.7021 -0.1993  0.1504
 7338TIP3    H146209   1.543   2.925   9.937 -0.4396 -3.1001  0.2995
 7338TIP3    H246210   1.397   2.964   9.933 -0.6318 -3.6841  1.3666
 7339TIP3   OH246211   5.009   6.203   7.114  0.5920 -0.3556 -0.2721
 7339TIP3    H146212   5.084   6.147   7.135 -0.8402 -2.9522 -1.6227
 7339TIP3    H246213   5.020   6.224   7.021  0.3261  0.3724 -0.1473
 7340TIP3   OH246214   7.195   0.620   2.400 -0.0287  0.2977  0.2528
 7340TIP3    H146215   7.170   0.701   2.357  0.2302 -0.2780 -1.0519
 7340TIP3    H246216   7.119   0.563   2.389  0.3429 -0.1267 -0.1890
 7341TIP3   OH246217   4.819   5.614   9.053 -0.0981 -0.1216 -0.0355
 7341TIP3    H146218   4.857   5.597   9.139 -2.1111  2.5927  1.5569
 7341TIP3    H246219   4.863   5.693   9.023  0.2570 -0.7852 -1.3445
 7342TIP3   OH246220   6.059   0.350   0.229  0.6905  0.0339  0.2985
 7342TIP3    H146221   6.109   0.339   0.148  0.6964 -3.0575  0.6075
 7342TIP3    H246222   5.977   0.393   0.201  1.7383  1.3852 -0.8590
 7343TIP3   OH246223   4.623   7.026   0.226 -0.0330  0.3492 -0.1771
 7343TIP3    H146224   4.550   7.003   0.283 -1.2709  2.6448 -0.7201
 7343TIP3    H246225   4.697   7.039   0.286 -0.1847 -1.3652  0.4395
 7344TIP3   OH246226   7.194   3.085   9.118 -0.6448  0.6201  0.3732
 7344TIP3    H146227   7.290   3.080   9.118 -0.6154 -0.3992  2.7698
 7344TIP3    H246228   7.170   3.089   9.026  1.6872  0.6636 -0.3032
 7345TIP3   OH246229   1.688   4.745   1.051  0.2540  0.3901 -0.2491
 7345TIP3    H146230   1.637   4.820   1.021 -1.1014 -0.3973  0.0055
 7345TIP3    H246231   1.659   4.730   1.140 -0.9539 -1.6108 -0.9184
 7346TIP3   OH246232   6.953   5.082   0.439  0.1767  0.5466  0.1311
 7346TIP3    H146233   7.041   5.053   0.466  0.0901  0.8010  0.7018
 7346TIP3    H246234   6.961   5.177   0.431  0.5676  0.3679 -2.1300
 7347TIP3   OH246235   7.445   6.515   1.336  0.1963  0.1066 -0.3364
 7347TIP3    H146236   7.363   6.470   1.358  0.5858 -0.5756 -0.2294
 7347TIP3    H246237   7.442   6.596   1.386 -0.0550 -0.2845  0.3029
 7348TIP3   OH246238   4.372   3.556   0.350  0.0160 -0.4283  0.2080
 7348TIP3    H146239   4.467   3.558   0.357  0.1190 -1.7229 -0.5207
 7348TIP3    H246240   4.354   3.482   0.292 -1.4923 -1.0309  1.3739
 7349TIP3   OH246241   3.239   5.692   0.780  0.4959  0.1968 -0.2153
 7349TIP3    H146242   3.195   5.700   0.696 -1.4437  0.0973  0.7221
 7349TIP3    H246243   3.277   5.604   0.778 -0.2100 -0.1139 -0.7109
 7350TIP3   OH246244   2.318   4.416   8.941 -0.2753  0.2453  0.4701
 7350TIP3    H146245   2.343   4.509   8.938  2.7732 -0.4375  1.5515
 7350TIP3    H246246   2.382   4.372   8.885 -1.0837 -1.3240  0.7427
 7351TIP3   OH246247   3.605   4.917   7.186 -0.4107  0.5381  0.1438
 7351TIP3    H146248   3.528   4.965   7.155  0.6629  1.5774 -1.0293
 7351TIP3    H246249   3.680   4.966   7.152  0.8498  0.4919  2.5729
 7352TIP3   OH246250   3.442   6.101   8.257  0.0062  0.2411 -0.1146
 7352TIP3    H146251   3.392   6.161   8.313  0.5238 -0.5650  1.2667
 7352TIP3    H246252   3.522   6.083   8.307 -0.2260 -1.7312 -0.3905
 7353TIP3   OH246253   5.225   0.230   8.588  0.2172  0.3809  1.3129
 7353TIP3    H146254   5.207   0.295   8.521  0.0392  0.0444  1.0347
 7353TIP3    H246255   5.184   0.150   8.556  2.0866 -0.3905  0.7028
 7354TIP3   OH246256   0.428   4.758   8.680  0.2588 -0.1496 -0.3647
 7354TIP3    H146257   0.459   4.732   8.767 -0.4176  0.4008  0.0576
 7354TIP3    H246258   0.340   4.721   8.674 -0.4746  1.4290 -0.0042
 7355TIP3   OH246259   7.410   3.780   0.989  0.1811 -0.2227  0.1770
 7355TIP3    H146260   7.385   3.870   0.968  1.3165 -0.0414 -0.4776
 7355TIP3    H246261   7.392   3.772   1.083 -1.4805  0.1467 -0.0833
 7356TIP3   OH246262   5.038   6.739   9.526  0.0645  0.5624 -0.1978
 7356TIP3    H146263   5.129   6.765   9.511  0.0162  1.3897  0.8068
 7356TIP3    H246264   5.021   6.673   9.460  0.9404  1.4536 -1.3555
 7357TIP3   OH246265   5.205   2.317   8.219  0.1244 -0.0079  0.4731
 7357TIP3    H146266   5.296   2.334   8.197 -0.2812  1.1481 -0.3991
 7357TIP3    H246267   5.158   2.395   8.190 -1.4623 -1.4900 -1.2310
 7358TIP3   OH246268   7.392   4.784   8.847 -0.3125 -0.0923  0.2905
 7358TIP3    H146269   7.338   4.721   8.801 -0.5936  0.5071 -0.2058
 7358TIP3    H246270   7.427   4.841   8.779 -0.3133  0.4833  0.7624
 7359TIP3   OH246271   2.752   5.360   8.457  0.1552 -0.9836  0.7836
 7359TIP3    H146272   2.734   5.444   8.499  1.7440 -0.3796  0.3378
 7359TIP3    H246273   2.674   5.307   8.473 -0.2569  0.0585  2.3614
 7360TIP3   OH246274   7.463   2.003   9.726 -0.0972 -0.1997 -0.2803
 7360TIP3    H146275   7.392   2.065   9.742  1.2216  2.4719 -3.4890
 7360TIP3    H246276   7.513   2.002   9.807 -1.2357  1.4945  0.5008
 7361TIP3   OH246277   3.201   7.231   3.036 -0.1516 -0.0071  0.2690
 7361TIP3    H146278   3.105   7.227   3.037 -0.2114  1.2693  0.3118
 7361TIP3    H246279   3.224   7.284   3.112  0.4556  1.9890 -1.2424
 7362TIP3   OH246280   6.851   5.797   7.622 -0.0279  0.0779 -0.0003
 7362TIP3    H146281   6.936   5.814   7.581  0.6968  0.5430  1.6257
 7362TIP3    H246282   6.822   5.883   7.653  0.3978 -0.5030  2.1635
 7363TIP3   OH246283   0.009   4.378   1.181  0.6324 -1.1013  0.0232
 7363TIP3    H146284   0.045   4.308   1.236 -0.0994 -3.3385 -2.1158
 7363TIP3    H246285  -0.081   4.389   1.212  1.5171  0.8842  2.0894
 7364TIP3   OH246286   0.728   7.002   7.878  0.4745  0.4458  0.3097
 7364TIP3    H146287   0.678   6.929   7.842 -0.6211  1.0720  0.5355
 7364TIP3    H246288   0.820   6.980   7.859  0.2003 -1.2268  0.8498
 7365TIP3   OH246289   4.259   2.682   0.918  0.2040  0.4364 -0.3090
 7365TIP3    H146290   4.233   2.590   0.916 -0.1959  0.5451 -0.1621
 7365TIP3    H246291   4.272   2.701   1.010  1.1308  0.2961 -0.4028
 7366TIP3   OH246292   2.664   1.540   7.755 -0.7196  0.4819 -0.0448
 7366TIP3    H146293   2.612   1.477   7.706  1.2069 -2.6733  1.6992
 7366TIP3    H246294   2.750   1.538   7.715  0.5827 -1.3408  2.5333
 7367TIP3   OH246295   1.784   0.502   0.421  0.0853  0.6837  0.2090
 7367TIP3    H146296   1.754   0.429   0.367  0.9395  0.4101  0.0817
 7367TIP3    H246297   1.704   0.544   0.453 -0.4218 -0.7138  0.8402
 7368TIP3   OH246298   3.440   5.185   8.387 -0.6479  0.2242 -0.0754
 7368TIP3    H146299   3.362   5.178   8.332  1.4045 -4.2238 -3.0012
 7368TIP3    H246300   3.453   5.097   8.421  1.8724  1.3689  2.2631
 7369TIP3   OH246301   6.938   3.085   9.222 -0.1947 -0.3552  0.5667
 7369TIP3    H146302   6.866   3.026   9.202 -0.0728 -0.3387  0.0635
 7369TIP3    H246303   7.013   3.049   9.174  0.3314 -0.8165  1.7017
 7370TIP3   OH246304   4.262   3.989   8.585  0.2739 -0.3636 -0.3526
 7370TIP3    H146305   4.200   3.918   8.570  1.2759 -1.0879 -1.2294
 7370TIP3    H246306   4.345   3.945   8.603  0.6916  0.5905  0.1165
 7371TIP3   OH246307   0.800   4.331   1.551  0.2445 -0.2739 -0.1536
 7371TIP3    H146308   0.825   4.404   1.607  0.8095  0.6310 -1.5184
 7371TIP3    H246309   0.874   4.270   1.557 -0.6364 -1.2516  1.7316
 7372TIP3   OH246310   7.127   3.324   2.118 -0.2533  0.1975 -0.6130
 7372TIP3    H146311   7.087   3.241   2.095 -0.4573 -0.0651  0.6535
 7372TIP3    H246312   7.056   3.376   2.154  0.1362  0.4499 -0.1975
 7373TIP3   OH246313   2.189   2.340   2.244  0.0140  0.1047 -0.2278
 7373TIP3    H146314   2.241   2.296   2.178  0.7054  0.0147  0.3673
 7373TIP3    H246315   2.176   2.428   2.210  0.9887  0.2843 -0.1552
 7374TIP3   OH246316   1.820   2.320   0.369 -0.1306  0.3623 -0.6360
 7374TIP3    H146317   1.855   2.273   0.445  0.0414  2.0173  0.3773
 7374TIP3    H246318   1.727   2.299   0.368 -0.5311  1.7210  1.2149
 7375TIP3   OH246319   4.411   5.540   0.359 -0.4044  0.0224  0.5072
 7375TIP3    H146320   4.423   5.608   0.293 -1.1088 -1.5067 -1.2819
 7375TIP3    H246321   4.475   5.473   0.337  0.1531 -0.0300  2.1303
 7376TIP3   OH246322   7.042   4.177   0.916  0.3371 -0.5028  0.2843
 7376TIP3    H146323   7.080   4.204   0.833  1.2085  3.1115  1.6558
 7376TIP3    H246324   6.947   4.181   0.902  0.4771  0.1635 -0.5499
 7377TIP3   OH246325   5.939   2.990   1.010 -0.3864 -0.3579 -0.0989
 7377TIP3    H146326   5.933   3.071   1.060  0.5834  1.3542 -2.5958
 7377TIP3    H246327   5.851   2.952   1.016 -0.9896  1.0871  0.7675
 7378TIP3   OH246328   7.448   5.326   0.172  0.1022 -0.0975 -0.2436
 7378TIP3    H146329   7.527   5.331   0.118  0.6518 -0.2584  0.5309
 7378TIP3    H246330   7.420   5.418   0.181  1.0673  0.1241  0.7165
 7379TIP3   OH246331   6.390   6.289   1.893 -0.1876 -0.0924 -0.0233
 7379TIP3    H146332   6.427   6.328   1.972 -0.8673 -0.2656  0.3780
 7379TIP3    H246333   6.315   6.345   1.871 -0.1107 -0.1486 -0.4502
 7380TIP3   OH246334   4.082   3.547   0.153  0.4130 -0.6112 -0.6929
 7380TIP3    H146335   4.164   3.498   0.159  0.3811 -0.6988 -0.9406
 7380TIP3    H246336   4.027   3.512   0.222  0.0998 -1.4845 -1.3657
 7381TIP3   OH246337   0.255   3.116   7.424  0.1896 -0.3303 -0.0880
 7381TIP3    H146338   0.335   3.166   7.442  0.2852 -0.2636 -0.6937
 7381TIP3    H246339   0.286   3.027   7.407  0.2659 -0.0248 -1.6432
 7382TIP3   OH246340   5.230   6.387   1.512  0.6579 -0.8301  0.4443
 7382TIP3    H146341   5.195   6.400   1.424  1.0980 -0.1194  0.3658
 7382TIP3    H246342   5.315   6.344   1.499  2.3254  2.2156  0.2487
 7383TIP3   OH246343   0.259   4.148   1.206 -0.4034 -0.5252  0.6076
 7383TIP3    H146344   0.216   4.115   1.285 -1.1352  0.7153  0.7417
 7383TIP3    H246345   0.205   4.115   1.134 -2.0271  1.5686  0.8000
 7384TIP3   OH246346   0.344   2.597   9.979  0.3559  0.0302 -0.0539
 7384TIP3    H146347   0.330   2.674   9.923 -0.5965 -1.2447 -1.6826
 7384TIP3    H246348   0.399   2.539   9.926 -3.0455 -2.5392 -1.1259
 7385TIP3   OH246349   5.157   1.956   7.969  0.1500 -0.3317  0.5434
 7385TIP3    H146350   5.215   1.887   8.004 -1.2986 -0.6775  2.4276
 7385TIP3    H246351   5.155   1.940   7.875  0.5729 -2.3322  0.8163
 7386TIP3   OH246352   5.242   4.334   8.066  0.3207 -0.0935 -0.5738
 7386TIP3    H146353   5.264   4.411   8.119  0.4800  0.0569 -0.8564
 7386TIP3    H246354   5.215   4.370   7.982  3.1721 -0.4248 -1.7360
 7387TIP3   OH246355   3.233   4.892   0.182 -0.1515 -0.3164 -0.9286
 7387TIP3    H146356   3.170   4.933   0.123  1.1860  1.8667 -0.9666
 7387TIP3    H246357   3.269   4.820   0.132  0.1381  0.8014 -2.3904
 7388TIP3   OH246358   0.877   5.176   3.346 -0.0692  0.4640 -0.4407
 7388TIP3    H146359   0.878   5.258   3.297 -1.8145  1.3086  0.8268
 7388TIP3    H246360   0.968   5.162   3.372  0.1792  2.3039 -0.2181
 7389TIP3   OH246361   0.816   7.275   0.534  0.3781 -0.2320  0.3902
 7389TIP3    H146362   0.867   7.353   0.516 -0.0812 -0.0093  0.0469
 7389TIP3    H246363   0.874   7.202   0.512  0.8787  0.0066  0.9055
 7390TIP3   OH246364   4.909   6.287   9.175 -0.0044 -0.4979  0.4748
 7390TIP3    H146365   4.816   6.267   9.184 -0.4443  2.0241  3.1437
 7390TIP3    H246366   4.954   6.220   9.227 -0.1910 -2.0861 -1.3191
 7391TIP3   OH246367   0.983   4.187   7.759 -0.3563 -0.4452  0.2409
 7391TIP3    H146368   1.015   4.231   7.838  0.3838  0.1891 -0.4014
 7391TIP3    H246369   1.030   4.104   7.757 -0.3790 -0.4655  0.4586
 7392TIP3   OH246370   4.064   2.911   8.675 -0.3501 -0.1604 -0.1359
 7392TIP3    H146371   4.019   2.880   8.596 -0.7703  3.0380 -1.2743
 7392TIP3    H246372   4.003   2.973   8.715  1.3702  1.1670  0.5564
 7393TIP3   OH246373   1.328   1.027   9.074 -0.6289 -0.8725 -0.0414
 7393TIP3    H146374   1.376   1.067   9.146  0.2552 -0.8469 -0.6372
 7393TIP3    H246375   1.279   0.955   9.115  0.1673 -1.1093  0.5138
 7394TIP3   OH246376   4.839   4.498   9.319  0.0043 -0.6751  0.1042
 7394TIP3    H146377   4.818   4.451   9.239 -1.1104 -0.7198  0.4106
 7394TIP3    H246378   4.816   4.589   9.299  0.3970 -0.5649  0.1434
 7395TIP3   OH246379   4.503   4.309   0.924  0.2540  0.4009 -0.0862
 7395TIP3    H146380   4.451   4.229   0.916  1.2894 -0.2173 -0.9643
 7395TIP3    H246381   4.440   4.380   0.916 -0.4497 -0.3304 -1.2593
 7396TIP3   OH246382   0.366   5.367   8.155 -0.0093 -0.7868  0.2776
 7396TIP3    H146383   0.363   5.311   8.077  0.4637 -2.2681  1.2751
 7396TIP3    H246384   0.439   5.332   8.206 -0.0592  0.4171  1.2071
 7397TIP3   OH246385   4.607   6.651   2.534 -0.0196  0.7295  0.2190
 7397TIP3    H146386   4.606   6.704   2.615  1.3167  1.1313  0.0080
 7397TIP3    H246387   4.687   6.679   2.489 -0.0577 -0.4461 -0.6116
 7398TIP3   OH246388   0.679   6.142   8.463 -0.2356  0.3330  0.0166
 7398TIP3    H146389   0.593   6.108   8.440 -0.3717  0.7105 -0.0507
 7398TIP3    H246390   0.727   6.067   8.497 -0.2520 -0.1004 -0.8765
 7399TIP3   OH246391   2.956   7.399   8.877  0.1137 -0.4423 -0.3294
 7399TIP3    H146392   2.893   7.413   8.948  0.1248  2.4285 -0.7811
 7399TIP3    H246393   2.932   7.313   8.841 -1.2271 -1.0285  1.7663
 7400TIP3   OH246394   2.110   5.420   8.693 -0.2509  0.2817 -0.0780
 7400TIP3    H146395   2.015   5.407   8.703 -0.0749 -0.8505  0.2686
 7400TIP3    H246396   2.122   5.436   8.600 -0.5635 -1.8219 -0.5267
 7401TIP3   OH246397   0.528   7.654   6.886  0.4451 -0.1932 -0.3202
 7401TIP3    H146398   0.576   7.723   6.840  1.8067 -0.2592  0.9197
 7401TIP3    H246399   0.490   7.600   6.817  1.0683  0.6211 -1.3264
 7402TIP3   OH246400   2.211   5.422   2.780  0.0300 -0.7721  0.1174
 7402TIP3    H146401   2.233   5.332   2.806 -1.2067 -0.9215  0.6710
 7402TIP3    H246402   2.292   5.471   2.795  0.6519 -1.7317  0.0355
 7403TIP3   OH246403   3.343   6.534   8.239  0.1193 -0.1225 -0.6817
 7403TIP3    H146404   3.260   6.576   8.261  0.2359 -0.9340  1.4646
 7403TIP3    H246405   3.319   6.463   8.179 -0.7379 -0.3708 -0.0559
 7404TIP3   OH246406   0.038   2.685   9.971  0.1715 -0.1759 -0.1011
 7404TIP3    H146407   0.087   2.688   9.889 -0.1659  0.7379 -0.2779
 7404TIP3    H246408   0.064   2.602  10.012  0.6074 -0.4693 -0.9616
 7405TIP3   OH246409   4.239   6.659   8.700 -0.3272  0.0158 -0.4842
 7405TIP3    H146410   4.325   6.625   8.724 -0.8659 -0.4860  0.8074
 7405TIP3    H246411   4.232   6.641   8.606  1.2987  0.8118 -0.8030
 7406TIP3   OH246412   2.168   0.687   2.233 -0.0218 -0.1116 -0.6186
 7406TIP3    H146413   2.259   0.679   2.205 -0.1520 -1.5024 -0.6920
 7406TIP3    H246414   2.135   0.598   2.234 -1.5547  0.4242 -1.1015
 7407TIP3   OH246415   2.284   0.520   6.802  0.0660  0.1073  0.1646
 7407TIP3    H146416   2.332   0.595   6.837  0.8295 -0.4510  0.3277
 7407TIP3    H246417   2.350   0.452   6.790 -0.5740 -0.4631 -0.2207
 7408TIP3   OH246418   3.091   4.457   2.087  0.0756  0.2650 -0.0560
 7408TIP3    H146419   3.004   4.439   2.123  0.7477 -0.6429  1.1760
 7408TIP3    H246420   3.122   4.533   2.136 -0.1641  0.8517 -0.7859
 7409TIP3   OH246421   4.566   6.614   7.281  0.2630  0.1066 -0.0251
 7409TIP3    H146422   4.655   6.623   7.315  0.5025  0.2085 -0.6682
 7409TIP3    H246423   4.526   6.700   7.297  0.5180  0.2995 -0.3985
 7410TIP3   OH246424   5.512   2.455   1.512  0.0559 -0.2241  0.2090
 7410TIP3    H146425   5.501   2.542   1.474 -0.1670 -0.0247  0.7272
 7410TIP3    H246426   5.427   2.435   1.551  0.4560 -0.1769  1.1268
 7411TIP3   OH246427   7.190   6.689   9.570  0.3058 -0.1517  0.0894
 7411TIP3    H146428   7.159   6.704   9.659  1.4942 -1.4251  0.7696
 7411TIP3    H246429   7.180   6.773   9.526 -0.7998  0.3581  1.2636
 7412TIP3   OH246430   2.374   7.513   9.062 -1.0278 -0.4397 -0.2829
 7412TIP3    H146431   2.373   7.432   9.112 -0.1366 -0.1678  0.1808
 7412TIP3    H246432   2.413   7.489   8.978  0.0825 -0.3088  0.1851
 7413TIP3   OH246433   2.171   3.425   2.157 -0.5786  0.5289 -0.2660
 7413TIP3    H146434   2.184   3.378   2.239 -1.8245 -0.9570 -0.8579
 7413TIP3    H246435   2.161   3.516   2.182 -1.3445  0.0437  1.2868
 7414TIP3   OH246436   3.286   6.133   8.894 -0.6994 -0.2879  0.5403
 7414TIP3    H146437   3.298   6.110   8.986  0.0437 -1.2840  0.2061
 7414TIP3    H246438   3.279   6.229   8.894 -0.2029 -0.2424  1.5837
 7415TIP3   OH246439   6.547   2.314   8.068 -0.3291  0.2942  0.0074
 7415TIP3    H146440   6.596   2.245   8.024  1.3823  1.2344  0.3763
 7415TIP3    H246441   6.515   2.273   8.148  0.0246 -0.2860 -0.1418
 7416TIP3   OH246442   7.527   4.033   9.258 -0.1188 -0.1760  0.1308
 7416TIP3    H146443   7.543   4.112   9.310  2.8390 -1.3719  1.2359
 7416TIP3    H246444   7.487   3.972   9.319 -0.2549 -0.3042 -0.0860
 7417TIP3   OH246445   7.490   6.373   8.384 -0.2224 -0.1861 -0.1872
 7417TIP3    H146446   7.487   6.291   8.334  2.2897 -0.9335  0.7525
 7417TIP3    H246447   7.539   6.352   8.463  0.6001  2.2543  0.0346
 7418TIP3   OH246448   3.220   4.849   6.409 -0.3168  0.0601 -0.2666
 7418TIP3    H146449   3.168   4.881   6.335  1.3700  0.8532 -1.1652
 7418TIP3    H246450   3.221   4.922   6.471 -0.4653 -0.0549 -0.1250
 7419TIP3   OH246451   7.568   6.719   2.338  0.8347  0.0964  0.2044
 7419TIP3    H146452   7.609   6.788   2.390 -0.6975  0.4858  0.9495
 7419TIP3    H246453   7.629   6.645   2.343  2.1467  1.1312  0.0092
 7420TIP3   OH246454   1.796   4.642   6.922 -0.5098 -0.2077 -0.0546
 7420TIP3    H146455   1.881   4.605   6.898 -0.0531  0.3663  0.6291
 7420TIP3    H246456   1.776   4.604   7.007 -0.0116  1.0929  0.6769
 7421TIP3   OH246457   3.710   5.057   8.607 -0.6231  0.0069 -0.3784
 7421TIP3    H146458   3.734   5.030   8.695 -0.4680  0.8144 -0.1642
 7421TIP3    H246459   3.640   4.997   8.582 -1.5260  0.5296  0.7777
 7422TIP3   OH246460   6.560   5.630   8.578  0.9385 -0.0218  0.1334
 7422TIP3    H146461   6.467   5.622   8.559  0.8251 -0.2757  0.7644
 7422TIP3    H246462   6.574   5.723   8.596  0.5847 -0.1434  1.1076
 7423TIP3   OH246463   7.256   7.546   0.867  0.2990 -0.4418  0.3875
 7423TIP3    H146464   7.318   7.503   0.925 -0.6836 -0.6500  1.3022
 7423TIP3    H246465   7.191   7.585   0.925  0.3647  1.0534 -0.4825
 7424TIP3   OH246466   1.741   1.665   0.762  0.2093  0.7687  0.1772
 7424TIP3    H146467   1.779   1.590   0.809 -1.1962  0.5975  1.0932
 7424TIP3    H246468   1.806   1.686   0.695  0.6775 -1.2431 -0.0797
 7425TIP3   OH246469   6.555   4.924   0.818  0.0185 -0.2845 -0.3613
 7425TIP3    H146470   6.586   4.900   0.906 -1.2939  0.2238  0.2578
 7425TIP3    H246471   6.622   4.985   0.786  0.0468  0.2544  0.6626
 7426TIP3   OH246472   2.462   7.226   1.703  0.6747 -0.4707 -0.2453
 7426TIP3    H146473   2.530   7.164   1.679 -0.2915 -1.5937 -0.1940
 7426TIP3    H246474   2.496   7.272   1.779  2.2841  0.5790 -1.5387
 7427TIP3   OH246475   3.698   0.442   0.082 -0.3495 -0.6015  0.2810
 7427TIP3    H146476   3.650   0.387   0.144 -0.0381  0.0509  1.1155
 7427TIP3    H246477   3.785   0.401   0.076 -0.5173 -0.9182 -0.0812
 7428TIP3   OH246478   3.595   5.604   6.786 -0.0287 -0.6605 -0.1466
 7428TIP3    H146479   3.541   5.591   6.864  1.4777 -2.2184  0.6988
 7428TIP3    H246480   3.544   5.563   6.715 -1.3950  0.7512 -0.0284
 7429TIP3   OH246481   6.084   3.975   2.296  0.4591 -0.1361  0.1699
 7429TIP3    H146482   6.007   3.994   2.243  1.1353  0.1129 -0.7436
 7429TIP3    H246483   6.079   3.881   2.313  1.5437 -0.7881 -2.5421
 7430TIP3   OH246484   6.511   5.054   9.261  0.2448  0.0187 -0.0012
 7430TIP3    H146485   6.570   5.069   9.335  1.1589  0.4674 -0.7932
 7430TIP3    H246486   6.492   5.141   9.227  1.5410 -0.2571 -1.5684
 7431TIP3   OH246487   0.486   0.545   0.292  0.1612  0.0575  0.7288
 7431TIP3    H146488   0.504   0.452   0.281 -1.1079 -0.1973  0.5749
 7431TIP3    H246489   0.451   0.573   0.207 -2.4589 -0.1012  1.6643
 7432TIP3   OH246490   4.229   2.573   0.153 -0.2525  0.3185  0.4729
 7432TIP3    H146491   4.177   2.494   0.170 -2.0754  1.1776 -0.7222
 7432TIP3    H246492   4.319   2.542   0.151 -0.7007 -1.3359  2.2268
 7433TIP3   OH246493   7.105   3.753   8.944 -0.2502  0.4102  0.5282
 7433TIP3    H146494   7.104   3.712   8.858  0.1604  0.9107  0.2798
 7433TIP3    H246495   7.195   3.786   8.953 -0.7749  1.9322  0.3957
 7434TIP3   OH246496   3.136   6.900   1.842  0.2522 -0.6782 -0.3066
 7434TIP3    H146497   3.177   6.901   1.928 -0.4657 -0.8234  0.0462
 7434TIP3    H246498   3.169   6.979   1.799 -2.9481  2.1281  1.8629
 7435TIP3   OH246499   6.288   1.299   1.394 -0.1177 -0.4404  0.1688
 7435TIP3    H146500   6.373   1.335   1.368 -0.2822  0.0245  0.2600
 7435TIP3    H246501   6.293   1.292   1.490  0.1517 -1.2796  0.0954
 7436TIP3   OH246502   4.425   6.150   8.342 -0.4903 -0.5063  0.5095
 7436TIP3    H146503   4.461   6.103   8.267 -0.3470  0.3941  0.0100
 7436TIP3    H246504   4.409   6.239   8.310 -0.8016 -0.2200  1.4316
 7437TIP3   OH246505   5.541   4.019   9.773  0.8400 -0.2066 -0.1404
 7437TIP3    H146506   5.582   3.946   9.727 -1.1742 -1.1790 -0.4884
 7437TIP3    H246507   5.475   4.052   9.713 -0.6758 -0.3770  1.3534
 7438TIP3   OH246508   6.159   2.454   7.862 -0.6980  0.5891  0.2280
 7438TIP3    H146509   6.107   2.489   7.790 -1.1824 -1.4956 -0.5147
 7438TIP3    H246510   6.237   2.508   7.865 -1.4056  1.7135 -0.7943
 7439TIP3   OH246511   5.024   2.200   1.072 -0.1632 -0.0266  0.2766
 7439TIP3    H146512   5.003   2.256   0.998  0.2332  1.4869  1.2714
 7439TIP3    H246513   4.943   2.153   1.091 -0.6031  0.4847 -0.3355
 7440TIP3   OH246514   5.294   4.944   8.681 -0.4369 -0.2381 -0.7504
 7440TIP3    H146515   5.234   4.930   8.608  0.1794 -1.3040 -1.0604
 7440TIP3    H246516   5.312   4.857   8.715  0.8993  0.0771 -0.6221
 7441TIP3   OH246517   2.456   6.999   9.180 -0.0469 -0.1502 -0.3746
 7441TIP3    H146518   2.514   6.934   9.139  0.2145 -1.7910  2.3041
 7441TIP3    H246519   2.375   6.994   9.131  0.4313 -1.5643 -1.0743
 7442TIP3   OH246520   2.616   7.250   9.255  0.1706 -0.1022  0.3888
 7442TIP3    H146521   2.586   7.289   9.337 -1.0961 -0.4557  0.1090
 7442TIP3    H246522   2.656   7.167   9.282 -1.8826 -1.1123  0.5306
 7443TIP3   OH246523   7.673   1.621   0.127  0.1223  0.5506 -0.6405
 7443TIP3    H146524   7.730   1.554   0.089 -1.1783 -0.9146 -0.0712
 7443TIP3    H246525   7.646   1.674   0.052  1.9661  1.1016 -0.9595
 7444TIP3   OH246526   2.204   6.132   2.687  0.5134 -0.0433  0.0463
 7444TIP3    H146527   2.219   6.226   2.697 -0.1368  0.0794 -0.0412
 7444TIP3    H246528   2.120   6.127   2.640  0.1755 -0.6721  0.7040
 7445TIP3   OH246529   1.578   2.380   2.591 -0.2125  0.0294 -0.0957
 7445TIP3    H146530   1.525   2.301   2.578 -0.2843  0.2879 -1.4978
 7445TIP3    H246531   1.516   2.446   2.620 -0.3605 -0.1240 -0.0614
 7446TIP3   OH246532   2.276   3.946   2.233  0.1956 -0.0947  0.3256
 7446TIP3    H146533   2.297   3.946   2.326  0.7189  0.1974  0.2150
 7446TIP3    H246534   2.326   3.873   2.197  1.0049  0.5695  0.0687
 7447TIP3   OH246535   4.158   1.223   8.990 -0.3889  0.6313 -0.0165
 7447TIP3    H146536   4.130   1.310   8.960 -1.5674  0.1944 -0.2094
 7447TIP3    H246537   4.097   1.162   8.949 -0.9687 -0.1365  1.8853
 7448TIP3   OH246538   1.776   0.176   1.187 -0.0522 -0.1340  0.2103
 7448TIP3    H146539   1.755   0.146   1.099  0.2874 -0.8114  0.3520
 7448TIP3    H246540   1.868   0.153   1.198  0.1333  0.6931  0.4418
 7449TIP3   OH246541   3.825   3.224   0.682  0.0180 -0.3579 -0.0566
 7449TIP3    H146542   3.750   3.213   0.740 -0.4149  1.6940 -0.1324
 7449TIP3    H246543   3.789   3.261   0.602  1.0341  0.3430 -0.2227
 7450TIP3   OH246544   0.493   3.392   0.616 -0.3479  0.4253 -0.2963
 7450TIP3    H146545   0.577   3.397   0.662 -0.6523 -1.4520  0.5413
 7450TIP3    H246546   0.429   3.417   0.683 -0.5590  0.8800 -0.6582
 7451TIP3   OH246547   5.941   7.419   0.332 -0.0577 -0.5655 -0.3282
 7451TIP3    H146548   5.972   7.395   0.419  0.6321 -1.0243 -0.6850
 7451TIP3    H246549   6.000   7.490   0.305 -0.6382 -0.0226 -0.1965
 7452TIP3   OH246550   4.010   6.609   0.910 -0.3416  0.1293  0.5324
 7452TIP3    H146551   4.065   6.566   0.844 -0.1440 -2.0421  1.9866
 7452TIP3    H246552   3.927   6.625   0.865  0.7058  1.4197 -1.0530
 7453TIP3   OH246553   6.915   1.172   0.852  0.0805 -0.2846 -0.9542
 7453TIP3    H146554   6.938   1.258   0.816 -0.6599  0.2614 -0.1692
 7453TIP3    H246555   6.928   1.181   0.946  0.3125 -1.1480 -0.8943
 7454TIP3   OH246556   5.094   0.851   9.320 -0.4972  0.5908  0.2374
 7454TIP3    H146557   5.127   0.780   9.265  0.9949  0.3893  1.3265
 7454TIP3    H246558   5.034   0.900   9.263  0.6115  0.1253 -1.4167
 7455TIP3   OH246559   2.225   0.487   7.280 -0.0011  0.0148  0.3419
 7455TIP3    H146560   2.170   0.413   7.306 -0.0894  0.1832  0.6484
 7455TIP3    H246561   2.288   0.451   7.218 -0.9587 -0.0247 -0.6376
 7456TIP3   OH246562   0.202   1.560   8.688 -0.5507 -0.6853  0.3522
 7456TIP3    H146563   0.171   1.599   8.770 -1.0788 -0.7276  0.1789
 7456TIP3    H246564   0.123   1.554   8.633 -0.0503  0.2203 -0.5177
 7457TIP3   OH246565   4.682   7.479   8.824  0.4957 -0.6767  0.1348
 7457TIP3    H146566   4.650   7.390   8.836 -1.2066  0.0643  1.4321
 7457TIP3    H246567   4.753   7.489   8.887 -1.0388 -0.3400  1.8837
 7458TIP3   OH246568   3.577   7.032   7.730 -0.3284 -0.2908  0.2125
 7458TIP3    H146569   3.655   7.079   7.699  0.3344 -0.6003  1.3530
 7458TIP3    H246570   3.539   6.994   7.651  1.0324 -0.6685 -0.2847
 7459TIP3   OH246571   2.575   0.019   0.827 -0.0312  0.3781  0.4034
 7459TIP3    H146572   2.644  -0.009   0.766  0.7913  0.2677  1.3510
 7459TIP3    H246573   2.591  -0.033   0.906  1.1180  2.9066  1.9770
 7460TIP3   OH246574   0.050   6.031   1.625 -0.8246  0.0772 -0.2838
 7460TIP3    H146575  -0.014   6.081   1.574 -0.9113  0.6057  0.3352
 7460TIP3    H246576   0.003   6.007   1.705 -0.2333  0.5293  0.2048
 7461TIP3   OH246577   3.041   0.300   1.325 -0.6041  0.4506 -0.7247
 7461TIP3    H146578   3.109   0.361   1.353 -0.4753 -0.4267  1.0804
 7461TIP3    H246579   3.006   0.337   1.244  0.8588  1.8046 -0.7806
 7462TIP3   OH246580   4.813   2.024   7.382 -0.5116  0.0981 -0.1189
 7462TIP3    H146581   4.757   2.100   7.365  1.7943  1.5511 -1.7695
 7462TIP3    H246582   4.901   2.060   7.388  0.4680 -2.2746  0.8142
 7463TIP3   OH246583   5.623   3.660   8.532  0.2048 -0.1069  0.0574
 7463TIP3    H146584   5.635   3.688   8.441 -0.8024 -0.5837 -0.2298
 7463TIP3    H246585   5.594   3.739   8.578  1.2582  0.2766  0.1048
 7464TIP3   OH246586   2.942   0.503   9.950 -0.3142  0.2920 -0.3819
 7464TIP3    H146587   2.852   0.485   9.977 -0.5280  0.6911 -0.8286
 7464TIP3    H246588   2.955   0.596   9.968 -0.1645  0.3571 -0.8232
 7465TIP3   OH246589   0.877   7.294   7.773 -0.1946 -0.2252  0.5442
 7465TIP3    H146590   0.783   7.301   7.754 -0.1280 -1.5273 -0.3695
 7465TIP3    H246591   0.887   7.339   7.857 -1.4137  1.0442  0.0501
 7466TIP3   OH246592   6.670   0.590   8.584  0.3423 -0.0901  0.0169
 7466TIP3    H146593   6.577   0.568   8.580  0.6187 -1.7161  1.4003
 7466TIP3    H246594   6.710   0.541   8.512  0.3083 -0.4730  0.2568
 7467TIP3   OH246595   3.381   6.208   7.557 -0.1072  0.4062 -0.5027
 7467TIP3    H146596   3.333   6.126   7.568 -0.8604  0.9592  0.4458
 7467TIP3    H246597   3.314   6.272   7.534  0.6459  0.5164 -2.6138
 7468TIP3   OH246598   6.067   4.674   9.631  0.2087 -0.1513 -0.0169
 7468TIP3    H146599   6.082   4.768   9.623  0.5789 -0.2890 -1.0096
 7468TIP3    H246600   5.981   4.667   9.673 -0.7569  0.6412 -1.7555
 7469TIP3   OH246601   5.703   3.091   2.331 -0.6631 -0.4534 -0.2970
 7469TIP3    H146602   5.613   3.060   2.335  0.0546 -2.7438 -0.3201
 7469TIP3    H246603   5.747   3.030   2.271  1.3049 -0.5575  1.1298
 7470TIP3   OH246604   5.883   5.237   8.687 -0.0673 -0.3910 -0.1340
 7470TIP3    H146605   5.899   5.283   8.604  2.1429 -1.1125 -0.1767
 7470TIP3    H246606   5.967   5.197   8.709 -0.4636  0.0893  2.6810
 7471TIP3   OH246607   4.444   1.682   0.861 -0.0228  0.4349  0.0616
 7471TIP3    H146608   4.379   1.676   0.791  1.0891  1.4650 -1.1036
 7471TIP3    H246609   4.526   1.655   0.819  0.2098 -1.6453  1.7083
 7472TIP3   OH246610   0.887   0.021   1.886  0.1958 -0.9501 -0.7279
 7472TIP3    H146611   0.844   0.102   1.859 -1.9644 -1.1103  1.7930
 7472TIP3    H246612   0.821  -0.047   1.870 -0.2369 -1.3680  2.2916
 7473TIP3   OH246613   6.387   3.746   9.482  0.2041  0.1613  0.0819
 7473TIP3    H146614   6.371   3.694   9.561 -0.3942 -0.7467 -0.6073
 7473TIP3    H246615   6.346   3.695   9.412  1.5026  0.4859 -0.9593
 7474TIP3   OH246616   2.450   1.722   2.203 -0.1960  0.5762  0.3413
 7474TIP3    H146617   2.467   1.646   2.147  1.6172  0.7013  0.6586
 7474TIP3    H246618   2.514   1.714   2.274 -0.1687  2.2332  0.5431
 7475TIP3   OH246619   5.193   2.137   0.371 -0.2172 -0.4770 -0.1749
 7475TIP3    H146620   5.124   2.071   0.363  0.7566 -1.3598 -2.0565
 7475TIP3    H246621   5.265   2.091   0.414  0.1480 -0.3882 -0.6810
 7476TIP3   OH246622   5.653   3.229   9.263 -0.5648  0.5614 -0.4957
 7476TIP3    H146623   5.689   3.161   9.319 -0.9902  0.9128  0.2093
 7476TIP3    H246624   5.730   3.278   9.233 -0.3777  0.7686  0.3004
 7477TIP3   OH246625   5.667   2.954   9.108  0.0830 -0.2053  0.1539
 7477TIP3    H146626   5.732   3.012   9.146  1.3179 -0.1952 -1.8260
 7477TIP3    H246627   5.690   2.867   9.140  0.6576 -0.1031  0.0253
 7478TIP3   OH246628   0.027   2.134   7.955 -0.0329  0.0213  0.1360
 7478TIP3    H146629   0.094   2.070   7.930  0.7461  1.4287 -1.7000
 7478TIP3    H246630  -0.020   2.093   8.028  1.0237 -2.2024 -0.3289
 7479TIP3   OH246631   5.729   6.760   0.802 -0.0364 -0.4849 -0.3035
 7479TIP3    H146632   5.734   6.835   0.861  2.9267 -2.1251  1.7892
 7479TIP3    H246633   5.684   6.693   0.853  1.6357 -1.5980 -0.2214
 7480TIP3   OH246634   5.257   4.305   0.552 -0.1010  0.2876  0.0485
 7480TIP3    H146635   5.289   4.219   0.580 -0.3066  0.4435  0.7875
 7480TIP3    H246636   5.183   4.286   0.495  1.6763 -0.1047 -2.2752
 7481TIP3   OH246637   5.322   2.703   8.179 -0.0121 -0.1904 -0.2147
 7481TIP3    H146638   5.318   2.750   8.096  0.5151  0.1091 -0.0792
 7481TIP3    H246639   5.310   2.771   8.245  0.4809 -0.2828 -0.0228
 7482TIP3   OH246640   3.388   6.492   8.626  0.1022  0.0513 -0.2620
 7482TIP3    H146641   3.449   6.551   8.670  1.2422  0.1988 -1.9492
 7482TIP3    H246642   3.434   6.408   8.623  0.2801  0.1743 -1.5945
 7483TIP3   OH246643   2.182   0.196   2.296 -0.5109 -0.4084 -0.3198
 7483TIP3    H146644   2.180   0.141   2.375  0.2993  0.8069  0.5835
 7483TIP3    H246645   2.144   0.141   2.228 -2.2838 -1.1203  1.1378
 7484TIP3   OH246646   0.378   7.633   8.266 -0.1698 -0.0626 -0.0850
 7484TIP3    H146647   0.464   7.597   8.244  0.7588  1.1529  1.3855
 7484TIP3    H246648   0.319   7.558   8.261  1.2276 -1.2245  0.2669
 7485TIP3   OH246649   1.800   5.344   6.350  0.1300 -0.1334  0.2163
 7485TIP3    H146650   1.880   5.355   6.400  0.3108  0.1634 -0.1332
 7485TIP3    H246651   1.740   5.409   6.386  0.1633 -0.1218  0.2499
 7486TIP3   OH246652   2.499   2.485   8.740 -0.0425 -0.6887 -0.1159
 7486TIP3    H146653   2.464   2.548   8.803 -1.2300  0.3565 -1.7379
 7486TIP3    H246654   2.584   2.460   8.776  2.1017  4.3483 -0.9446
 7487TIP3   OH246655   2.103   6.825   8.575 -0.3474  0.6726  0.5532
 7487TIP3    H146656   2.075   6.873   8.653  0.6520  0.6502  0.9354
 7487TIP3    H246657   2.182   6.870   8.545  1.4558 -1.4746  1.7253
 7488TIP3   OH246658   4.044   0.701   1.237  0.7058 -0.1368  0.2261
 7488TIP3    H146659   4.070   0.652   1.159  1.8056  1.1111 -0.2357
 7488TIP3    H246660   4.060   0.793   1.214  1.0276  0.2619  1.9176
 7489TIP3   OH246661   7.631   6.085   7.102  0.2420 -0.5122 -0.0264
 7489TIP3    H146662   7.656   6.120   7.188 -0.0978 -0.3692  0.0203
 7489TIP3    H246663   7.704   6.106   7.045  0.1442  0.0779  0.0565
 7490TIP3   OH246664   3.927   4.382   8.864  0.0304  0.5002  0.2235
 7490TIP3    H146665   3.962   4.296   8.887  0.7178  1.2630  2.2708
 7490TIP3    H246666   3.881   4.411   8.943  0.4750  2.3196 -0.1389
 7491TIP3   OH246667   0.322   3.704   8.924  0.0728 -0.3812 -0.0849
 7491TIP3    H146668   0.359   3.755   8.852  0.7481  1.5323  1.5316
 7491TIP3    H246669   0.372   3.622   8.922 -0.0826 -0.4880 -1.9002
 7492TIP3   OH246670   3.145   1.954   1.405  0.0755  0.0247 -0.0893
 7492TIP3    H146671   3.187   2.035   1.433 -1.7291  1.7143 -1.9406
 7492TIP3    H246672   3.215   1.902   1.366  1.2712  0.6470  1.1559
 7493TIP3   OH246673   7.164   5.360   8.719 -0.2115  0.1464 -0.0489
 7493TIP3    H146674   7.091   5.420   8.736 -1.5107 -0.2667 -3.4709
 7493TIP3    H246675   7.125   5.273   8.723 -0.0045 -0.0788 -1.9901
 7494TIP3   OH246676   4.970   1.422   1.425 -0.2000  0.0404  0.8762
 7494TIP3    H146677   4.997   1.423   1.516  0.0855 -0.9676  0.8183
 7494TIP3    H246678   5.046   1.455   1.377 -0.3898  0.6754  1.0043
 7495TIP3   OH246679   3.336   7.127   0.642  0.7752  0.0403  0.3043
 7495TIP3    H146680   3.344   7.177   0.723  0.5602  0.1609  0.2517
 7495TIP3    H246681   3.261   7.166   0.597  0.6062 -0.3347  0.2621
 7496TIP3   OH246682   4.017   3.059   1.971 -0.5518  0.5401 -0.1418
 7496TIP3    H146683   4.073   3.135   1.958 -1.9145  1.6540  0.1902
 7496TIP3    H246684   3.998   3.058   2.065 -0.3572 -0.3618 -0.1023
 7497TIP3   OH246685   0.359   6.557   8.738  0.0544 -0.2707 -0.3160
 7497TIP3    H146686   0.381   6.518   8.653 -1.1719 -0.8670 -0.3844
 7497TIP3    H246687   0.266   6.537   8.750  0.6114 -1.8303  2.0241
 7498TIP3   OH246688   0.509   7.087   9.747  0.3374  0.2888  0.4945
 7498TIP3    H146689   0.564   7.057   9.819  2.3456  0.9684 -0.6874
 7498TIP3    H246690   0.517   7.182   9.748 -0.8183  0.4021  0.2762
 7499TIP3   OH246691   1.743   7.185   1.416  0.6920  0.5797  0.2068
 7499TIP3    H146692   1.784   7.266   1.385  0.2179  0.8665  0.3230
 7499TIP3    H246693   1.765   7.120   1.349  1.9991  0.5321  0.6603
 7500TIP3   OH246694   4.938   4.816   8.074  0.4978 -0.2059 -0.3523
 7500TIP3    H146695   5.013   4.872   8.095  0.4285  1.2801 -3.4706
 7500TIP3    H246696   4.868   4.878   8.051 -1.6285 -1.5538  1.9579
 7501TIP3   OH246697   7.330   7.573   7.356  0.0191  0.2862 -0.3374
 7501TIP3    H146698   7.347   7.519   7.433 -1.8053  2.4786  1.7369
 7501TIP3    H246699   7.253   7.625   7.379 -0.6354  1.0216 -3.6885
 7502TIP3   OH246700   4.970   4.481   8.251 -0.4407 -0.3175 -0.1674
 7502TIP3    H146701   5.000   4.482   8.160 -0.5131 -0.2667 -0.1909
 7502TIP3    H246702   4.892   4.425   8.250 -1.3288  0.8728 -0.4212
 7503TIP3   OH246703   4.873   3.348   8.554 -0.0971  0.4297  0.0026
 7503TIP3    H146704   4.916   3.263   8.569  1.1353  0.8883 -0.7617
 7503TIP3    H246705   4.930   3.411   8.598 -1.4143  0.8159  1.2310
 7504TIP3   OH246706   0.426   1.719   0.679  0.2157 -0.3890 -0.0483
 7504TIP3    H146707   0.392   1.717   0.768 -0.5613 -0.3011 -0.3380
 7504TIP3    H246708   0.519   1.738   0.689  0.0327  0.1189  0.7158
 7505TIP3   OH246709   2.424   7.583   8.773  0.0011 -0.0589 -0.2591
 7505TIP3    H146710   2.487   7.526   8.729 -1.3273 -1.2231 -0.7393
 7505TIP3    H246711   2.348   7.527   8.789 -0.6007  1.0826  1.0485
 7506TIP3   OH246712   1.768   2.238   2.107 -0.2979 -0.8865  0.2539
 7506TIP3    H146713   1.761   2.154   2.152  0.5847 -1.5858 -0.8553
 7506TIP3    H246714   1.690   2.285   2.133 -0.3679 -1.6999  1.6073
 7507TIP3   OH246715   0.366   2.390   8.848  0.3750  0.3958 -0.2734
 7507TIP3    H146716   0.407   2.362   8.930 -0.7527 -1.5690 -0.3045
 7507TIP3    H246717   0.383   2.317   8.788 -0.4776  0.9535 -1.2083
 7508TIP3   OH246718   5.570   6.325   8.436  1.1342 -0.0084  0.0017
 7508TIP3    H146719   5.566   6.420   8.436  0.6778 -0.0130 -0.8891
 7508TIP3    H246720   5.620   6.303   8.357  1.7697 -0.4898  0.5326
 7509TIP3   OH246721   7.061   3.084   8.180 -0.1195 -0.0188 -0.6873
 7509TIP3    H146722   7.076   2.990   8.176  0.6014 -0.0261  1.1498
 7509TIP3    H246723   7.091   3.117   8.096  0.6673 -1.2955 -0.9272
 7510TIP3   OH246724   3.805   6.400   8.294  0.5839 -0.1885  0.0151
 7510TIP3    H146725   3.871   6.373   8.358  1.1792  0.9556 -0.0799
 7510TIP3    H246726   3.733   6.433   8.348  1.2185  1.0792  0.1322
 7511TIP3   OH246727   1.220   5.934   0.292  0.2372  0.6120  0.0110
 7511TIP3    H146728   1.170   6.014   0.309 -1.2052 -0.4593  1.1653
 7511TIP3    H246729   1.197   5.910   0.202 -0.6813  0.6009  0.2376
 7512TIP3   OH246730   3.067   0.249   9.520  0.4009  0.2180  0.0155
 7512TIP3    H146731   3.046   0.172   9.574  3.1074 -0.9795 -0.4313
 7512TIP3    H246732   3.151   0.279   9.554  0.0015  2.2429 -0.6631
 7513TIP3   OH246733   4.462   2.470   1.254 -0.1972 -0.1168  0.2060
 7513TIP3    H146734   4.505   2.399   1.205  0.1761 -0.7593  1.4197
 7513TIP3    H246735   4.532   2.533   1.271 -0.7743  1.2118 -1.9353
 7514TIP3   OH246736   6.296   7.265   9.558  1.1699  0.2623 -0.1162
 7514TIP3    H146737   6.267   7.199   9.621  0.2034  0.8152  0.0424
 7514TIP3    H246738   6.316   7.216   9.479  1.9911 -0.3927  0.4913
 7515TIP3   OH246739   2.173   7.597   2.813 -0.0855 -0.5347  0.4967
 7515TIP3    H146740   2.181   7.549   2.731  1.6701  0.5099  0.0055
 7515TIP3    H246741   2.125   7.677   2.791 -0.0934 -0.5067  0.6118
 7516TIP3   OH246742   0.161   6.118   9.790 -0.1452  0.2504 -0.3863
 7516TIP3    H146743   0.125   6.107   9.878  0.3485 -0.3802 -0.2614
 7516TIP3    H246744   0.189   6.031   9.764  0.8411  0.6496 -0.6889
 7517TIP3   OH246745   3.469   6.969   7.483 -0.2595  0.4097  0.0433
 7517TIP3    H146746   3.392   7.005   7.440  0.3719  0.3407 -1.1689
 7517TIP3    H246747   3.450   6.875   7.490 -0.9244  0.6061  1.1441
 7518TIP3   OH246748   0.140   2.172   0.902  0.2277  0.1432 -0.4158
 7518TIP3    H146749   0.145   2.101   0.965  1.5306  0.4659 -0.1241
 7518TIP3    H246750   0.127   2.129   0.818 -0.9535 -0.3218 -0.0059
 7519TIP3   OH246751   6.692   2.269   8.624  0.8455  0.4347 -0.1554
 7519TIP3    H146752   6.726   2.300   8.540 -1.1225  0.7068 -0.9250
 7519TIP3    H246753   6.716   2.337   8.687  0.2706  1.4387 -0.9895
 7520TIP3   OH246754   1.460   6.929   1.381  0.4331  0.2385 -0.3886
 7520TIP3    H146755   1.537   6.936   1.324  2.0758  0.0436  1.6958
 7520TIP3    H246756   1.454   6.836   1.403  0.0258  0.3582  0.0339
 7521TIP3   OH246757   4.671   2.217   2.230  0.6993  0.4578 -0.0528
 7521TIP3    H146758   4.733   2.222   2.303  1.1320 -0.6348 -0.3190
 7521TIP3    H246759   4.591   2.255   2.264  0.5872 -0.9030  1.3419
 7522TIP3   OH246760   2.994   2.506   7.024  0.2115 -0.1548 -0.3655
 7522TIP3    H146761   2.956   2.437   7.077 -0.0719  1.6617  1.9258
 7522TIP3    H246762   2.920   2.560   6.997  0.5852  0.1184 -0.8811
 7523TIP3   OH246763   4.871   5.627   1.865  0.2267  0.0479 -0.4125
 7523TIP3    H146764   4.920   5.569   1.806  1.0544 -0.9410  1.1663
 7523TIP3    H246765   4.865   5.578   1.947 -1.4807  1.0948  0.1458
 7524TIP3   OH246766   0.033   1.941   0.999  0.3649  0.4425 -0.6065
 7524TIP3    H146767   0.082   1.900   0.927 -0.3371 -0.6789 -0.4735
 7524TIP3    H246768  -0.027   1.873   1.028 -1.7787  2.0036 -1.1930
 7525TIP3   OH246769   2.998   3.086   1.561 -0.3960 -0.0581  0.3296
 7525TIP3    H146770   2.959   3.142   1.493  1.9013  1.2384 -0.0273
 7525TIP3    H246771   2.984   3.134   1.643  0.4002  0.4262  0.1963
 7526TIP3   OH246772   3.344   0.939   1.670  0.3136  0.2148  0.1646
 7526TIP3    H146773   3.314   0.979   1.752 -0.1379 -0.4717  0.3334
 7526TIP3    H246774   3.436   0.919   1.685  0.3091  0.3689  0.3944
 7527TIP3   OH246775   7.183   0.613   0.412  0.3341 -0.1549  0.0061
 7527TIP3    H146776   7.254   0.549   0.413 -1.1524 -1.9029  0.0335
 7527TIP3    H246777   7.105   0.561   0.392 -0.5576  2.0971 -3.0244
 7528TIP3   OH246778   3.365   5.680   8.523  0.3033 -0.6654  0.3737
 7528TIP3    H146779   3.359   5.649   8.433  0.2597  0.4215 -0.0042
 7528TIP3    H246780   3.427   5.753   8.519  0.9114 -1.1027  1.3636
 7529TIP3   OH246781   1.182   7.250   7.989 -0.5285  0.2888 -0.0664
 7529TIP3    H146782   1.261   7.290   8.026  0.3390  0.0513 -1.5821
 7529TIP3    H246783   1.210   7.162   7.963 -1.3466  0.1452 -0.4625
 7530TIP3   OH246784   2.049   6.696   2.580 -0.1166 -0.3932  0.0437
 7530TIP3    H146785   1.988   6.624   2.599 -0.2900  0.2316  2.2181
 7530TIP3    H246786   2.113   6.691   2.651  1.8921 -0.4676 -1.6952
 7531TIP3   OH246787   1.571   7.504   0.053  0.5680  0.1731 -0.6133
 7531TIP3    H146788   1.559   7.578  -0.005  2.2401  0.4794 -0.6136
 7531TIP3    H246789   1.666   7.489   0.055  0.4876 -0.4033  1.3076
 7532TIP3   OH246790   5.815   4.632   9.732 -0.0535  0.2693 -0.0937
 7532TIP3    H146791   5.744   4.681   9.774 -1.5549 -0.6306 -1.4798
 7532TIP3    H246792   5.781   4.609   9.646  2.3551  0.7429 -1.2603
 7533TIP3   OH246793   2.135   0.363   1.661 -0.3511 -0.9387 -0.5533
 7533TIP3    H146794   2.171   0.310   1.590 -0.4818 -1.0493 -0.5384
 7533TIP3    H246795   2.048   0.387   1.630 -0.7401 -1.6848 -0.0860
 7534TIP3   OH246796   4.991   4.818   9.474 -0.1853  0.1106  0.6966
 7534TIP3    H146797   4.935   4.772   9.412  2.7118 -3.7427  0.5806
 7534TIP3    H246798   4.977   4.771   9.557  1.7648 -0.0568  0.9658
 7535TIP3   OH246799   3.319   6.105   9.165  0.4792 -0.4153  0.3454
 7535TIP3    H146800   3.272   6.024   9.182 -1.5969  0.7432  0.4007
 7535TIP3    H246801   3.263   6.174   9.201  1.2023  1.1978 -1.4482
 7536TIP3   OH246802   0.186   0.567   9.649  0.0607  0.0574  0.1762
 7536TIP3    H146803   0.209   0.492   9.594 -1.7786 -0.1499 -0.3949
 7536TIP3    H246804   0.132   0.622   9.592  0.2089  1.1038  1.0245
 7537TIP3   OH246805   5.290   0.227   9.620  0.2535 -0.8765  0.3055
 7537TIP3    H146806   5.317   0.200   9.708 -1.0789 -1.8300  0.4666
 7537TIP3    H246807   5.215   0.285   9.635  0.1011 -0.9446 -0.1914
 7538TIP3   OH246808   4.907   3.857   0.106 -0.3772  0.0085 -0.4160
 7538TIP3    H146809   4.951   3.792   0.050 -0.9245 -1.2337  0.5344
 7538TIP3    H246810   4.966   3.867   0.181 -0.3319  0.5572 -0.5267
 7539TIP3   OH246811   2.585   0.437   7.611 -0.1314  0.1751  0.1905
 7539TIP3    H146812   2.496   0.407   7.593 -0.8019  0.9407  2.0347
 7539TIP3    H246813   2.636   0.356   7.619 -0.3595 -0.2565 -2.0110
 7540TIP3   OH246814   4.596   6.351   0.876  0.1164  0.2023  0.6279
 7540TIP3    H146815   4.631   6.277   0.825  1.5871 -0.3131  2.2938
 7540TIP3    H246816   4.507   6.361   0.844  1.3241  0.8313 -3.0204
 7541TIP3   OH246817   1.898   4.382   9.519  0.8214 -0.2949 -0.6911
 7541TIP3    H146818   1.948   4.405   9.597  0.0228 -1.1143  0.0851
 7541TIP3    H246819   1.862   4.296   9.539 -0.3269 -0.0144 -1.5090
 7542TIP3   OH246820   0.591   2.105   8.184 -0.3719  0.5010  0.7044
 7542TIP3    H146821   0.649   2.176   8.157 -0.1353  0.2927  0.6627
 7542TIP3    H246822   0.514   2.115   8.129 -0.7810  1.3530  1.4057
 7543TIP3   OH246823   3.032   1.851   7.879  0.2532  0.2332 -0.5018
 7543TIP3    H146824   2.948   1.851   7.833  0.1371  2.4063 -0.3901
 7543TIP3    H246825   3.097   1.865   7.810  0.4223 -0.1265 -0.4201
 7544TIP3   OH246826   0.048   0.566   8.529 -0.6078  0.2452  0.1679
 7544TIP3    H146827   0.033   0.472   8.536 -2.4119  0.4556 -0.3188
 7544TIP3    H246828   0.091   0.578   8.445 -0.7017 -0.1224  0.0669
 7545TIP3   OH246829   7.258   3.117   1.900 -0.1706 -0.2180 -0.0706
 7545TIP3    H146830   7.211   3.041   1.866 -1.2779  0.6838 -0.6272
 7545TIP3    H246831   7.340   3.081   1.934 -0.4398 -1.5864 -0.7822
 7546TIP3   OH246832   5.678   4.578   9.474 -0.3609  0.5058  0.4788
 7546TIP3    H146833   5.713   4.489   9.485 -1.0432  0.2122  0.3477
 7546TIP3    H246834   5.707   4.604   9.387 -1.2906 -0.1268 -0.0359
 7547TIP3   OH246835   7.260   0.231   8.585 -0.2641 -0.7949 -0.6145
 7547TIP3    H146836   7.309   0.303   8.547  1.8216 -1.4066  0.7667
 7547TIP3    H246837   7.188   0.216   8.524 -0.5425  2.1467 -1.1524
 7548TIP3   OH246838   5.658   5.943   8.591 -0.2719 -0.0285 -0.2052
 7548TIP3    H146839   5.641   5.984   8.676  2.7064  1.4739 -0.1930
 7548TIP3    H246840   5.712   5.867   8.612  1.4699  0.9976 -0.7227
 7549TIP3   OH246841   4.018   4.810   1.902 -0.1917 -0.2041  0.3945
 7549TIP3    H146842   4.069   4.861   1.965  0.1706 -0.4150  0.2796
 7549TIP3    H246843   4.061   4.724   1.901  0.4860  0.1194 -0.9431
 7550TIP3   OH246844   1.329   3.414   8.017  0.1163 -0.1069 -0.0399
 7550TIP3    H146845   1.294   3.394   8.104  1.1277  0.7077  0.5626
 7550TIP3    H246846   1.296   3.502   7.998  1.1716  0.3527  0.2039
 7551TIP3   OH246847   6.715   5.863   0.259 -0.2411 -0.1576 -0.0392
 7551TIP3    H146848   6.716   5.853   0.354 -0.4622 -3.3791 -0.2388
 7551TIP3    H246849   6.794   5.912   0.238 -0.3378  0.8523  1.8141
 7552TIP3   OH246850   5.212   0.094   0.475 -0.4728 -0.5705  0.4854
 7552TIP3    H146851   5.274   0.162   0.503 -0.7393  0.6539 -1.6768
 7552TIP3    H246852   5.139   0.143   0.436 -1.5660 -2.0742  0.5584
 7553TIP3   OH246853   1.227   0.052   8.650 -0.2011  0.2302 -0.4113
 7553TIP3    H146854   1.186   0.107   8.584  2.4268  1.0944 -1.4636
 7553TIP3    H246855   1.272   0.114   8.708 -1.9648 -0.5447  1.9382
 7554TIP3   OH246856   4.444   6.044   0.196  0.0332  0.3836 -0.4614
 7554TIP3    H146857   4.490   6.126   0.178  0.5437 -0.0777 -1.3318
 7554TIP3    H246858   4.513   5.983   0.223 -0.2358  0.0494 -0.5170
 7555TIP3   OH246859   3.471   2.431   9.044 -0.1414 -0.6681 -0.4774
 7555TIP3    H146860   3.424   2.348   9.037 -0.4345 -0.6194  0.5898
 7555TIP3    H246861   3.547   2.411   9.099  0.7988 -0.6149 -1.7131
 7556TIP3   OH246862   2.095   1.203   8.583 -0.2135 -0.0778 -0.0383
 7556TIP3    H146863   2.134   1.290   8.595 -2.4479  1.7658 -3.9906
 7556TIP3    H246864   2.002   1.221   8.571 -0.5743 -2.8284 -2.2787
 7557TIP3   OH246865   1.161   7.278   7.122 -0.3824 -0.3266  0.2252
 7557TIP3    H146866   1.092   7.286   7.056  0.1241  0.4499 -0.2220
 7557TIP3    H246867   1.197   7.366   7.130  0.2708 -0.6356  0.7715
 7558TIP3   OH246868   3.180   0.220   9.158 -0.0963 -0.6743  0.1844
 7558TIP3    H146869   3.228   0.213   9.076  2.1660  0.3736  1.3331
 7558TIP3    H246870   3.102   0.271   9.136  0.1775 -0.8747 -1.3897
 7559TIP3   OH246871   5.134   3.612   8.925 -0.4067  0.0850  0.0390
 7559TIP3    H146872   5.129   3.706   8.947  0.6943  0.2134 -0.2019
 7559TIP3    H246873   5.225   3.598   8.900 -0.7800 -0.8587 -0.8660
 7560TIP3   OH246874   3.340   3.282   1.491  0.3114 -0.2089  0.7582
 7560TIP3    H146875   3.421   3.308   1.448 -1.6265  2.0889 -1.9185
 7560TIP3    H246876   3.356   3.299   1.584  3.6029 -2.2159  0.7018
 7561TIP3   OH246877   7.134   7.327   0.146  1.2154 -0.6230 -0.3247
 7561TIP3    H146878   7.064   7.325   0.080  1.3510 -1.3574 -0.4612
 7561TIP3    H246879   7.104   7.390   0.212  0.5392 -0.7528 -0.5037
 7562TIP3   OH246880   1.643   1.407   2.916 -0.6200  0.2109 -0.1688
 7562TIP3    H146881   1.595   1.449   2.988 -2.1804  0.6149 -1.3903
 7562TIP3    H246882   1.707   1.473   2.889 -1.8970  1.1549 -0.9439
 7563TIP3   OH246883   5.202   7.209   1.393 -0.1704  0.0901  0.4207
 7563TIP3    H146884   5.176   7.153   1.319 -1.1414 -0.9215  1.4916
 7563TIP3    H246885   5.145   7.182   1.465  0.1752  1.6396  1.3229
 7564TIP3   OH246886   1.836   3.804   8.425 -0.1025 -0.2982  0.3772
 7564TIP3    H146887   1.770   3.735   8.435  0.8793 -1.1124  1.4504
 7564TIP3    H246888   1.814   3.846   8.341  0.2966 -3.0581 -1.2368
 7565TIP3   OH246889   1.603   0.875   7.854 -0.1690 -0.1490  0.1005
 7565TIP3    H146890   1.623   0.793   7.898 -2.8436  0.5683  2.9771
 7565TIP3    H246891   1.537   0.852   7.789 -0.6710 -0.3632  0.6757
 7566TIP3   OH246892   1.111   4.013   9.699  0.6702  0.2681 -0.0134
 7566TIP3    H146893   1.121   3.918   9.694 -0.2584  0.0047  2.2309
 7566TIP3    H246894   1.142   4.045   9.614  1.9518 -1.9413 -0.4415
 7567TIP3   OH246895   0.861   0.593   0.654 -0.7121 -0.3221 -0.0676
 7567TIP3    H146896   0.855   0.622   0.745 -1.3532 -0.4811 -0.0590
 7567TIP3    H246897   0.884   0.672   0.605 -1.0197 -0.0988  0.1465
 7568TIP3   OH246898   0.750   0.231   7.696 -0.2568 -0.3278  0.3253
 7568TIP3    H146899   0.829   0.210   7.747  0.1231 -0.8870 -0.4616
 7568TIP3    H246900   0.707   0.147   7.682  0.9989 -0.6398 -2.4115
 7569TIP3   OH246901   2.327   0.412   7.542  0.4276 -0.1157  0.7188
 7569TIP3    H146902   2.292   0.445   7.459  1.4798  0.5211  0.5055
 7569TIP3    H246903   2.260   0.435   7.607 -0.5918 -0.9933 -0.0037
 7570TIP3   OH246904   5.274   4.789   8.334  0.1424  0.0702 -0.5189
 7570TIP3    H146905   5.219   4.792   8.413 -1.2265 -1.7762 -1.3164
 7570TIP3    H246906   5.361   4.765   8.366  0.2111  1.6543  0.6238
 7571TIP3   OH246907   7.485   0.035   1.119 -0.1592 -0.5683  0.3862
 7571TIP3    H146908   7.535   0.021   1.200  0.8603  0.6841  0.0043
 7571TIP3    H246909   7.492  -0.048   1.072 -0.1616 -1.0719  1.2446
 7572TIP3   OH246910   1.142   2.297   9.782  0.4556  0.1018 -0.8630
 7572TIP3    H146911   1.188   2.255   9.710  1.8333  1.8246 -1.0573
 7572TIP3    H246912   1.132   2.388   9.754 -0.9034  0.3301  0.2383
 7573TIP3   OH246913   1.812   7.431   8.936 -0.0117 -0.1311  0.3782
 7573TIP3    H146914   1.731   7.482   8.943  1.4013  2.1731  1.1621
 7573TIP3    H246915   1.851   7.436   9.023  1.0190 -1.1467  0.0019
 7574TIP3   OH246916   6.706   0.246   1.469 -0.1939 -0.7802 -0.2657
 7574TIP3    H146917   6.797   0.229   1.444  0.3584  0.1200  1.0538
 7574TIP3    H246918   6.707   0.255   1.564 -1.1188  2.2104 -0.4214
 7575TIP3   OH246919   1.699   6.696   2.488  0.2282  0.2328  0.6570
 7575TIP3    H146920   1.709   6.760   2.558  0.4888 -1.1974  1.9757
 7575TIP3    H246921   1.720   6.612   2.528 -0.8087 -0.7942 -0.8221
 7576TIP3   OH246922   0.500   6.041   6.963 -0.8052 -0.4684 -0.3596
 7576TIP3    H146923   0.526   6.010   6.877 -1.2839 -0.5917 -0.4670
 7576TIP3    H246924   0.430   6.104   6.946 -0.7425 -0.3190 -0.0743
 7577TIP3   OH246925   7.245   7.194   7.601  0.1895 -0.2322  0.0604
 7577TIP3    H146926   7.227   7.169   7.692  1.0922  0.5512  0.4802
 7577TIP3    H246927   7.243   7.112   7.553 -0.6276 -0.6235  0.7234
 7578TIP3   OH246928   3.676   3.332   0.432  0.1191 -0.7319 -0.0807
 7578TIP3    H146929   3.626   3.250   0.437  0.7383 -1.2706 -1.9363
 7578TIP3    H246930   3.609   3.400   0.432 -0.7107 -1.4417 -2.3909
 7579TIP3   OH246931   7.162   1.376   7.961 -0.1994 -0.1637  0.4200
 7579TIP3    H146932   7.243   1.403   8.004  0.9027 -1.8555 -0.4868
 7579TIP3    H246933   7.101   1.357   8.033  0.4135  0.4741  1.1193
 7580TIP3   OH246934   0.709   3.021   8.692 -0.4694  0.3710 -0.1829
 7580TIP3    H146935   0.622   3.062   8.690 -0.9280 -0.5939 -1.6225
 7580TIP3    H246936   0.769   3.092   8.713 -1.3103  1.6512 -1.8939
 7581TIP3   OH246937   0.558   2.341   9.268 -0.3934  0.6429 -0.4752
 7581TIP3    H146938   0.600   2.348   9.353 -0.2929  0.9274 -0.5473
 7581TIP3    H246939   0.606   2.271   9.223  0.6071  1.5699 -0.8937
 7582TIP3   OH246940   3.799   4.928   7.928 -0.1297 -0.7399 -0.2534
 7582TIP3    H146941   3.846   5.011   7.924  0.2436 -0.9568 -0.4814
 7582TIP3    H246942   3.808   4.891   7.840 -1.3790 -0.4384 -0.5274
 7583TIP3   OH246943   3.005   7.363   9.327 -0.3964 -1.0335  0.2651
 7583TIP3    H146944   3.097   7.361   9.353  0.3218 -1.7814 -2.1039
 7583TIP3    H246945   2.984   7.456   9.321  0.0584 -0.8575  1.2838
 7584TIP3   OH246946   3.523   5.548   2.508  0.0121 -0.2906  0.1510
 7584TIP3    H146947   3.498   5.640   2.507  2.0925  0.3302  0.2990
 7584TIP3    H246948   3.470   5.509   2.578 -1.6825  0.5105 -0.6316
 7585TIP3   OH246949   2.128   1.159   2.747  0.2898  0.3421  0.0522
 7585TIP3    H146950   2.219   1.165   2.716 -0.1295  1.2954 -1.0932
 7585TIP3    H246951   2.111   1.244   2.787  0.3733 -0.3932  1.7167
 7586TIP3   OH246952   5.415   1.782   9.956 -0.1754 -0.5382 -0.1106
 7586TIP3    H146953   5.482   1.788   9.888 -1.9283  1.2427 -1.8040
 7586TIP3    H246954   5.450   1.833  10.028  0.4135  0.1590 -0.8707
 7587TIP3   OH246955   3.008   2.979   9.581 -0.2819  0.5941 -0.5898
 7587TIP3    H146956   3.007   2.967   9.486  0.4738 -1.5294 -0.3683
 7587TIP3    H246957   2.973   2.897   9.616 -0.9456  1.5056  0.9763
 7588TIP3   OH246958   1.658   6.321   2.481 -0.4687  0.5792 -0.3747
 7588TIP3    H146959   1.578   6.359   2.444 -1.1395  0.0196  0.4564
 7588TIP3    H246960   1.627   6.263   2.551  0.4485 -1.9303 -1.9213
 7589TIP3   OH246961   2.660   3.845   1.369 -0.1399 -0.3370 -0.1340
 7589TIP3    H146962   2.629   3.913   1.430 -2.7002 -0.8124 -0.8001
 7589TIP3    H246963   2.659   3.888   1.284  0.5448 -0.5503 -0.2559
 7590TIP3   OH246964   1.863   5.633   8.216 -0.0040 -0.2594  0.4458
 7590TIP3    H146965   1.921   5.581   8.160  1.1556  1.4408 -0.0083
 7590TIP3    H246966   1.775   5.616   8.183  0.4749 -0.8666 -0.5525
 7591TIP3   OH246967   0.543   0.501   8.750  0.1899  0.4303  0.3708
 7591TIP3    H146968   0.450   0.516   8.732  0.4835  1.7074 -0.2365
 7591TIP3    H246969   0.545   0.472   8.841 -0.7471  1.3346  0.7068
 7592TIP3   OH246970   7.402   2.496   9.580 -0.2361 -0.3397  0.3104
 7592TIP3    H146971   7.354   2.447   9.648  0.6261 -0.8762  0.5553
 7592TIP3    H246972   7.436   2.573   9.626  0.7270 -0.9312  0.6167
 7593TIP3   OH246973   4.353   0.246   2.250 -0.1750  0.1207 -0.0930
 7593TIP3    H146974   4.281   0.220   2.308  1.5641 -3.2056  0.7969
 7593TIP3    H246975   4.415   0.291   2.307  0.1842 -0.4892  0.0054
 7594TIP3   OH246976   6.675   5.370   8.558 -0.1333  0.2130  0.6303
 7594TIP3    H146977   6.711   5.367   8.469 -1.4029 -0.9334  0.1167
 7594TIP3    H246978   6.612   5.442   8.556  0.2146  0.5265  0.7697
 7595TIP3   OH246979   1.947   6.538   2.869  0.1919  0.5848 -0.2853
 7595TIP3    H146980   1.854   6.553   2.887  0.1509 -1.5416  1.9113
 7595TIP3    H246981   1.989   6.622   2.887 -0.9637  0.7519  2.0787
 7596TIP3   OH246982   3.689   6.250   8.711 -0.3774 -0.0356  0.7708
 7596TIP3    H146983   3.739   6.182   8.755 -1.2244  0.1639  2.1127
 7596TIP3    H246984   3.746   6.327   8.713 -0.0004 -0.3096  0.5980
 7597TIP3   OH246985   2.002   0.673   8.900 -0.2673  0.1752 -0.0396
 7597TIP3    H146986   1.967   0.761   8.882  0.1657  0.9584  2.5556
 7597TIP3    H246987   2.088   0.689   8.939  0.1964 -1.4705 -0.3004
 7598TIP3   OH246988   5.067   2.606   0.966 -0.0139 -0.2556  0.1340
 7598TIP3    H146989   5.108   2.667   0.904  1.4090 -1.6888 -0.4382
 7598TIP3    H246990   5.125   2.606   1.042 -1.5532  1.2086  1.3795
 7599TIP3   OH246991   4.418   3.240   2.252  0.0772 -0.0058  0.0143
 7599TIP3    H146992   4.373   3.163   2.215  1.0227 -0.3449 -0.4674
 7599TIP3    H246993   4.371   3.258   2.333 -0.6801 -0.5914 -0.2788
 7600TIP3   OH246994   0.702   0.771   0.237  0.5696  0.7881  0.5646
 7600TIP3    H146995   0.634   0.808   0.181  0.6782  0.7269  0.3902
 7600TIP3    H246996   0.659   0.699   0.283  1.2276 -1.2628 -1.7792
 7601TIP3   OH246997   5.272   5.982   0.082  0.2469 -0.1232  0.0212
 7601TIP3    H146998   5.351   5.987   0.135  1.2952 -0.6400 -1.4339
 7601TIP3    H246999   5.287   6.043   0.010 -0.2839 -0.8944 -0.7652
 7602TIP3   OH247000   0.776   1.771   7.327  0.1958  0.0922 -0.0312
 7602TIP3    H147001   0.750   1.842   7.268  0.4795 -1.5707 -2.2804
 7602TIP3    H247002   0.865   1.794   7.355 -0.2429  1.3042  0.4579
 7603TIP3   OH247003   1.124   1.475   7.505  0.4126 -0.1786 -0.3976
 7603TIP3    H147004   1.217   1.454   7.492  0.3295 -0.5681 -0.3665
 7603TIP3    H247005   1.082   1.448   7.424  0.2065 -0.7337 -0.1110
 7604TIP3   OH247006   4.168   1.294   9.606 -0.1792 -0.1408 -0.1608
 7604TIP3    H147007   4.189   1.230   9.674  0.4683 -0.6459 -0.8293
 7604TIP3    H247008   4.104   1.250   9.550  0.6329 -0.3876 -0.9001
 7605TIP3   OH247009   3.156   5.880   9.117  0.4758 -0.0168 -0.2615
 7605TIP3    H147010   3.102   5.952   9.083  0.6916  1.3901  2.1408
 7605TIP3    H247011   3.151   5.812   9.050 -1.8047  1.2537 -1.4899
 7606TIP3   OH247012   5.524   1.537   9.534  0.2848  0.3844  0.3008
 7606TIP3    H147013   5.436   1.570   9.550 -0.5119 -1.2253 -0.5496
 7606TIP3    H247014   5.539   1.552   9.441  1.4673  1.8379  0.6843
 7607TIP3   OH247015   0.565   7.030   0.061 -0.5865 -0.0255 -0.2095
 7607TIP3    H147016   0.639   7.056   0.115 -1.4472 -1.2499  1.6732
 7607TIP3    H247017   0.605   6.987  -0.015  0.6545  0.3614  0.2022
 7608TIP3   OH247018   2.789   4.598   0.941 -0.0542  0.0429  0.1693
 7608TIP3    H147019   2.821   4.555   0.862  1.3087  0.3796  0.5100
 7608TIP3    H247020   2.696   4.612   0.925  0.1156 -0.2724 -1.1977
 7609TIP3   OH247021   4.013   7.601   7.423 -0.0837  0.3683 -0.5411
 7609TIP3    H147022   4.105   7.576   7.414 -0.3565 -0.7476 -0.3048
 7609TIP3    H247023   3.974   7.532   7.476 -0.2901  2.5881  2.4700
 7610TIP3   OH247024   6.876   1.266   8.590 -0.2805  0.0890 -0.3437
 7610TIP3    H147025   6.822   1.187   8.599  0.4625 -0.3795  0.1046
 7610TIP3    H247026   6.912   1.261   8.502 -0.5125  0.1095 -0.4407
 7611TIP3   OH247027   4.489   5.462   2.604  0.1744  0.1561 -0.1131
 7611TIP3    H147028   4.441   5.539   2.632  0.4894  0.3666 -0.1496
 7611TIP3    H247029   4.534   5.489   2.524 -1.8928 -0.8528 -1.7246
 7612TIP3   OH247030   2.451   4.483   1.090 -0.1952 -0.3496  0.2372
 7612TIP3    H147031   2.468   4.563   1.139 -1.3050 -0.0331  0.1405
 7612TIP3    H247032   2.361   4.493   1.058 -0.7429 -2.0677  1.1059
 7613TIP3   OH247033   2.790   5.711   3.113 -0.2244  0.1913  0.1366
 7613TIP3    H147034   2.724   5.780   3.108  0.4101  0.9296  1.3607
 7613TIP3    H247035   2.744   5.631   3.087 -1.6196  0.6693  1.0384
 7614TIP3   OH247036   1.038   1.873   0.516  0.3075 -0.0794  0.4745
 7614TIP3    H147037   1.080   1.907   0.436 -1.2037 -1.5983 -1.0489
 7614TIP3    H247038   0.978   1.943   0.543 -0.1435 -0.0756 -0.5046
 7615TIP3   OH247039   4.831   3.338   7.275 -0.5401  0.0601 -0.2456
 7615TIP3    H147040   4.804   3.368   7.362  1.3454  1.1095  0.0402
 7615TIP3    H247041   4.859   3.247   7.289  0.1528  0.3521  0.3650
 7616TIP3   OH247042   5.994   1.671   9.304 -0.1032 -0.0598  0.6293
 7616TIP3    H147043   6.001   1.577   9.324 -1.5848 -0.2991  0.1646
 7616TIP3    H247044   5.986   1.674   9.208  1.6920  0.6999  0.4565
 7617TIP3   OH247045   0.021   6.459   1.171 -0.2674  0.4857 -0.1330
 7617TIP3    H147046  -0.053   6.399   1.182 -0.1895  0.3294 -0.4539
 7617TIP3    H247047   0.006   6.528   1.236 -0.4354  0.1967  0.1382
 7618TIP3   OH247048   1.573   1.859   7.712  0.2579 -0.3344 -0.3798
 7618TIP3    H147049   1.512   1.824   7.647  1.1556 -1.7811 -0.4955
 7618TIP3    H247050   1.659   1.829   7.682  1.0915  1.8750 -0.3648
 7619TIP3   OH247051   7.627   5.046   7.966 -0.1347  0.0983 -0.0393
 7619TIP3    H147052   7.599   4.957   7.988  0.4744  0.7776  4.4687
 7619TIP3    H247053   7.546   5.097   7.965 -0.2297 -0.0419  0.2747
 7620TIP3   OH247054   3.926   4.815   7.695  0.1526  0.2653 -0.0577
 7620TIP3    H147055   3.993   4.747   7.703 -1.3901 -1.2418  0.6448
 7620TIP3    H247056   3.886   4.799   7.610  0.5302  1.0433 -0.3929
 7621TIP3   OH247057   7.227   6.798   0.214  0.3042  0.4022 -0.1499
 7621TIP3    H147058   7.276   6.878   0.231 -0.0147  0.7058 -0.6177
 7621TIP3    H247059   7.191   6.773   0.299 -0.3120  1.2385 -0.1559
 7622TIP3   OH247060   3.923   3.111   8.868 -0.1555 -0.1523 -0.2936
 7622TIP3    H147061   3.845   3.071   8.906  0.1578  0.7854  1.4123
 7622TIP3    H247062   3.888   3.186   8.818 -0.4691 -0.6915 -0.8979
 7623TIP3   OH247063   7.469   7.192   9.078 -0.3821  0.3561  0.1528
 7623TIP3    H147064   7.488   7.099   9.073  0.1966  0.3287  2.0620
 7623TIP3    H247065   7.408   7.200   9.151 -0.2733  1.4974  0.1413
 7624TIP3   OH247066   4.893   0.216   9.519  0.4111  0.1852  0.2878
 7624TIP3    H147067   4.857   0.290   9.469  0.6511 -0.4772 -0.8978
 7624TIP3    H247068   4.947   0.257   9.586  0.3239  1.1076 -0.1852
 7625TIP3   OH247069   4.356   1.702   8.753 -0.6741  0.0476  0.2259
 7625TIP3    H147070   4.340   1.609   8.739 -0.0338 -0.0076 -0.2049
 7625TIP3    H247071   4.318   1.745   8.677 -1.5759  0.2094  0.7555
 7626TIP3   OH247072   5.868   6.578   9.294 -0.0596 -0.2720 -0.2126
 7626TIP3    H147073   5.962   6.572   9.308  0.0307  0.5340 -0.4196
 7626TIP3    H247074   5.853   6.530   9.212  0.3949  0.8097 -0.9607
 7627TIP3   OH247075   5.575   6.849   1.832 -0.0670 -0.0888 -0.4327
 7627TIP3    H147076   5.633   6.783   1.868  0.2166  0.4634  0.1486
 7627TIP3    H247077   5.488   6.810   1.838 -0.1053  0.1759  1.3777
 7628TIP3   OH247078   6.813   3.547   8.794  0.3914  0.3481  0.1883
 7628TIP3    H147079   6.782   3.460   8.771  0.8534 -0.1150  1.2338
 7628TIP3    H247080   6.737   3.604   8.784 -0.0202 -0.2496 -0.0771
 7629TIP3   OH247081   4.702   3.550   8.714  0.1425  0.1456 -0.9171
 7629TIP3    H147082   4.650   3.519   8.641  0.1005 -0.7347 -0.5274
 7629TIP3    H247083   4.770   3.605   8.674 -0.4210  0.4063 -1.5227
 7630TIP3   OH247084   2.434   5.634   2.436  0.0063 -0.2789 -0.1195
 7630TIP3    H147085   2.401   5.665   2.352 -1.1216  0.4572  0.5535
 7630TIP3    H247086   2.407   5.542   2.440 -0.2100 -0.2331 -0.4394
 7631TIP3   OH247087   6.627   2.834   1.077  0.1570  0.3761 -0.3354
 7631TIP3    H147088   6.632   2.819   1.171 -2.2940  3.2188  0.4381
 7631TIP3    H247089   6.547   2.790   1.050  1.0587 -0.7640 -1.2163
 7632TIP3   OH247090   6.755   3.807   8.613 -0.4433  0.2050  0.2653
 7632TIP3    H147091   6.807   3.873   8.658 -0.2022  1.0354 -1.1684
 7632TIP3    H247092   6.714   3.756   8.683  2.4650 -0.6555  1.4987
 7633TIP3   OH247093   5.561   5.521   0.777  0.4951  0.4903 -0.4145
 7633TIP3    H147094   5.611   5.549   0.854 -1.7885  0.8384  1.0611
 7633TIP3    H247095   5.552   5.600   0.724  0.1475  0.8392  0.1480
 7634TIP3   OH247096   7.678   2.637   0.796 -0.7888  0.6566  0.7626
 7634TIP3    H147097   7.739   2.710   0.801 -2.5712  2.1254  2.1693
 7634TIP3    H247098   7.674   2.601   0.885 -0.4524 -0.7492  0.2428
 7635TIP3   OH247099   3.079   6.375   8.923 -0.0479  0.1194 -0.0491
 7635TIP3    H147100   3.121   6.454   8.956 -2.7212  1.6679 -0.0769
 7635TIP3    H247101   3.107   6.369   8.832 -0.7740  1.7913 -0.4158
 7636TIP3   OH247102   1.292   4.883   1.686  0.6973  0.2554  0.5139
 7636TIP3    H147103   1.254   4.941   1.751 -0.9196 -0.9248  0.6929
 7636TIP3    H247104   1.308   4.801   1.733 -0.0618 -0.4681 -0.4376
 7637TIP3   OH247105   3.271   0.355   0.602  0.2347 -0.6553 -0.2514
 7637TIP3    H147106   3.235   0.321   0.520 -1.2289  0.1654  0.0182
 7637TIP3    H247107   3.195   0.376   0.655  1.1084  0.8232  0.4872
 7638TIP3   OH247108   1.837   3.048   0.143  0.0295 -0.4942  0.0173
 7638TIP3    H147109   1.840   2.962   0.185 -1.4914 -0.9570 -0.7435
 7638TIP3    H247110   1.755   3.086   0.173  0.0240  0.1033 -0.7244
 7639TIP3   OH247111   4.653   1.503   8.108 -0.6323 -0.7880  0.1554
 7639TIP3    H147112   4.705   1.424   8.100  0.9303  0.2734 -0.7667
 7639TIP3    H247113   4.703   1.559   8.168 -1.5029 -0.3493  0.4900
 7640TIP3   OH247114   3.675   6.193   7.528 -0.1778 -0.1881 -0.3188
 7640TIP3    H147115   3.580   6.184   7.537 -0.1540  1.1718  2.6086
 7640TIP3    H247116   3.711   6.128   7.587  0.4706  2.3778  2.3734
 7641TIP3   OH247117   2.638   6.966   7.611  0.0401  0.2015 -0.0943
 7641TIP3    H147118   2.632   7.054   7.649 -0.1293  0.0675  0.1843
 7641TIP3    H247119   2.563   6.960   7.552 -0.5689 -0.1459  0.6907
 7642TIP3   OH247120   3.526   1.782   7.625  0.0038  0.1786  0.4519
 7642TIP3    H147121   3.578   1.801   7.703  0.0741  0.9869  0.2199
 7642TIP3    H247122   3.475   1.862   7.610 -1.1376 -0.5073  0.5348
 7643TIP3   OH247123   3.504   3.570   6.588 -0.2812 -0.2166 -0.0207
 7643TIP3    H147124   3.569   3.640   6.591  0.2581 -0.6570 -1.0089
 7643TIP3    H247125   3.421   3.614   6.610  0.1389  0.6094 -0.0324
 7644TIP3   OH247126   2.435   4.844   8.133  0.2283  0.0806 -0.1672
 7644TIP3    H147127   2.515   4.802   8.104  1.1042  3.1154 -2.7149
 7644TIP3    H247128   2.374   4.835   8.059 -0.8494  0.0665  0.6913
 7645TIP3   OH247129   6.131   2.177   1.021  0.4811  0.2411  0.1507
 7645TIP3    H147130   6.051   2.221   1.051 -0.1282 -1.9526  1.9911
 7645TIP3    H247131   6.116   2.085   1.040  2.7983 -0.4501 -1.0640
 7646TIP3   OH247132   0.217   5.506   0.407  0.0473  0.2225  0.3211
 7646TIP3    H147133   0.171   5.564   0.347 -0.3976 -0.9332 -0.4957
 7646TIP3    H247134   0.189   5.533   0.494  0.0450  1.3735 -0.0207
 7647TIP3   OH247135   6.334   2.209   0.781 -1.5863 -0.0788 -0.5196
 7647TIP3    H147136   6.382   2.128   0.765  1.7904  1.5640  0.3475
 7647TIP3    H247137   6.298   2.198   0.869 -1.2377 -0.6766 -0.4441
 7648TIP3   OH247138   6.218   6.574   8.276  0.2120  0.2737  0.2978
 7648TIP3    H147139   6.168   6.504   8.232  1.3143 -1.5979  1.8382
 7648TIP3    H247140   6.309   6.553   8.258  0.5611  2.1424 -0.3035
 7649TIP3   OH247141   6.685   5.074   9.488  0.4931  0.2379 -0.4998
 7649TIP3    H147142   6.771   5.096   9.453  0.0215  1.8530 -0.7274
 7649TIP3    H247143   6.660   5.151   9.539  0.0575 -1.0427  1.3109
 7650TIP3   OH247144   7.577   0.514   8.133 -0.5671 -0.1486  0.1084
 7650TIP3    H147145   7.654   0.518   8.190 -0.5327  1.1207 -0.0073
 7650TIP3    H247146   7.612   0.527   8.045 -0.4941 -3.0315 -0.3931
 7651TIP3   OH247147   3.830   6.323   7.802 -0.1850 -0.3620  0.2742
 7651TIP3    H147148   3.743   6.359   7.817  0.0421 -0.7262  2.9648
 7651TIP3    H247149   3.816   6.230   7.785 -0.4115 -0.0504 -1.4130
 7652TIP3   OH247150   5.488   5.014   8.519 -0.6848  0.2872 -0.3026
 7652TIP3    H147151   5.409   5.043   8.473 -0.4562  0.9702 -0.2707
 7652TIP3    H247152   5.458   4.993   8.607 -1.0581 -0.6805 -0.6405
 7653TIP3   OH247153   4.090   5.551   2.888  0.5352 -0.2343 -0.4092
 7653TIP3    H147154   4.064   5.459   2.878 -2.7231  0.4814  0.1616
 7653TIP3    H247155   4.166   5.561   2.831  0.0324 -2.8955 -1.7134
 7654TIP3   OH247156   5.539   3.904   0.555  0.3871  0.0968  0.4168
 7654TIP3    H147157   5.622   3.924   0.599 -0.4040  2.2866  1.0540
 7654TIP3    H247158   5.558   3.911   0.462  0.3835  3.4878  0.5619
 7655TIP3   OH247159   6.326   1.964   8.052 -0.0329 -0.0723 -0.1146
 7655TIP3    H147160   6.367   2.022   7.988 -1.1405  0.3581 -0.4680
 7655TIP3    H247161   6.244   2.008   8.075 -0.2476 -0.8400  0.6468
 7656TIP3   OH247162   5.415   2.960   8.988 -0.6009 -0.1006 -0.3861
 7656TIP3    H147163   5.493   2.998   9.028 -0.4906  1.1189 -1.7007
 7656TIP3    H247164   5.431   2.865   8.988 -0.4432 -0.1425  2.0388
 7657TIP3   OH247165   0.169   2.205   9.660  0.6220 -0.1348 -0.4320
 7657TIP3    H147166   0.126   2.280   9.618  0.7714 -0.4488 -1.1613
 7657TIP3    H247167   0.228   2.171   9.593  0.6931 -0.7955 -0.0415
 7658TIP3   OH247168   3.180   7.680   7.925  0.7847  0.0278 -0.2087
 7658TIP3    H147169   3.240   7.625   7.874  0.8918  0.3534 -0.4339
 7658TIP3    H247170   3.218   7.767   7.922  1.4861 -0.1907  1.5361
 7659TIP3   OH247171   0.574   5.047   8.079  0.1793 -0.0010 -0.7474
 7659TIP3    H147172   0.534   5.076   8.161  0.9256 -0.2724 -0.2745
 7659TIP3    H247173   0.634   5.118   8.055  1.3558 -0.7154 -0.0477
 7660TIP3   OH247174   5.674   3.535   0.456  0.1262  0.1662 -0.1259
 7660TIP3    H147175   5.722   3.603   0.407 -0.4777  0.4525 -0.3404
 7660TIP3    H247176   5.584   3.568   0.459 -0.1279 -0.5236 -0.0352
 7661TIP3   OH247177   5.473   2.166   1.379  0.4062  0.1731  0.0855
 7661TIP3    H147178   5.389   2.186   1.337 -0.3563 -2.2057  0.2804
 7661TIP3    H247179   5.538   2.212   1.326 -0.7926 -0.3069 -1.9438
 7662TIP3   OH247180   5.461   6.931   1.556 -0.6669  0.4422  0.2333
 7662TIP3    H147181   5.389   6.889   1.603  1.0493 -3.0046  0.0771
 7662TIP3    H247182   5.516   6.968   1.625 -0.5793 -0.4354  0.6463
 7663TIP3   OH247183   1.211   5.033   7.419 -0.2385  0.5862 -0.0564
 7663TIP3    H147184   1.222   4.940   7.439 -0.1699  0.4503 -0.7060
 7663TIP3    H247185   1.215   5.038   7.323  1.7651  1.5217  0.0310
 7664TIP3   OH247186   3.307   5.972   2.126 -0.3317  0.8030 -0.0323
 7664TIP3    H147187   3.319   5.932   2.212 -0.4289  1.7437  0.4353
 7664TIP3    H247188   3.212   5.974   2.114 -0.3026  0.0445 -0.4818
 7665TIP3   OH247189   3.014   6.471   7.721  0.6284  0.4809 -0.5942
 7665TIP3    H147190   2.929   6.447   7.758 -0.0745  0.3521 -2.2455
 7665TIP3    H247191   3.010   6.566   7.711  1.5132  0.7621  1.2682
 7666TIP3   OH247192   4.248   2.795   8.351  0.4900  0.2944  0.6375
 7666TIP3    H147193   4.223   2.710   8.315  1.9595 -0.7866  2.0050
 7666TIP3    H247194   4.187   2.857   8.311 -0.5833 -1.3745 -0.4564
 7667TIP3   OH247195   2.797   2.707   7.258 -0.3804 -0.7636 -0.1447
 7667TIP3    H147196   2.702   2.713   7.266 -0.2644  1.0759  0.3862
 7667TIP3    H247197   2.812   2.678   7.168 -1.4524  2.2057 -1.4182
 7668TIP3   OH247198   7.306   6.489   0.718 -0.4472 -0.4877  0.4239
 7668TIP3    H147199   7.390   6.521   0.684  0.1958 -2.5986 -0.1326
 7668TIP3    H247200   7.306   6.514   0.810 -0.1293  1.2829 -0.0219
 7669TIP3   OH247201   7.554   1.029   7.783 -0.4506 -0.4313 -0.6789
 7669TIP3    H147202   7.495   0.977   7.728 -3.5183  2.9405 -0.9793
 7669TIP3    H247203   7.498   1.062   7.853  1.1688  2.4323 -0.5658
 7670TIP3   OH247204   3.912   5.115   9.855  0.0864  0.3267 -0.2770
 7670TIP3    H147205   3.977   5.158   9.910 -0.2550  0.0704  0.3263
 7670TIP3    H247206   3.845   5.182   9.841  0.0510  0.3122 -0.1761
 7671TIP3   OH247207   5.800   1.076   7.733 -0.2156 -0.4855 -0.4927
 7671TIP3    H147208   5.866   1.122   7.784  0.6884  0.4432 -2.3815
 7671TIP3    H247209   5.846   1.047   7.654 -2.2391  1.1551 -2.4244
 7672TIP3   OH247210   4.861   5.955   1.482  0.3171  0.4703  0.2367
 7672TIP3    H147211   4.925   5.908   1.536 -0.6607 -1.0412  0.1521
 7672TIP3    H247212   4.864   6.045   1.513  0.7457 -0.0844  1.8998
 7673TIP3   OH247213   1.414   1.008   1.677  0.4360  0.1928 -0.0927
 7673TIP3    H147214   1.425   0.913   1.676  0.6318  0.2057  0.6234
 7673TIP3    H247215   1.418   1.032   1.769  0.7136  0.9375 -0.2937
 7674TIP3   OH247216   1.686   4.770   9.625  0.1065 -0.7879 -0.0838
 7674TIP3    H147217   1.651   4.747   9.711 -0.4223 -1.9048 -0.5800
 7674TIP3    H247218   1.660   4.861   9.612 -0.5995 -0.8853  0.5616
 7675TIP3   OH247219   6.827   2.421   8.368 -0.1421 -0.1709  0.8765
 7675TIP3    H147220   6.778   2.416   8.287 -0.9920 -3.3121  1.4462
 7675TIP3    H247221   6.912   2.382   8.348 -0.9624 -2.6205  1.7773
 7676TIP3   OH247222   6.631   0.711   0.192  0.5484 -0.0641  0.5451
 7676TIP3    H147223   6.652   0.753   0.109  0.7164  1.6033  1.3692
 7676TIP3    H247224   6.715   0.683   0.227  0.3011 -2.6787 -0.7273
 7677TIP3   OH247225   1.915   4.635   9.813 -0.0328  0.3498  0.1031
 7677TIP3    H147226   1.869   4.659   9.893 -0.1743  0.3744  0.0156
 7677TIP3    H247227   1.874   4.553   9.785 -1.1679  1.2040 -0.8631
 7678TIP3   OH247228   1.170   3.606   9.167 -0.1024  0.0441  0.1417
 7678TIP3    H147229   1.258   3.638   9.147  0.7575 -1.5622  1.1390
 7678TIP3    H247230   1.154   3.637   9.256  0.0346 -0.7797  0.4663
 7679TIP3   OH247231   0.947   1.632   6.856 -0.5532 -0.5658  0.3723
 7679TIP3    H147232   0.892   1.711   6.850 -0.4209 -0.4294  0.9129
 7679TIP3    H247233   0.884   1.562   6.872 -1.0891 -1.1605 -3.3795
 7680TIP3   OH247234   2.048   6.802   2.355 -0.2899  0.2536  0.0456
 7680TIP3    H147235   2.132   6.845   2.368 -0.0989 -0.2418  0.4890
 7680TIP3    H247236   2.034   6.752   2.435 -2.0872  2.0936  0.9847
 7681TIP3   OH247237   7.507   2.081   0.819 -0.3031 -0.4289 -0.6100
 7681TIP3    H147238   7.436   2.020   0.841  0.0594  0.3601  3.4196
 7681TIP3    H247239   7.586   2.040   0.854  0.4499  0.8987 -0.6914
 7682TIP3   OH247240   2.744   7.270   8.307  0.4769  0.1056 -0.3078
 7682TIP3    H147241   2.833   7.272   8.271 -0.0859  0.0295 -1.7655
 7682TIP3    H247242   2.707   7.188   8.275 -1.2694  1.6858 -2.7252
 7683TIP3   OH247243   4.697   4.217   0.503 -0.2642  0.1979 -0.0035
 7683TIP3    H147244   4.722   4.182   0.589  1.6907  0.1421 -0.5524
 7683TIP3    H247245   4.732   4.305   0.502 -1.9727  0.9217 -0.0567
 7684TIP3   OH247246   5.154   6.787   0.695 -0.1920 -0.2724  0.2558
 7684TIP3    H147247   5.112   6.711   0.656  0.2437 -0.5345  0.2877
 7684TIP3    H247248   5.237   6.796   0.647 -0.5240  0.5679 -0.1855
 7685TIP3   OH247249   3.917   5.688   8.801  0.1286  0.4442  0.7418
 7685TIP3    H147250   3.996   5.648   8.836 -0.1268 -0.2291  0.5543
 7685TIP3    H247251   3.845   5.648   8.850 -0.1087  0.9766  0.8444
 7686TIP3   OH247252   7.630   1.518   7.388 -0.7251  0.1092 -0.7820
 7686TIP3    H147253   7.588   1.595   7.348  1.4354  1.5606 -0.4799
 7686TIP3    H247254   7.718   1.517   7.349 -1.0410 -2.9546 -1.6540
 7687TIP3   OH247255   2.630   3.060   9.506 -0.1778 -0.1978  0.4592
 7687TIP3    H147256   2.569   3.067   9.580 -0.8002  1.1754 -0.1398
 7687TIP3    H247257   2.711   3.101   9.538  0.5521 -2.1977  1.3218
 7688TIP3   OH247258   2.318   7.139   9.577  0.2595 -0.3327  0.1352
 7688TIP3    H147259   2.372   7.217   9.563 -0.1797  0.3680  2.0255
 7688TIP3    H247260   2.354   7.074   9.517  1.2496  1.0259 -0.8137
 7689TIP3   OH247261   6.143   4.974   1.317 -0.6069 -0.7095 -0.2973
 7689TIP3    H147262   6.053   5.006   1.318 -0.4845 -0.3321 -1.1440
 7689TIP3    H247263   6.136   4.882   1.290 -0.7374 -0.7129 -0.2548
 7690TIP3   OH247264   0.473   4.348   1.093  0.7533 -0.3184  0.0524
 7690TIP3    H147265   0.483   4.301   1.175 -0.0598 -1.4722 -0.4798
 7690TIP3    H247266   0.397   4.307   1.050 -1.2393  2.7207  0.3699
 7691TIP3   OH247267   6.236   4.045   7.421  0.6781  0.0370 -0.2012
 7691TIP3    H147268   6.303   4.005   7.366  1.4683  2.7797 -1.3743
 7691TIP3    H247269   6.204   4.120   7.371 -3.6934 -1.3217  0.0938
 7692TIP3   OH247270   1.727   6.465   1.018 -0.0396  0.5101 -1.1373
 7692TIP3    H147271   1.705   6.430   0.932 -0.9285 -1.0086 -0.3332
 7692TIP3    H247272   1.765   6.551   1.000  1.0089 -0.3051 -3.1312
 7693TIP3   OH247273   1.216   1.636   8.487 -0.0520  0.0133  0.3735
 7693TIP3    H147274   1.133   1.664   8.449  0.5061  2.2156  0.6429
 7693TIP3    H247275   1.259   1.588   8.417 -1.2646 -0.6246  0.0294
 7694TIP3   OH247276   5.804   6.217   0.052 -0.0884 -0.0515 -0.7603
 7694TIP3    H147277   5.858   6.142   0.028  1.1385  1.2261 -2.2306
 7694TIP3    H247278   5.770   6.196   0.139  1.8019 -1.4404 -0.3084
 7695TIP3   OH247279   6.630   6.817   0.487  0.2861  0.1176  0.3219
 7695TIP3    H147280   6.616   6.799   0.394 -2.3982 -0.9553  0.8335
 7695TIP3    H247281   6.581   6.898   0.503  1.1172  0.5497  0.7376
 7696TIP3   OH247282   1.152   5.007   2.491 -0.3248  0.3485  0.6406
 7696TIP3    H147283   1.224   4.952   2.520 -1.3739 -1.4542 -0.0458
 7696TIP3    H247284   1.084   4.994   2.557 -1.2186 -0.5708 -0.4307
 7697TIP3   OH247285   6.374   2.156   9.980 -0.2324  0.1904 -0.1378
 7697TIP3    H147286   6.380   2.060   9.982 -1.1009  0.1347  0.7022
 7697TIP3    H247287   6.326   2.178  10.060 -0.0971  1.3265 -0.3563
 7698TIP3   OH247288   0.344   2.900   7.667  0.0209  0.4659  0.0691
 7698TIP3    H147289   0.414   2.888   7.602 -0.6638  3.2554 -1.3504
 7698TIP3    H247290   0.384   2.956   7.734 -0.0689 -0.1968  0.6834
 7699TIP3   OH247291   3.257   7.660   2.089  0.4397  0.3447  0.1672
 7699TIP3    H147292   3.171   7.699   2.106  0.6666  0.0202  2.2884
 7699TIP3    H247293   3.267   7.664   1.994 -2.3135 -0.4815 -0.2251
 7700TIP3   OH247294   3.343   0.109   0.412 -0.4406  0.3216  0.2636
 7700TIP3    H147295   3.340   0.071   0.324  0.2559 -0.3680  0.5281
 7700TIP3    H247296   3.411   0.059   0.458  2.4031  3.4459 -0.1232
 7701TIP3   OH247297   1.596   3.437   9.030 -0.3463 -0.0922 -0.4963
 7701TIP3    H147298   1.681   3.400   9.054 -1.7577 -1.7578  2.5737
 7701TIP3    H247299   1.583   3.509   9.092 -1.7523 -0.8025  0.0758
 7702TIP3   OH247300   5.345   2.833   1.135  0.1229  0.2391 -0.0992
 7702TIP3    H147301   5.383   2.917   1.158  1.2909  0.2731 -1.9532
 7702TIP3    H247302   5.273   2.855   1.075  0.0839 -0.0517 -0.1628
 7703TIP3   OH247303   5.609   6.267   9.648 -0.0050  0.6374  0.5051
 7703TIP3    H147304   5.678   6.250   9.584  0.8213 -0.3946  1.6306
 7703TIP3    H247305   5.559   6.340   9.610  0.4154  0.0326 -1.3239
 7704TIP3   OH247306   4.687   0.738   9.790 -0.0304  0.0377  0.0182
 7704TIP3    H147307   4.689   0.665   9.852 -1.6744  0.9502  1.2145
 7704TIP3    H247308   4.728   0.703   9.711  0.2562 -1.8118  0.9351
 7705TIP3   OH247309   4.400   2.135   1.483 -0.0954  0.4844 -0.4512
 7705TIP3    H147310   4.336   2.099   1.546  0.5564  0.1169  0.0104
 7705TIP3    H247311   4.393   2.078   1.407  0.6586 -0.4193  0.1318
 7706TIP3   OH247312   0.285   1.309   8.380  0.0384  0.3993  0.2002
 7706TIP3    H147313   0.250   1.220   8.385 -0.6847  0.6172 -0.6837
 7706TIP3    H247314   0.372   1.303   8.418 -1.3512  0.0656  3.6683
 7707TIP3   OH247315   4.811   2.781   8.951 -0.1904 -0.1443 -0.2236
 7707TIP3    H147316   4.831   2.862   8.999  0.4228 -0.8094  0.6677
 7707TIP3    H247317   4.882   2.721   8.974  0.0629 -0.5327 -1.8868
 7708TIP3   OH247318   5.164   7.274   9.332 -0.9034  0.0334 -1.0727
 7708TIP3    H147319   5.229   7.223   9.283  0.9297  0.7631  0.4716
 7708TIP3    H247320   5.140   7.218   9.405 -0.9004  0.3472 -0.8333
 7709TIP3   OH247321   6.095   4.578   8.796  0.1405  0.4869  0.7967
 7709TIP3    H147322   6.075   4.536   8.713  0.7332 -0.0402  0.9074
 7709TIP3    H247323   6.016   4.627   8.819  0.3817  1.6266 -0.6660
 7710TIP3   OH247324   6.096   1.111   1.390 -0.2378  0.0991 -0.1150
 7710TIP3    H147325   6.179   1.159   1.398  0.7907 -1.7853  1.6651
 7710TIP3    H247326   6.030   1.171   1.426  0.6647  0.9164  0.2236
 7711TIP3   OH247327   5.049   6.601   2.274 -0.2304  0.1359  0.0925
 7711TIP3    H147328   5.068   6.534   2.340 -0.1423 -0.8360 -0.8906
 7711TIP3    H247329   5.119   6.665   2.284 -1.1897  0.9730  2.1338
 7712TIP3   OH247330   1.084   5.511   7.902 -0.3988 -0.2195  0.3437
 7712TIP3    H147331   1.139   5.442   7.865  0.8136  0.3909  0.9276
 7712TIP3    H247332   1.104   5.588   7.850 -0.2771  0.1403  0.9109
 7713TIP3   OH247333   1.461   1.795   9.946 -0.6912  0.5656 -0.5240
 7713TIP3    H147334   1.392   1.735   9.918 -0.2326  0.5985 -1.7670
 7713TIP3    H247335   1.467   1.860   9.876  1.5504 -0.2462 -1.1958
 7714TIP3   OH247336   3.033   1.477   0.457 -0.0691  0.8117 -0.5320
 7714TIP3    H147337   2.975   1.457   0.384 -1.9915  1.4108  0.7580
 7714TIP3    H247338   3.121   1.469   0.420 -0.8929 -1.2637 -2.2756
 7715TIP3   OH247339   3.568   5.903   1.604 -0.1501 -0.2750  0.8845
 7715TIP3    H147340   3.490   5.858   1.634  0.1045 -1.1215  0.3175
 7715TIP3    H247341   3.631   5.834   1.586  0.6214  0.3739  1.0176
 7716TIP3   OH247342   3.051   7.052   1.195 -0.1727 -0.0237 -0.0802
 7716TIP3    H147343   2.986   6.983   1.205 -0.1268  0.0053  0.4443
 7716TIP3    H247344   3.001   7.133   1.210  0.2624 -0.0622  1.9090
 7717TIP3   OH247345   1.214   1.491   6.831  0.1600  0.5248  0.5809
 7717TIP3    H147346   1.261   1.519   6.753  0.3087 -0.9010  0.1314
 7717TIP3    H247347   1.135   1.544   6.832 -0.4662 -0.3055 -1.2663
 7718TIP3   OH247348   0.507   2.602   0.805  0.5701 -0.4292  0.4509
 7718TIP3    H147349   0.468   2.587   0.891 -0.2177 -0.0015  0.1785
 7718TIP3    H247350   0.518   2.514   0.768  3.2258 -0.8386  1.9341
 7719TIP3   OH247351   6.828   3.707   1.206  0.0151 -0.3092  0.1463
 7719TIP3    H147352   6.832   3.612   1.216 -1.8832 -0.2934  1.6607
 7719TIP3    H247353   6.814   3.721   1.112  0.8931 -1.4642 -0.1742
 7720TIP3   OH247354   3.593   5.995   0.999 -0.5396 -0.0170  0.0662
 7720TIP3    H147355   3.508   6.036   0.984 -0.4600 -0.1028 -0.6564
 7720TIP3    H247356   3.574   5.901   1.000 -0.4859 -0.0273  0.1163
 7721TIP3   OH247357   4.837   2.841   8.394  0.1423 -0.5792 -0.0588
 7721TIP3    H147358   4.845   2.761   8.344  2.3503 -1.8884  2.1743
 7721TIP3    H247359   4.748   2.839   8.429  0.4205 -2.5265  0.6355
 7722TIP3   OH247360   2.236   0.742   8.049 -0.4502  0.1421  0.1167
 7722TIP3    H147361   2.256   0.735   7.955 -0.5492 -0.3264  0.1308
 7722TIP3    H247362   2.245   0.836   8.068 -0.1869  0.2043 -0.3063
 7723TIP3   OH247363   6.924   4.000   0.367  0.0381 -0.6084  0.1726
 7723TIP3    H147364   6.940   4.031   0.277 -0.1138  0.2560  0.4298
 7723TIP3    H247365   7.011   3.996   0.406  0.0105  0.1089  0.3225
 7724TIP3   OH247366   1.962   4.671   1.161 -0.1708 -0.0611 -0.0214
 7724TIP3    H147367   1.922   4.629   1.238  0.7571 -0.4373  0.2732
 7724TIP3    H247368   1.888   4.704   1.110 -0.8423 -0.5862  0.5944
 7725TIP3   OH247369   6.258   0.096   0.516 -0.0298  0.1893  0.0546
 7725TIP3    H147370   6.280   0.189   0.513  0.0833  0.1459 -2.2078
 7725TIP3    H247371   6.163   0.094   0.528  0.0243  0.5662  0.5842
 7726TIP3   OH247372   4.024   1.068   0.052 -0.6655 -0.2654  0.5131
 7726TIP3    H147373   4.096   1.022   0.010 -0.5542 -0.8220  1.2940
 7726TIP3    H247374   4.063   1.111   0.128 -1.1831 -0.7302  1.0522
 7727TIP3   OH247375   0.196   4.177   8.970  0.2854 -0.6002 -0.3206
 7727TIP3    H147376   0.282   4.162   9.011 -0.8829  1.7970  3.6394
 7727TIP3    H247377   0.138   4.113   9.012 -0.7805  1.2832  1.2415
 7728TIP3   OH247378   1.728   2.742   1.944 -0.2383 -0.3798 -0.3075
 7728TIP3    H147379   1.641   2.753   1.981 -0.4671  0.1904 -0.9988
 7728TIP3    H247380   1.762   2.662   1.986 -0.6515 -0.0039  0.7767
 7729TIP3   OH247381   6.423   7.130   1.671 -0.8522  0.3914 -0.2883
 7729TIP3    H147382   6.479   7.053   1.677 -1.0298  0.3590  1.8142
 7729TIP3    H247383   6.373   7.130   1.753 -1.5160  2.2407 -0.6325
 7730TIP3   OH247384   4.823   3.622   0.286  0.2704  0.3130 -0.3644
 7730TIP3    H147385   4.791   3.670   0.210 -1.1852  0.6630  0.4315
 7730TIP3    H247386   4.900   3.671   0.315  0.6604  0.3524 -1.3950
 7731TIP3   OH247387   5.208   0.861   1.423  0.2986  0.4296  0.4039
 7731TIP3    H147388   5.119   0.826   1.424  0.9525 -1.3122 -0.0786
 7731TIP3    H247389   5.208   0.928   1.492 -1.2335  0.0742  0.7789
 7732TIP3   OH247390   7.550   6.096   9.589  0.0534 -0.6913  0.1853
 7732TIP3    H147391   7.550   6.012   9.542 -0.1372 -1.8422  2.1376
 7732TIP3    H247392   7.640   6.126   9.584  0.6785 -2.2112  1.4176
 7733TIP3   OH247393   0.382   2.287   7.288 -0.1312 -0.1307 -0.2069
 7733TIP3    H147394   0.433   2.262   7.211 -1.7646 -0.8815 -1.1026
 7733TIP3    H247395   0.446   2.324   7.348  1.5873 -1.6976 -0.9647
 7734TIP3   OH247396   4.736   6.814   8.667 -0.0328 -0.0969  0.8229
 7734TIP3    H147397   4.779   6.896   8.641 -1.4569  0.5408  0.3775
 7734TIP3    H247398   4.806   6.761   8.705  1.1431  0.8858  0.0974
 7735TIP3   OH247399   5.656   6.368   1.965 -0.1344 -0.5124 -0.0908
 7735TIP3    H147400   5.635   6.275   1.970  0.7231 -0.8052 -1.4990
 7735TIP3    H247401   5.750   6.372   1.981  0.0051  0.0018 -1.0017
 7736TIP3   OH247402   4.011   0.425   0.818 -0.2239  0.5362 -0.0323
 7736TIP3    H147403   4.067   0.407   0.742  0.0249  0.5393  0.1479
 7736TIP3    H247404   3.925   0.445   0.780 -0.2333  0.0304 -0.2876
 7737TIP3   OH247405   0.468   6.178   2.719  0.4110 -0.3292 -0.0213
 7737TIP3    H147406   0.500   6.268   2.724  0.7718 -0.5132  1.0931
 7737TIP3    H247407   0.545   6.125   2.701  0.6175 -0.6591  1.6552
 7738TIP3   OH247408   0.626   6.667   0.293  0.2808 -0.5530  0.4388
 7738TIP3    H147409   0.707   6.673   0.343 -0.0190  0.4151  0.8176
 7738TIP3    H247410   0.651   6.693   0.204  0.3984 -0.3136  0.5417
 7739TIP3   OH247411   1.209   7.198   1.051 -0.2101  0.2260 -0.0598
 7739TIP3    H147412   1.198   7.139   1.126  2.2541 -0.3080 -0.0117
 7739TIP3    H247413   1.132   7.254   1.052 -0.3630  0.1107  2.7843
 7740TIP3   OH247414   5.563   3.738   7.506  0.0983  0.1695 -0.0753
 7740TIP3    H147415   5.622   3.806   7.474  0.7494 -0.0650  0.6126
 7740TIP3    H247416   5.477   3.780   7.507  0.3266  0.6651 -0.6221
 7741TIP3   OH247417   5.541   4.577   9.144 -0.0457  0.0007 -0.2675
 7741TIP3    H147418   5.622   4.527   9.141 -0.0465 -0.1173  0.9051
 7741TIP3    H247419   5.568   4.666   9.166 -0.0591  0.5079 -2.1628
 7742TIP3   OH247420   2.507   4.122   0.463  0.1897 -0.3057  0.6861
 7742TIP3    H147421   2.561   4.177   0.406  0.2195 -1.3139 -0.2933
 7742TIP3    H247422   2.418   4.153   0.449  0.1508 -0.7721 -0.2184
 7743TIP3   OH247423   2.007   2.762   2.142  0.5767 -0.0474  0.3564
 7743TIP3    H147424   2.054   2.843   2.125  0.6457  0.0151  0.8169
 7743TIP3    H247425   1.934   2.788   2.199  0.9203 -0.3865  0.9614
 7744TIP3   OH247426   3.864   3.815   8.616 -0.2692  0.0967 -0.3380
 7744TIP3    H147427   3.861   3.911   8.623 -0.9924  0.0746 -0.2076
 7744TIP3    H247428   3.841   3.785   8.704  2.6282 -0.2203  0.4087
 7745TIP3   OH247429   1.530   1.796   0.290 -0.4813  0.3209 -0.1816
 7745TIP3    H147430   1.513   1.793   0.195  0.0119 -0.5264 -0.2545
 7745TIP3    H247431   1.621   1.823   0.297  0.0131 -1.3130 -0.0188
 7746TIP3   OH247432   3.752   5.659   2.421 -0.0425  0.5706  0.4337
 7746TIP3    H147433   3.673   5.624   2.461 -1.2044  1.5249 -0.9051
 7746TIP3    H247434   3.809   5.682   2.494  0.2546 -2.7219  1.4040
 7747TIP3   OH247435   6.405   3.579   0.430 -0.4242  1.0297  0.5761
 7747TIP3    H147436   6.358   3.660   0.415  0.8262  2.4388  3.3098
 7747TIP3    H247437   6.394   3.562   0.524 -1.8435 -2.8497 -0.0967
 7748TIP3   OH247438   2.232   6.330   0.799  0.7079 -0.0718 -0.3843
 7748TIP3    H147439   2.140   6.307   0.810  0.1577  1.8298 -0.7254
 7748TIP3    H247440   2.233   6.391   0.725  2.1112  0.6014  0.1575
 7749TIP3   OH247441   0.111   1.936   1.919 -0.2521  0.2440  0.0422
 7749TIP3    H147442   0.129   1.997   1.991  0.3573  2.1373 -1.6105
 7749TIP3    H247443   0.048   1.874   1.955 -1.3541  2.2024  1.6800
 7750TIP3   OH247444   0.782   1.413   6.927  0.7456  1.0044  1.2015
 7750TIP3    H147445   0.850   1.356   6.963  0.5550  0.3846  0.5892
 7750TIP3    H247446   0.747   1.459   7.004  0.4188 -0.2200  1.8114
 7751TIP3   OH247447   1.886   2.687   1.351  0.0387  0.1677 -0.0034
 7751TIP3    H147448   1.917   2.663   1.264 -1.0878  1.9862 -0.9667
 7751TIP3    H247449   1.808   2.740   1.335  1.6263  3.3882  1.9159
 7752TIP3   OH247450   2.794   1.543   9.934  0.4082 -0.0508 -0.1351
 7752TIP3    H147451   2.764   1.623   9.891 -0.6638  0.6291  1.7789
 7752TIP3    H247452   2.719   1.484   9.931 -0.6410  0.9438  2.9361
 7753TIP3   OH247453   5.561   6.002   0.575 -0.2339 -0.1217 -0.7223
 7753TIP3    H147454   5.530   6.045   0.655 -0.9069  0.3822 -1.2474
 7753TIP3    H247455   5.654   6.026   0.570  0.4342 -2.0104  1.1038
 7754TIP3   OH247456   1.387   7.125   0.862 -0.5752  0.8973  0.1141
 7754TIP3    H147457   1.375   7.193   0.796  0.5404  2.2320  1.2251
 7754TIP3    H247458   1.320   7.143   0.928 -0.6302  0.5734  0.1490
 7755TIP3   OH247459   5.462   5.144   7.465 -0.5188 -0.1903 -0.5164
 7755TIP3    H147460   5.450   5.157   7.371 -0.4199  0.8819 -0.3975
 7755TIP3    H247461   5.527   5.210   7.490  1.3677 -2.0808 -0.1216
 7756TIP3   OH247462   4.462   0.134   9.790  0.7447  0.2987 -1.0037
 7756TIP3    H147463   4.441   0.227   9.783 -3.1835 -0.4056 -0.5074
 7756TIP3    H247464   4.457   0.102   9.700 -3.4804 -0.3079 -0.7124
 7757TIP3   OH247465   1.013   7.379   8.317  0.4208 -0.7928  0.2608
 7757TIP3    H147466   0.980   7.432   8.389 -1.1692 -1.0980 -0.2127
 7757TIP3    H247467   1.022   7.291   8.355 -0.2524 -0.9167  0.1460
 7758TIP3   OH247468   4.103   6.464   0.688  0.7426 -1.2066 -0.0045
 7758TIP3    H147469   4.169   6.508   0.634 -0.0360  0.2180  0.1450
 7758TIP3    H247470   4.033   6.441   0.627  0.7842 -1.4925  0.0549
 7759TIP3   OH247471   6.554   0.085   9.248 -0.2396  0.1085  0.0868
 7759TIP3    H147472   6.502   0.148   9.198  0.5526  0.3206 -0.4889
 7759TIP3    H247473   6.629   0.136   9.279  0.9585 -0.7550 -1.2640
 7760TIP3   OH247474   1.218   0.837   9.228  0.0069 -0.2909 -0.0851
 7760TIP3    H147475   1.135   0.791   9.227  0.5434 -1.3045  0.4089
 7760TIP3    H247476   1.222   0.877   9.315  0.5871 -1.3210  0.3814
 7761TIP3   OH247477   2.004   2.908   7.963  0.6988 -0.2853 -0.6077
 7761TIP3    H147478   1.940   2.848   7.925  0.9017 -0.4938 -0.6181
 7761TIP3    H247479   1.984   2.993   7.923 -0.4988 -0.0327  0.4395
 7762TIP3   OH247480   2.911   7.634   9.425 -0.4248  0.0371 -0.3178
 7762TIP3    H147481   2.902   7.700   9.356  1.2168 -0.9286 -1.5185
 7762TIP3    H247482   2.822   7.600   9.437 -1.0007  1.2644 -0.8755
 7763TIP3   OH247483   1.752   7.101   8.336  0.0863  0.2439 -0.1694
 7763TIP3    H147484   1.835   7.110   8.382  0.9864  1.3127 -1.9039
 7763TIP3    H247485   1.700   7.176   8.365 -0.5997 -0.7849  1.4304
 7764TIP3   OH247486   0.630   6.041   6.741 -0.3429 -0.1173 -0.6148
 7764TIP3    H147487   0.606   6.133   6.732 -1.6759 -0.1738  1.4973
 7764TIP3    H247488   0.622   6.005   6.653 -1.8170  1.3484 -1.1328
 7765TIP3   OH247489   2.376   4.230   1.700  0.6823  0.2081  0.1484
 7765TIP3    H147490   2.468   4.239   1.725  0.8241 -3.6325  1.6988
 7765TIP3    H247491   2.378   4.228   1.604  2.4368 -0.9091  0.1587
 7766TIP3   OH247492   6.102   6.756   8.450  0.3862 -0.1943 -0.1693
 7766TIP3    H147493   6.184   6.781   8.493 -0.2120 -0.3020  1.0870
 7766TIP3    H247494   6.124   6.677   8.400  1.2500  0.2935 -0.5762
 7767TIP3   OH247495   7.194   3.171   1.340  0.3986  0.2197 -0.1842
 7767TIP3    H147496   7.177   3.210   1.254  1.8631 -0.2568 -0.7274
 7767TIP3    H247497   7.196   3.076   1.322 -0.6394  0.0221  0.6493
 7768TIP3   OH247498   0.551   6.393   0.068  0.1380  0.5736  0.2581
 7768TIP3    H147499   0.468   6.440   0.075  0.6569  1.6870 -0.7709
 7768TIP3    H247500   0.594   6.432  -0.007  1.1147 -0.7681  0.0894
 7769TIP3   OH247501   4.112   5.427   1.143  0.0047 -0.3970  0.3162
 7769TIP3    H147502   4.037   5.476   1.178  0.0984 -0.4362  0.5778
 7769TIP3    H247503   4.103   5.433   1.048 -0.4733 -0.6201  0.3461
 7770TIP3   OH247504   5.098   4.896   8.503  0.3086 -0.4052 -0.3177
 7770TIP3    H147505   5.118   4.959   8.434 -1.7031  0.6744  0.0037
 7770TIP3    H247506   5.010   4.865   8.483 -0.0104 -0.6547  1.3278
 7771TIP3   OH247507   6.418   4.561   9.977 -0.4817 -0.7146  0.2396
 7771TIP3    H147508   6.399   4.574   9.884  0.2523  1.6642  0.3649
 7771TIP3    H247509   6.366   4.484  10.001 -0.5733 -1.5021 -2.1400
 7772TIP3   OH247510   6.412   2.710   8.544 -0.5745 -0.0597 -1.1055
 7772TIP3    H147511   6.452   2.779   8.492 -1.0264  1.5803  0.6549
 7772TIP3    H247512   6.477   2.640   8.546  1.9891  2.1743  0.9920
 7773TIP3   OH247513   3.706   6.721   8.379  0.4143 -0.3467  0.4772
 7773TIP3    H147514   3.668   6.635   8.358  0.5083 -0.2600 -0.0740
 7773TIP3    H247515   3.682   6.776   8.304  0.8824 -0.0587  0.5369
 7774TIP3   OH247516   2.871   7.336   8.563  0.7191  0.7480  0.6153
 7774TIP3    H147517   2.962   7.364   8.554  1.7318 -1.9138  1.4354
 7774TIP3    H247518   2.840   7.324   8.473  0.7978  2.6631  0.3043
 7775TIP3   OH247519   7.354   4.806   2.367  0.5334  0.3315 -0.3411
 7775TIP3    H147520   7.313   4.801   2.281 -0.3931  0.0029  0.1103
 7775TIP3    H247521   7.399   4.891   2.367  1.0658  0.0620 -1.3660
 7776TIP3   OH247522   3.351   5.540   6.933  0.4345  0.7361  1.0208
 7776TIP3    H147523   3.262   5.570   6.916 -0.0144 -0.6516  0.8111
 7776TIP3    H247524   3.347   5.505   7.022  0.9925  1.4205  1.3266
 7777TIP3   OH247525   6.717   3.215   2.008 -0.0503  0.5866 -0.0720
 7777TIP3    H147526   6.704   3.207   1.914  0.5537  0.3714 -0.1437
 7777TIP3    H247527   6.812   3.217   2.019 -0.1189  1.5723  0.4517
 7778TIP3   OH247528   3.853   7.037   0.604 -0.1991 -0.5569  0.3320
 7778TIP3    H147529   3.777   7.022   0.661 -1.1475 -2.0831 -1.2158
 7778TIP3    H247530   3.899   6.954   0.603  0.8561  0.0185  0.3395
 7779TIP3   OH247531   6.632   4.213   8.458  0.0286 -0.4154  0.4004
 7779TIP3    H147532   6.647   4.306   8.440  0.3901 -0.8503 -1.7590
 7779TIP3    H247533   6.719   4.174   8.458 -0.2667 -1.2521 -2.0172
 7780TIP3   OH247534   3.675   2.253   6.960 -0.6050  0.0385  0.2783
 7780TIP3    H147535   3.616   2.313   6.915  0.4860  0.4742 -0.6358
 7780TIP3    H247536   3.622   2.176   6.979 -1.9611  1.1613  1.2178
 7781TIP3   OH247537   2.079   0.650   9.258 -0.0986 -0.6279 -0.6358
 7781TIP3    H147538   2.113   0.731   9.296  0.5808 -1.5472  0.8226
 7781TIP3    H247539   2.027   0.610   9.328  0.0887 -1.7383 -1.0963
 7782TIP3   OH247540   7.227   3.079   0.845  0.8826  0.6529 -0.5381
 7782TIP3    H147541   7.281   3.008   0.878 -1.9920 -1.8254 -0.7030
 7782TIP3    H247542   7.264   3.100   0.760  1.9381 -0.5002 -0.3920
 7783TIP3   OH247543   3.870   6.126   8.867 -0.2619 -0.0777  0.2699
 7783TIP3    H147544   3.948   6.167   8.832 -0.4991 -0.7463 -1.1308
 7783TIP3    H247545   3.879   6.133   8.962  1.7497 -0.6068  0.1607
 7784TIP3   OH247546   2.398   0.217   8.206  0.5611 -0.5469  0.1749
 7784TIP3    H147547   2.367   0.266   8.283 -0.2916  1.1206 -1.1558
 7784TIP3    H247548   2.423   0.285   8.143  0.8395 -1.8640 -1.1906
 7785TIP3   OH247549   0.876   2.201   8.099  0.2013 -0.1416  0.4391
 7785TIP3    H147550   0.840   2.117   8.074 -0.5488  0.0434  0.8768
 7785TIP3    H247551   0.955   2.179   8.149  0.0303 -0.5806  0.5204
 7786TIP3   OH247552   5.468   1.874   8.107 -0.3072 -0.3573  0.2046
 7786TIP3    H147553   5.500   1.904   8.022  0.6049  0.4612  0.8209
 7786TIP3    H247554   5.539   1.893   8.168 -0.4453 -2.0728  0.9632
 7787TIP3   OH247555   3.760   3.880   7.436  0.5774  0.0405  0.0555
 7787TIP3    H147556   3.851   3.889   7.410  1.3541 -2.1125  1.7370
 7787TIP3    H247557   3.753   3.928   7.519 -0.1387  1.0857 -0.5739
 7788TIP3   OH247558   2.216   4.354   6.946 -0.1048 -0.0259  0.0348
 7788TIP3    H147559   2.169   4.306   6.878 -0.8948 -2.3383  2.0701
 7788TIP3    H247560   2.308   4.351   6.918 -0.4544 -0.5480 -1.1284
 7789TIP3   OH247561   0.347   1.894   9.652  0.1238  0.4704  0.5616
 7789TIP3    H147562   0.387   1.976   9.681  1.2382  0.3728 -0.6403
 7789TIP3    H247563   0.387   1.876   9.567  0.8685 -1.9893  1.3513
 7790TIP3   OH247564   1.843   0.023   9.086  0.1597  0.1464  0.4034
 7790TIP3    H147565   1.919  -0.035   9.074  0.0131 -0.0468  0.3998
 7790TIP3    H247566   1.845   0.081   9.010  1.6642  1.7040  1.5772
 7791TIP3   OH247567   2.054   1.167   0.380 -0.0190 -0.4786 -0.2107
 7791TIP3    H147568   2.110   1.100   0.418 -0.8645 -0.9822  0.1873
 7791TIP3    H247569   1.995   1.193   0.451  0.0125  0.3719 -0.4832
 7792TIP3   OH247570   4.993   2.602   9.066 -0.0616  0.0026 -0.0809
 7792TIP3    H147571   5.014   2.598   9.159 -0.8710 -1.3140  0.0730
 7792TIP3    H247572   5.011   2.513   9.033 -1.5121 -0.0628 -0.7677
 7793TIP3   OH247573   4.189   7.485   0.849  0.4947  0.4502 -0.0461
 7793TIP3    H147574   4.169   7.526   0.766  0.0931 -1.5089 -0.9778
 7793TIP3    H247575   4.278   7.515   0.870  0.1116  1.9704 -0.4922
 7794TIP3   OH247576   4.706   3.382   2.296  0.4321  0.3615  0.1204
 7794TIP3    H147577   4.631   3.337   2.334 -0.1813  0.9458 -0.3548
 7794TIP3    H247578   4.669   3.461   2.256  1.0524 -0.0871 -1.4586
 7795TIP3   OH247579   3.459   3.603   8.638  0.2829  0.7570 -0.8322
 7795TIP3    H147580   3.449   3.641   8.551  2.6575  2.2082 -0.5678
 7795TIP3    H247581   3.489   3.676   8.693  0.6926 -0.5443  0.7553
 7796TIP3   OH247582   6.379   3.410   8.467 -0.6515 -0.0532  0.2433
 7796TIP3    H147583   6.470   3.437   8.452 -0.9646  1.0718  0.2292
 7796TIP3    H247584   6.370   3.329   8.418 -0.3059  1.0605 -1.8098
 7797TIP3   OH247585   3.517   4.359   8.358  0.4060  0.7442 -0.2065
 7797TIP3    H147586   3.467   4.397   8.430  2.4170  1.3736  0.9484
 7797TIP3    H247587   3.533   4.433   8.299 -0.0359  0.5378 -0.5910
 7798TIP3   OH247588   5.622   3.201   1.407  0.0880 -0.1968 -0.2573
 7798TIP3    H147589   5.590   3.209   1.318 -1.1368  0.6032  0.2323
 7798TIP3    H247590   5.630   3.291   1.438  0.1778 -0.4735  0.5491
 7799TIP3   OH247591   7.639   5.132   0.761 -0.2300 -0.1144  0.2595
 7799TIP3    H147592   7.704   5.138   0.692 -0.8129  1.0805 -0.2106
 7799TIP3    H247593   7.582   5.059   0.734  0.5172 -0.7465  0.3549
 7800TIP3   OH247594   4.603   6.352   7.430 -0.2158 -0.1440  0.4136
 7800TIP3    H147595   4.618   6.431   7.378 -0.2205 -1.2583 -1.3748
 7800TIP3    H247596   4.536   6.304   7.381  1.1668 -2.1478  0.3665
 7801TIP3   OH247597   2.569   3.045   9.038  0.3817  0.5634  0.0043
 7801TIP3    H147598   2.563   3.125   8.986 -0.8587  0.3746 -0.1821
 7801TIP3    H247599   2.528   3.066   9.121  0.0492  0.1319 -0.0450
 7802TIP3   OH247600   4.610   1.775   7.926 -0.4062  0.1208 -0.5372
 7802TIP3    H147601   4.667   1.818   7.989  1.1260  1.0767 -2.4730
 7802TIP3    H247602   4.612   1.832   7.849 -1.5995 -1.3715 -1.7425
 7803TIP3   OH247603   5.621   5.379   0.569  0.3439  0.5519 -0.3121
 7803TIP3    H147604   5.635   5.285   0.584 -0.9021  0.1903 -1.3170
 7803TIP3    H247605   5.604   5.414   0.657  0.3951 -0.2256  0.0215
 7804TIP3   OH247606   5.951   1.074   0.027  0.2704 -0.7131 -0.4014
 7804TIP3    H147607   6.017   1.089  -0.040 -0.5555 -1.0818 -1.3100
 7804TIP3    H247608   5.989   1.114   0.106  1.0293  0.1936 -1.1878
 7805TIP3   OH247609   5.391   0.682   7.539  0.2535  0.6579 -0.4207
 7805TIP3    H147610   5.451   0.627   7.589 -2.1863 -2.5050 -0.6153
 7805TIP3    H247611   5.316   0.695   7.598  0.4318  3.2861 -0.6681
 7806TIP3   OH247612   4.302   4.038   9.744 -0.6134  0.4988  0.4341
 7806TIP3    H147613   4.229   4.008   9.799  0.0225 -1.4127  0.3345
 7806TIP3    H247614   4.380   4.026   9.800  0.0506 -1.5077 -0.8076
 7807TIP3   OH247615   3.840   5.713   6.792  0.0897  0.2505  0.0198
 7807TIP3    H147616   3.832   5.808   6.800 -0.4600  0.2050  0.0340
 7807TIP3    H247617   3.751   5.683   6.772 -0.0509 -0.4267  1.5545
 7808TIP3   OH247618   4.616   7.313   1.201  0.0138 -0.2939 -0.2986
 7808TIP3    H147619   4.668   7.238   1.229 -0.2896 -0.7780 -1.0189
 7808TIP3    H247620   4.680   7.376   1.169  0.3576  0.2047  1.2919
 7809TIP3   OH247621   5.535   2.730   8.517  0.0613  0.1269 -0.3176
 7809TIP3    H147622   5.450   2.764   8.545  0.3687 -0.1807  1.0845
 7809TIP3    H247623   5.594   2.749   8.591  0.7905 -1.2401 -0.5139
 7810TIP3   OH247624   3.598   2.856   0.715  0.1340 -0.1284  0.2030
 7810TIP3    H147625   3.601   2.762   0.734 -1.0404  0.0262  1.2773
 7810TIP3    H247626   3.506   2.873   0.693  0.2392  0.8514  0.4786
 7811TIP3   OH247627   0.909   1.248   0.912 -0.1838 -0.3346  0.0251
 7811TIP3    H147628   0.868   1.178   0.861  0.3596 -0.5050 -0.1850
 7811TIP3    H247629   0.994   1.262   0.870 -0.0231  0.0133  0.4539
 7812TIP3   OH247630   6.491   2.950   7.499 -0.4130  0.4914  0.2783
 7812TIP3    H147631   6.488   2.915   7.588  0.2343  0.2102  0.1953
 7812TIP3    H247632   6.502   3.045   7.511 -0.8105  0.5100  0.4967
 7813TIP3   OH247633   6.834   7.540   8.287  0.4853 -0.7177  0.5876
 7813TIP3    H147634   6.909   7.599   8.284  1.9323 -2.4081  1.2396
 7813TIP3    H247635   6.765   7.590   8.330  0.8981  1.2022 -0.8893
 7814TIP3   OH247636   2.270   2.628   1.558 -0.7486  0.0336  0.2337
 7814TIP3    H147637   2.329   2.645   1.631 -0.9763  1.3989  0.1208
 7814TIP3    H247638   2.323   2.577   1.496  0.6331  1.9741 -0.2624
 7815TIP3   OH247639   1.600   2.588   0.823  0.0112  0.0349 -0.3006
 7815TIP3    H147640   1.582   2.600   0.916  0.8415 -0.1539 -0.1058
 7815TIP3    H247641   1.617   2.677   0.790  0.7312  0.0048 -0.0399
 7816TIP3   OH247642   3.296   0.426   9.299 -0.3598 -0.3050  0.2534
 7816TIP3    H147643   3.336   0.476   9.228  0.4632 -1.3596 -0.0609
 7816TIP3    H247644   3.256   0.350   9.255  0.3072 -1.0590  0.9241
 7817TIP3   OH247645   5.869   4.462   9.960  0.3198  0.4732  0.2546
 7817TIP3    H147646   5.864   4.535   9.898  0.7705  1.0964  0.9237
 7817TIP3    H247647   5.809   4.396   9.925  0.0277  1.0964 -0.4539
 7818TIP3   OH247648   6.403   6.149   8.391 -0.5413  0.0558 -0.0920
 7818TIP3    H147649   6.438   6.234   8.419 -1.4575  0.4711 -0.1784
 7818TIP3    H247650   6.469   6.086   8.420  0.4271  0.8367 -0.5239
 7819TIP3   OH247651   5.353   0.440   2.351 -0.1328  0.0969 -0.4065
 7819TIP3    H147652   5.284   0.500   2.378 -0.5533 -0.8778  0.7470
 7819TIP3    H247653   5.433   0.493   2.351 -0.1787  0.2858  2.3876
 7820TIP3   OH247654   4.344   7.296   9.908 -0.0464  0.4348  0.5676
 7820TIP3    H147655   4.423   7.344   9.882  0.4869 -0.0271  1.2849
 7820TIP3    H247656   4.314   7.253   9.828 -0.1142  1.3639  0.0753
 7821TIP3   OH247657   0.193   0.173   8.283  0.0130 -0.3429 -0.4813
 7821TIP3    H147658   0.261   0.124   8.236 -0.9440 -0.3582 -1.9181
 7821TIP3    H247659   0.228   0.184   8.371  2.3138  0.5173 -1.4287
 7822TIP3   OH247660   3.977   3.913   7.279 -0.2364  0.2865 -0.0173
 7822TIP3    H147661   4.071   3.930   7.287 -0.1797 -0.3682  0.7528
 7822TIP3    H247662   3.971   3.833   7.227 -0.3417  0.0289  0.3829
 7823TIP3   OH247663   5.806   3.140   0.643 -0.3161  0.1353 -0.2682
 7823TIP3    H147664   5.879   3.084   0.616 -1.9432 -1.2404 -2.0216
 7823TIP3    H247665   5.737   3.079   0.669 -0.6431  1.4087  2.1277
 7824TIP3   OH247666   1.254   7.168   7.550  0.1230  0.8195  0.3932
 7824TIP3    H147667   1.243   7.211   7.634 -1.6369  1.9419 -0.3483
 7824TIP3    H247668   1.266   7.075   7.572 -0.9732  0.9895  1.8693
 7825TIP3   OH247669   0.369   1.683   1.508 -0.6952 -0.2741 -0.2757
 7825TIP3    H147670   0.443   1.622   1.506  0.4866  1.0352  0.9880
 7825TIP3    H247671   0.382   1.739   1.431 -0.9106 -0.6264 -0.5728
 7826TIP3   OH247672   6.248   4.121   1.323  0.1028  0.1737  0.3634
 7826TIP3    H147673   6.212   4.193   1.272  0.7931  0.2134 -0.0834
 7826TIP3    H247674   6.203   4.125   1.407 -1.1223  0.0444 -0.2752
 7827TIP3   OH247675   3.735   2.112   8.764 -0.1354 -0.6809 -0.0561
 7827TIP3    H147676   3.793   2.106   8.688 -0.9074 -1.5681 -0.5875
 7827TIP3    H247677   3.649   2.084   8.732 -1.0277  1.1844  0.5790
 7828TIP3   OH247678   5.248   5.992   7.426  0.3606  0.0317 -0.3757
 7828TIP3    H147679   5.276   5.974   7.516  0.4369  0.5980 -0.2818
 7828TIP3    H247680   5.155   5.966   7.425  0.2035  0.5661  0.0305
 7829TIP3   OH247681   2.270   3.771   0.379 -0.2893  0.0148  0.1241
 7829TIP3    H147682   2.340   3.712   0.409 -0.6307 -1.0002 -0.9923
 7829TIP3    H247683   2.256   3.831   0.453 -0.3355 -1.6580  1.5392
 7830TIP3   OH247684   5.403   0.154   1.582 -0.1389 -0.0627  0.2848
 7830TIP3    H147685   5.344   0.200   1.522  1.1963  1.2359 -0.1020
 7830TIP3    H247686   5.371   0.177   1.669 -0.9032 -0.3322  0.0805
 7831TIP3   OH247687   4.437   6.442   1.950 -0.2547 -0.2448 -0.5705
 7831TIP3    H147688   4.524   6.479   1.965 -0.4772 -0.4296  1.4661
 7831TIP3    H247689   4.428   6.375   2.017 -2.5820  0.8753  0.3508
 7832TIP3   OH247690   2.273   5.658   0.809 -0.1960 -0.7157  0.2920
 7832TIP3    H147691   2.353   5.605   0.811  0.4192  0.0354 -1.7637
 7832TIP3    H247692   2.305   5.748   0.811 -0.9615 -0.4082 -0.6899
 7833TIP3   OH247693   0.447   3.669   0.451 -0.2734  0.9237 -1.1162
 7833TIP3    H147694   0.374   3.698   0.395 -1.5295 -0.6607 -0.3850
 7833TIP3    H247695   0.435   3.575   0.459  0.3514  0.9846  1.1541
 7834TIP3   OH247696   4.091   5.478   9.114  0.0443 -0.0779 -0.6497
 7834TIP3    H147697   4.159   5.431   9.065  0.1265  1.0864 -1.6760
 7834TIP3    H247698   4.119   5.569   9.114  0.3038 -0.0675  2.0158
 7835TIP3   OH247699   1.454   4.201   6.395  0.6714  0.3453 -0.4620
 7835TIP3    H147700   1.531   4.248   6.428  0.1480 -0.0639  1.5214
 7835TIP3    H247701   1.399   4.188   6.473 -1.6551  1.0508 -1.8671
 7836TIP3   OH247702   3.334   7.314   0.864  0.5790  0.4891 -0.1481
 7836TIP3    H147703   3.311   7.283   0.952  2.0715 -3.0841 -0.8335
 7836TIP3    H247704   3.406   7.376   0.879 -1.4467  2.6612  1.2366
 7837TIP3   OH247705   3.911   3.597   0.826 -0.7088  0.6582  0.4745
 7837TIP3    H147706   3.839   3.581   0.765 -0.3786 -2.1018  0.6834
 7837TIP3    H247707   3.869   3.608   0.911 -0.9519 -1.6685  0.7229
 7838TIP3   OH247708   4.795   4.767   9.261  0.1509 -0.5713 -0.9136
 7838TIP3    H147709   4.801   4.856   9.226 -0.9168 -0.2803 -0.4005
 7838TIP3    H247710   4.701   4.747   9.259  0.2805 -1.3078 -0.1023
 7839TIP3   OH247711   3.890   3.445   2.059  0.6032  0.2762 -0.0933
 7839TIP3    H147712   3.898   3.529   2.013  1.5997  0.8643  1.0892
 7839TIP3    H247713   3.981   3.416   2.071  0.2745 -0.8464 -0.2670
 7840TIP3   OH247714   6.923   7.567   1.922 -0.3365 -0.4078 -0.7968
 7840TIP3    H147715   6.931   7.537   2.012 -1.5746 -0.4112 -0.6748
 7840TIP3    H247716   6.973   7.649   1.919 -0.7925 -0.0951  0.0436
 7841TIP3   OH247717   2.258   5.583   7.438 -0.3396 -0.0005  0.3774
 7841TIP3    H147718   2.294   5.604   7.524  1.4226 -1.2655 -0.0043
 7841TIP3    H247719   2.325   5.612   7.376  0.4339 -2.9840 -0.3319
 7842TIP3   OH247720   2.548   5.338   2.634 -0.3278  0.0389 -0.5351
 7842TIP3    H147721   2.491   5.262   2.632  0.5137 -0.6120 -0.1888
 7842TIP3    H247722   2.500   5.403   2.686 -0.3588 -0.8211  0.5254
 7843TIP3   OH247723   0.626   2.277   1.297  0.6624 -0.2557  0.0367
 7843TIP3    H147724   0.601   2.273   1.389 -0.9433 -1.2340 -0.3790
 7843TIP3    H247725   0.721   2.264   1.296  0.9747  1.5646  1.6312
 7844TIP3   OH247726   0.291   5.087   2.469 -0.5459  0.3473 -0.1902
 7844TIP3    H147727   0.352   5.140   2.521  0.4586 -0.5405 -0.4398
 7844TIP3    H247728   0.300   5.121   2.380  2.2472 -1.9902 -0.9480
 7845TIP3   OH247729   0.593   1.653   9.490 -0.5261 -0.3061 -0.8184
 7845TIP3    H147730   0.580   1.743   9.459 -1.1014 -0.2184 -0.3358
 7845TIP3    H247731   0.505   1.616   9.492 -0.4613 -0.4415  0.3077
 7846TIP3   OH247732   5.043   4.202   1.723  0.0824 -0.8142  0.2966
 7846TIP3    H147733   5.079   4.113   1.731  0.3610 -0.8161 -0.8029
 7846TIP3    H247734   5.040   4.218   1.629 -1.4012 -0.2291  0.4133
 7847TIP3   OH247735   1.647   1.637   9.365 -1.2955 -0.3250  0.6059
 7847TIP3    H147736   1.681   1.609   9.450  1.8073  0.4539 -0.2333
 7847TIP3    H247737   1.596   1.715   9.383 -3.2248 -1.8348  2.0244
 7848TIP3   OH247738   1.298   0.714   1.973 -0.2968  0.0661 -0.3308
 7848TIP3    H147739   1.272   0.656   1.901  0.4460  0.5515 -1.0177
 7848TIP3    H247740   1.389   0.691   1.990 -0.6506 -0.4836  0.9107
 7849TIP3   OH247741   2.844   1.213   9.721  0.4780  0.1154  0.1524
 7849TIP3    H147742   2.838   1.140   9.659  1.2199  2.2447 -2.6891
 7849TIP3    H247743   2.937   1.234   9.723  0.2505  1.1281  0.6700
 7850TIP3   OH247744   4.117   5.784   1.830  0.0436 -0.2999  0.2860
 7850TIP3    H147745   4.086   5.874   1.824 -0.2279 -0.1511  2.8834
 7850TIP3    H247746   4.212   5.792   1.839 -0.1147 -0.1349  2.0782
 7851TIP3   OH247747   2.385   3.278   7.016 -0.1906 -0.8114 -0.3904
 7851TIP3    H147748   2.432   3.265   7.098 -0.0446  0.3539 -0.2624
 7851TIP3    H247749   2.431   3.351   6.974  0.5906 -2.2613 -2.1609
 7852TIP3   OH247750   1.421   1.277   9.205 -0.6424 -0.0222  0.0759
 7852TIP3    H147751   1.337   1.233   9.201 -1.0013  0.6566  0.0728
 7852TIP3    H247752   1.473   1.225   9.267 -0.5023 -1.3667 -1.1032
 7853TIP3   OH247753   0.533   0.123   9.179 -0.0794  0.5466  0.0872
 7853TIP3    H147754   0.513   0.066   9.105  1.9811  0.0181 -0.1392
 7853TIP3    H247755   0.491   0.081   9.254  0.6593 -0.8187 -0.2327
 7854TIP3   OH247756   5.101   1.924   0.882  0.4179  0.0637 -0.2426
 7854TIP3    H147757   5.091   2.019   0.887  0.9206  0.0490  2.3489
 7854TIP3    H247758   5.093   1.904   0.789 -2.2254  2.3376 -0.6332
 7855TIP3   OH247759   4.226   3.075   8.450 -0.4371 -0.4120 -0.0410
 7855TIP3    H147760   4.138   3.082   8.414  0.2958  0.2765 -1.8310
 7855TIP3    H247761   4.246   2.982   8.446 -0.8537 -0.4954 -0.2310
 7856TIP3   OH247762   1.371   5.158   0.272 -0.1136 -0.2807  0.3826
 7856TIP3    H147763   1.341   5.134   0.184  0.8626  2.3524 -0.7598
 7856TIP3    H247764   1.301   5.213   0.307  0.5407  0.6679  0.2443
 7857TIP3   OH247765   3.643   3.065   7.727  0.1464  0.1782  0.4562
 7857TIP3    H147766   3.678   3.025   7.647  0.4224 -0.7955  1.0508
 7857TIP3    H247767   3.592   2.996   7.768 -0.0544  0.6979  1.0896
 7858TIP3   OH247768   4.259   3.523   1.692  0.1524  0.5850  0.0288
 7858TIP3    H147769   4.337   3.480   1.657  0.6387  2.6777 -1.6874
 7858TIP3    H247770   4.204   3.537   1.614 -1.9222 -0.6893  1.1693
 7859TIP3   OH247771   5.677   1.888   9.408 -0.5508  0.1454 -0.3684
 7859TIP3    H147772   5.714   1.875   9.320  0.4009 -0.5483  0.1137
 7859TIP3    H247773   5.714   1.817   9.460 -1.1115  0.5464  0.5980
 7860TIP3   OH247774   1.035   6.008   8.631  0.2496 -0.5889 -0.0560
 7860TIP3    H147775   0.954   5.981   8.675  0.6078 -1.3507  0.1433
 7860TIP3    H247776   1.104   5.959   8.675  1.1945  2.0036  1.6184
 7861TIP3   OH247777   3.243   4.309   1.744  0.2186 -0.4338 -0.3402
 7861TIP3    H147778   3.264   4.403   1.743  0.3914 -0.4727 -0.5977
 7861TIP3    H247779   3.227   4.289   1.836  1.0334 -0.3324 -0.1654
 7862TIP3   OH247780   0.864   0.109   0.752 -0.1176  0.1780 -0.1625
 7862TIP3    H147781   0.903   0.196   0.758  1.7671 -0.5940 -0.3846
 7862TIP3    H247782   0.771   0.123   0.769  0.2089  2.1553  0.2635
 7863TIP3   OH247783   3.059   3.316   2.173  0.8790 -0.4590 -0.4729
 7863TIP3    H147784   3.014   3.362   2.244 -0.0359 -0.6575 -0.9115
 7863TIP3    H247785   3.148   3.301   2.207  0.1370 -1.5799  1.1069
 7864TIP3   OH247786   4.618   1.635   8.812  0.4364  0.4788  0.0504
 7864TIP3    H147787   4.551   1.701   8.793  0.9004  0.6411 -1.1050
 7864TIP3    H247788   4.659   1.665   8.893  1.1782  2.0765 -0.8598
 7865TIP3   OH247789   5.103   7.059   0.481 -0.1298  0.0523  0.4134
 7865TIP3    H147790   5.154   6.980   0.466 -0.4437 -0.4421  1.8010
 7865TIP3    H247791   5.168   7.129   0.492  0.1686 -0.1735  0.1066
 7866TIP3   OH247792   2.133   2.653   9.132  0.3482 -0.1288  0.2824
 7866TIP3    H147793   2.049   2.697   9.133  0.2866 -0.2244 -0.2206
 7866TIP3    H247794   2.118   2.570   9.179 -0.6933 -1.6279 -2.4647
 7867TIP3   OH247795   5.108   1.105   0.669 -0.6300 -0.2395  0.3381
 7867TIP3    H147796   5.062   1.173   0.718  1.1094 -0.4213  2.3311
 7867TIP3    H247797   5.048   1.031   0.670 -2.2381  0.9493 -1.2197
 7868TIP3   OH247798   6.948   5.102   8.657  0.4787 -0.1279 -0.4961
 7868TIP3    H147799   6.948   5.007   8.643 -0.6021  0.0626 -2.2034
 7868TIP3    H247800   6.971   5.138   8.571 -0.9676  1.1632 -0.3822
 7869TIP3   OH247801   4.016   4.263   2.227  0.2769 -0.0503  0.1895
 7869TIP3    H147802   3.948   4.214   2.180  0.4249 -1.5860  1.4943
 7869TIP3    H247803   3.994   4.251   2.319  1.8444  0.1189  0.6101
 7870TIP3   OH247804   3.063   5.586   9.360 -0.4755  0.1157  0.3797
 7870TIP3    H147805   2.969   5.583   9.379 -0.3071  1.5940  1.5589
 7870TIP3    H247806   3.105   5.592   9.445  0.7181 -0.5688 -0.1305
 7871TIP3   OH247807   2.168   4.170   7.580  0.2362  0.7283 -0.1446
 7871TIP3    H147808   2.132   4.177   7.492  1.9326  1.8119 -0.8090
 7871TIP3    H247809   2.159   4.078   7.603 -1.5479  0.6868 -0.8350
 7872TIP3   OH247810   1.931   4.399   7.333  0.5647  0.4075  0.2182
 7872TIP3    H147811   1.977   4.316   7.350  0.4482  0.6333  1.8512
 7872TIP3    H247812   1.892   4.387   7.247  0.5659 -1.2498  0.3969
 7873TIP3   OH247813   4.060   7.211   1.134  0.5150 -0.7181 -0.0654
 7873TIP3    H147814   3.993   7.242   1.073 -0.2507 -0.1141  1.0428
 7873TIP3    H247815   4.117   7.287   1.146  0.3762 -0.6766  0.3425
 7874TIP3   OH247816   2.988   2.498   0.837  0.4101  0.0553  0.8452
 7874TIP3    H147817   3.058   2.433   0.843 -0.9777 -1.3864  2.8222
 7874TIP3    H247818   2.911   2.453   0.870 -1.0894  2.1281  0.3729
 7875TIP3   OH247819   0.090   0.216   0.890  0.3083 -0.0635 -0.2330
 7875TIP3    H147820   0.099   0.272   0.813  0.2233  0.0161 -0.1835
 7875TIP3    H247821   0.069   0.275   0.962  3.0582  0.2376  0.4269
 7876TIP3   OH247822   0.428   4.248   7.147 -0.2624 -0.0709  0.7476
 7876TIP3    H147823   0.466   4.183   7.207  1.6781 -0.1198 -0.4449
 7876TIP3    H247824   0.491   4.254   7.075 -2.7950 -0.5278 -1.6764
 7877TIP3   OH247825   3.375   3.413   8.821  0.0827 -0.4383  0.6708
 7877TIP3    H147826   3.438   3.414   8.893 -0.6641  0.1794  1.3280
 7877TIP3    H247827   3.414   3.468   8.754  1.2680 -1.8471  0.1579
 7878TIP3   OH247828   1.397   3.521   9.759 -0.0349 -0.3899  0.2400
 7878TIP3    H147829   1.409   3.551   9.669 -2.1700  0.1864  0.0968
 7878TIP3    H247830   1.467   3.564   9.808  0.8479 -0.3155 -1.0385
 7879TIP3   OH247831   1.242   2.428   0.262  0.2690 -0.0390 -0.5940
 7879TIP3    H147832   1.260   2.456   0.352  0.4568 -1.4466 -0.1575
 7879TIP3    H247833   1.187   2.350   0.273  0.1894 -0.1486 -1.7115
 7880TIP3   OH247834   4.148   5.282   8.491  0.0370 -0.6292  0.1664
 7880TIP3    H147835   4.169   5.341   8.563  1.2183 -1.7442  0.7569
 7880TIP3    H247836   4.053   5.272   8.496  0.1074 -0.7579  1.6254
 7881TIP3   OH247837   0.399   2.273   2.213 -0.2438  0.0490  0.3296
 7881TIP3    H147838   0.484   2.242   2.246 -0.0748 -0.3284 -0.4332
 7881TIP3    H247839   0.357   2.314   2.289  0.0581 -0.9536  1.0617
 7882TIP3   OH247840   0.603   0.986   2.665  0.2059 -0.8826 -0.3487
 7882TIP3    H147841   0.646   1.017   2.585 -1.1315  0.4282 -0.6101
 7882TIP3    H247842   0.510   1.001   2.648 -0.0632  0.0547  1.7084
 7883TIP3   OH247843   7.638   5.869   8.324 -0.1934 -0.4122 -0.0640
 7883TIP3    H147844   7.550   5.893   8.295 -0.0349  0.5082  0.1929
 7883TIP3    H247845   7.654   5.785   8.282 -1.5263 -1.0094  0.5701
 7884TIP3   OH247846   4.508   1.056   7.900  0.3502  0.0950  0.1321
 7884TIP3    H147847   4.571   1.080   7.833 -0.7923 -0.1009 -1.0375
 7884TIP3    H247848   4.562   1.020   7.971  1.4557 -1.6051 -1.4843
 7885TIP3   OH247849   1.321   1.973   8.859 -0.1316  0.1668  0.2098
 7885TIP3    H147850   1.313   1.911   8.787 -1.0519 -0.5253  0.8963
 7885TIP3    H247851   1.376   2.044   8.823 -2.4200  0.9928 -1.9316
 7886TIP3   OH247852   0.015   4.725   2.087 -0.3347  0.2725 -0.5128
 7886TIP3    H147853   0.067   4.693   2.013 -1.5929  0.1686 -1.3840
 7886TIP3    H247854  -0.073   4.694   2.069 -0.8419  1.0348  0.5760
 7887TIP3   OH247855   0.168   2.505   2.251 -0.2883  0.0634 -0.3760
 7887TIP3    H147856   0.143   2.413   2.259  0.0722  0.1026  2.3720
 7887TIP3    H247857   0.095   2.553   2.290 -1.6991  1.2778 -4.1105
 7888TIP3   OH247858   6.825   4.680   0.884  0.2798  0.1930  0.4357
 7888TIP3    H147859   6.860   4.763   0.914  1.0920 -0.7301  2.2561
 7888TIP3    H247860   6.899   4.620   0.887 -0.0392 -0.4041 -1.8564
 7889TIP3   OH247861   2.298   5.055   1.763 -0.0843 -0.0668 -0.6312
 7889TIP3    H147862   2.296   5.004   1.682 -1.2034 -0.4242 -0.3880
 7889TIP3    H247863   2.224   5.022   1.815 -0.8763  1.8396 -0.4847
 7890TIP3   OH247864   1.040   6.906   1.156 -0.7287  0.2853  0.0872
 7890TIP3    H147865   0.970   6.849   1.189 -0.7177  0.7550  0.9473
 7890TIP3    H247866   1.022   6.913   1.062 -0.3048 -1.7110 -0.1862
 7891TIP3   OH247867   4.395   5.155   9.735  0.4285  0.3561  0.0809
 7891TIP3    H147868   4.332   5.225   9.751  0.3722  0.2103  0.5179
 7891TIP3    H247869   4.341   5.080   9.711  0.5348  0.6890 -1.2699
 7892TIP3   OH247870   6.141   5.234   8.478  0.7341 -0.5416 -0.4198
 7892TIP3    H147871   6.078   5.181   8.429 -0.8209 -0.4925  1.3868
 7892TIP3    H247872   6.186   5.286   8.412 -1.4205 -0.2993 -1.7896
 7893TIP3   OH247873   0.009   5.953   7.818 -0.3763  0.0637  0.2903
 7893TIP3    H147874  -0.024   5.864   7.820  1.0020 -0.5267 -0.8904
 7893TIP3    H247875  -0.068   6.008   7.805 -1.1246 -1.0499 -0.0953
 7894TIP3   OH247876   3.848   2.565   8.027 -0.2541  0.2025 -0.5598
 7894TIP3    H147877   3.804   2.632   7.974  0.2670  0.6378 -0.4553
 7894TIP3    H247878   3.835   2.484   7.979 -1.5798  0.2290 -0.2952
 7895TIP3   OH247879   3.296   4.947   9.640  0.0185 -0.3650 -0.3729
 7895TIP3    H147880   3.333   4.868   9.598 -0.4256  0.1008 -1.6997
 7895TIP3    H247881   3.203   4.943   9.619 -0.0942  0.2306  0.0202
 7896TIP3   OH247882   7.165   7.427   7.904 -0.4882  0.0879 -0.2979
 7896TIP3    H147883   7.135   7.458   7.818 -2.6173  1.8619  0.9656
 7896TIP3    H247884   7.084   7.407   7.951  0.6291 -0.6291  1.3991
 7897TIP3   OH247885   2.901   3.470   1.189  0.9477  0.0361 -0.0479
 7897TIP3    H147886   2.893   3.506   1.277 -0.6545 -1.6981  0.5811
 7897TIP3    H247887   2.955   3.534   1.142  1.6557  1.1230  2.0958
 7898TIP3   OH247888   4.920   5.262   7.706 -0.1234  0.1590 -0.5724
 7898TIP3    H147889   4.919   5.207   7.627  0.2166 -1.0749  0.2394
 7898TIP3    H247890   5.013   5.282   7.720 -0.1774  0.3278 -0.4552
 7899TIP3   OH247891   0.950   3.436   1.030  0.5204 -0.1129 -0.0235
 7899TIP3    H147892   0.867   3.412   0.990  0.8605  0.9025 -1.4186
 7899TIP3    H247893   0.991   3.496   0.967  2.1462 -0.3069  0.7876
 7900TIP3   OH247894   4.523   3.949   0.827  0.2052 -0.0901 -0.1617
 7900TIP3    H147895   4.458   3.988   0.769 -0.0636 -0.7594 -0.3223
 7900TIP3    H247896   4.604   3.996   0.808 -0.1511  0.4937 -0.2309
 7901TIP3   OH247897   1.183   1.129   2.244  0.0401  0.0820 -0.0002
 7901TIP3    H147898   1.220   1.045   2.219  2.0996  0.8802  0.1734
 7901TIP3    H247899   1.166   1.121   2.338 -1.6737 -0.7699 -0.3462
 7902TIP3   OH247900   1.548   5.639   0.322  0.0059  0.1290 -0.7656
 7902TIP3    H147901   1.546   5.734   0.310 -1.2045  0.7040  2.8379
 7902TIP3    H247902   1.456   5.614   0.334  0.4180 -1.2395 -0.2222
 7903TIP3   OH247903   3.804   6.111   1.909 -0.7579 -0.2955  0.5106
 7903TIP3    H147904   3.859   6.109   1.831 -1.2403  3.9004 -0.1916
 7903TIP3    H247905   3.719   6.078   1.880 -0.1049 -1.7381  0.1691
 7904TIP3   OH247906   3.097   5.140   8.495 -0.9089  0.2128 -0.2202
 7904TIP3    H147907   3.047   5.106   8.568  0.6593  1.5220  1.5634
 7904TIP3    H247908   3.129   5.225   8.525  2.7561 -0.7019 -0.9740
 7905TIP3   OH247909   1.089   4.735   9.222 -0.0117 -0.4508 -0.1098
 7905TIP3    H147910   1.064   4.824   9.200 -0.7184 -0.2074  1.5022
 7905TIP3    H247911   1.177   4.743   9.258  0.4826 -0.6206 -1.2389
 7906TIP3   OH247912   3.802   4.015   0.263  0.1861 -0.1090  0.7089
 7906TIP3    H147913   3.847   4.074   0.323 -0.3349 -0.6067  1.6119
 7906TIP3    H247914   3.862   3.940   0.255  0.7821  0.4567 -0.3244
 7907TIP3   OH247915   3.125   6.342   1.960 -0.0670 -0.1529  0.0234
 7907TIP3    H147916   3.074   6.403   2.013 -2.8218 -2.2603  0.0320
 7907TIP3    H247917   3.119   6.377   1.871 -1.0726 -0.0748  0.1165
 7908TIP3   OH247918   7.635   4.610   8.293  0.4313  0.4095 -0.4672
 7908TIP3    H147919   7.549   4.611   8.336  0.5921  2.0165 -0.1388
 7908TIP3    H247920   7.634   4.529   8.241 -0.6495 -0.4204  0.7628
 7909TIP3   OH247921   4.067   1.468   8.916  0.1636 -0.3983 -0.0795
 7909TIP3    H147922   4.047   1.562   8.915  1.0040 -0.1783  1.1992
 7909TIP3    H247923   3.984   1.425   8.897 -0.2458  0.6012 -0.6113
 7910TIP3   OH247924   1.018   2.968   9.720  0.1725 -0.3498  0.1551
 7910TIP3    H147925   0.988   2.899   9.660 -1.8480 -1.0338  1.8143
 7910TIP3    H247926   0.985   2.941   9.806 -1.2838  2.9475  0.8012
 7911TIP3   OH247927   3.666   2.444   0.405  0.0640  0.1032 -0.0004
 7911TIP3    H147928   3.570   2.445   0.405  0.0459  1.6387  1.2008
 7911TIP3    H247929   3.689   2.388   0.331 -1.7530 -3.1014  1.6536
 7912TIP3   OH247930   1.886   3.431   9.722  0.7067 -0.4343  0.2938
 7912TIP3    H147931   1.834   3.493   9.773  1.7285  0.9054 -0.2296
 7912TIP3    H247932   1.907   3.360   9.783  1.0001  0.6130  1.4272
 7913TIP3   OH247933   5.046   4.494   9.070  0.2998  0.7015  0.0671
 7913TIP3    H147934   5.062   4.428   9.138  1.3199  1.6912  0.8348
 7913TIP3    H247935   4.951   4.499   9.063  0.1556  0.7972  1.6737
 7914TIP3   OH247936   1.341   1.245   9.809  0.5565 -0.0519  0.1611
 7914TIP3    H147937   1.266   1.186   9.804  0.0639  0.6653 -3.0792
 7914TIP3    H247938   1.371   1.238   9.900 -1.4597 -2.7526  0.7492
 7915TIP3   OH247939   2.233   4.506   7.466 -0.4179 -0.1708 -0.8926
 7915TIP3    H147940   2.172   4.494   7.393 -2.3552  2.0890  0.2227
 7915TIP3    H247941   2.263   4.597   7.457 -1.3911  0.4706  1.5262
 7916TIP3   OH247942   5.797   4.221   7.816 -0.3807  0.0434  0.3129
 7916TIP3    H147943   5.714   4.266   7.831  0.1948  0.9998  0.7472
 7916TIP3    H247944   5.797   4.200   7.723 -0.7847  0.7303  0.1515
 7917TIP3   OH247945   4.379   2.370   8.549 -0.2279  0.9115 -0.2056
 7917TIP3    H147946   4.296   2.396   8.587 -0.0579 -0.3392  1.1377
 7917TIP3    H247947   4.441   2.438   8.575 -0.4856  0.9762  0.2327
 7918TIP3   OH247948   1.568   2.497   2.225  0.2000 -0.9165 -0.2676
 7918TIP3    H147949   1.655   2.494   2.264  0.0948  0.5873  0.1504
 7918TIP3    H247950   1.566   2.581   2.178 -1.3804 -0.3920  0.6660
 7919TIP3   OH247951   6.231   0.044   9.268  0.1833  0.0622 -0.1320
 7919TIP3    H147952   6.263  -0.045   9.279  0.0647  0.0786  0.3797
 7919TIP3    H247953   6.272   0.093   9.339  0.1266  0.3789 -0.3191
 7920TIP3   OH247954   3.642   4.539   8.191  0.0019 -0.2934  0.1463
 7920TIP3    H147955   3.689   4.575   8.267  2.5619 -1.5810 -0.6938
 7920TIP3    H247956   3.615   4.616   8.141  1.3128  0.5423  0.6685
 7921TIP3   OH247957   7.432   1.152   0.836  0.4229  0.3672 -0.0284
 7921TIP3    H147958   7.446   1.160   0.741  0.0170 -1.7151 -0.3160
 7921TIP3    H247959   7.337   1.139   0.845  0.5132  0.1431  0.6197
 7922TIP3   OH247960   4.714   2.770   9.447 -0.6619 -0.2741  0.3956
 7922TIP3    H147961   4.668   2.755   9.364 -0.0935 -0.6085  0.1395
 7922TIP3    H247962   4.805   2.785   9.422 -0.3316 -1.1562  1.0054
 7923TIP3   OH247963   3.114   5.729   2.066 -0.3247  0.2708  0.1706
 7923TIP3    H147964   3.193   5.728   2.013 -0.9035  1.0723 -0.7386
 7923TIP3    H247965   3.062   5.655   2.035 -0.0774 -0.0646  0.5490
 7924TIP3   OH247966   6.971   1.188   7.758  0.1856 -0.2889 -0.4144
 7924TIP3    H147967   6.990   1.271   7.714  0.8659 -0.1864  0.0473
 7924TIP3    H247968   6.876   1.187   7.769  0.3341  1.6760  1.9086
 7925TIP3   OH247969   0.005   2.663   1.096  0.4185  0.0568 -0.2842
 7925TIP3    H147970  -0.086   2.645   1.071  0.9018 -1.3174 -1.2025
 7925TIP3    H247971   0.020   2.608   1.173  0.7085 -0.3848 -0.6500
 7926TIP3   OH247972   2.216   3.138   9.404 -0.1365  0.4884  0.0708
 7926TIP3    H147973   2.185   3.146   9.494  3.2529 -1.3173  1.5975
 7926TIP3    H247974   2.159   3.196   9.354 -1.6744  2.2431  3.4784
 7927TIP3   OH247975   5.254   3.721   8.638  0.7270  0.3562  0.3117
 7927TIP3    H147976   5.257   3.772   8.557 -2.1876  1.3028  0.6921
 7927TIP3    H247977   5.289   3.780   8.705 -1.4693  1.5183  0.5291
 7928TIP3   OH247978   5.386   2.831   1.555  0.3432 -0.4121  0.2859
 7928TIP3    H147979   5.441   2.884   1.612 -1.5701  3.1451 -0.8623
 7928TIP3    H247980   5.299   2.833   1.596 -0.2934 -0.6928 -0.9928
 7929TIP3   OH247981   5.348   2.389   9.504  0.2819 -0.4281  0.1851
 7929TIP3    H147982   5.424   2.440   9.478  0.0470 -0.6615 -1.0207
 7929TIP3    H247983   5.273   2.445   9.483  0.0838 -0.5610  0.5199
 7930TIP3   OH247984   0.034   1.225   0.168 -0.1814 -0.5387  0.1296
 7930TIP3    H147985   0.080   1.297   0.124 -2.2057  0.2121 -0.8799
 7930TIP3    H247986   0.060   1.147   0.120  1.0510 -0.3499  0.4406
 7931TIP3   OH247987   7.496   6.479   9.592 -0.5637  0.5107 -0.1634
 7931TIP3    H147988   7.475   6.549   9.653 -1.8033 -0.0481  0.0941
 7931TIP3    H247989   7.555   6.421   9.640  1.4019  1.9367 -0.7720
 7932TIP3   OH247990   1.889   5.905   8.659  0.5513 -0.2291  0.1327
 7932TIP3    H147991   1.826   5.853   8.608  0.6268 -0.2622  0.0729
 7932TIP3    H247992   1.899   5.856   8.741 -0.2177  0.2627  0.5344
 7933TIP3   OH247993   4.727   1.936   0.017 -0.3619  0.1733 -0.0349
 7933TIP3    H147994   4.782   1.888   0.080 -0.0984  0.7237  0.1607
 7933TIP3    H247995   4.764   1.913  -0.069  1.1316  1.6658  0.1584
 7934TIP3   OH247996   3.342   0.053   1.508  0.3047  0.1581  0.1165
 7934TIP3    H147997   3.318   0.034   1.417 -1.2452 -1.1351  0.7453
 7934TIP3    H247998   3.415  -0.006   1.527  2.1425  1.9701 -0.8881
 7935TIP3   OH247999   3.479   5.015   1.487  0.2884 -0.3848  0.1903
 7935TIP3    H148000   3.426   5.088   1.456  0.0609 -0.6191  0.0317
 7935TIP3    H248001   3.416   4.949   1.515  0.4711  0.0247  1.6502
 7936TIP3   OH248002   1.739   4.351   8.104  0.5790  0.4914 -0.6809
 7936TIP3    H148003   1.717   4.443   8.094 -0.5791  0.2543 -0.4253
 7936TIP3    H248004   1.717   4.330   8.195 -0.7447 -0.4371 -1.1910
 7937TIP3   OH248005   4.106   3.320   0.505 -0.3604  0.3977 -0.3035
 7937TIP3    H148006   4.085   3.306   0.597  0.1186  0.9025 -0.1170
 7937TIP3    H248007   4.193   3.280   0.494 -0.5217  0.1141 -0.6017
 7938TIP3   OH248008   0.477   4.558   8.334  0.1990 -0.4990  0.7684
 7938TIP3    H148009   0.388   4.526   8.323  0.6806 -1.1686 -1.7208
 7938TIP3    H248010   0.467   4.651   8.358 -1.1321 -0.6412  0.8253
 7939TIP3   OH248011   5.131   6.332   0.592  0.4437  0.0754  0.2310
 7939TIP3    H148012   5.124   6.285   0.509  1.4014 -1.0400  0.7425
 7939TIP3    H248013   5.221   6.364   0.594  0.3060  0.4496  0.6615
 7940TIP3   OH248014   0.707   7.634   2.776  0.2380  0.2768 -0.0362
 7940TIP3    H148015   0.798   7.659   2.794  0.5774 -1.5908  1.1351
 7940TIP3    H248016   0.655   7.690   2.833  0.7191  0.6999 -0.0046
 7941TIP3   OH248017   6.952   5.911   0.772 -0.1222  0.6261 -0.3043
 7941TIP3    H148018   6.941   6.006   0.764  1.3666  0.9141  0.8143
 7941TIP3    H248019   7.045   5.896   0.759 -0.5057 -0.8444 -1.6572
 7942TIP3   OH248020   6.173   4.341   9.722 -0.1729 -0.3646  0.0067
 7942TIP3    H148021   6.266   4.329   9.740 -0.1506 -0.2992 -0.0674
 7942TIP3    H248022   6.170   4.385   9.637 -0.2616  0.1092  0.2517
 7943TIP3   OH248023   2.376   6.430   7.443 -0.2026  0.4069  0.1965
 7943TIP3    H148024   2.289   6.468   7.431 -0.0564  0.3795 -1.1202
 7943TIP3    H248025   2.431   6.475   7.379  0.5170 -0.3232  0.2815
 7944TIP3   OH248026   0.281   4.523   1.642 -0.1668 -0.2956  0.8692
 7944TIP3    H148027   0.298   4.452   1.579  1.0751 -0.3140  1.2002
 7944TIP3    H248028   0.301   4.484   1.727  0.4028  0.4052  1.0656
 7945TIP3   OH248029   7.535   3.538   7.886 -0.4296 -0.5408  0.2604
 7945TIP3    H148030   7.610   3.547   7.945  0.2223  0.4569 -0.6839
 7945TIP3    H248031   7.527   3.444   7.873 -0.3151 -0.7578  1.5817
 7946TIP3   OH248032   0.862   1.381   9.058 -0.1543  0.3667  0.2345
 7946TIP3    H148033   0.791   1.330   9.098 -0.5531  1.1373  0.5359
 7946TIP3    H248034   0.880   1.336   8.976 -0.3542 -0.3771  0.5894
 7947TIP3   OH248035   1.608   0.864   9.591  0.2455  0.1061 -0.6823
 7947TIP3    H148036   1.581   0.772   9.588 -1.2632  0.3235  2.0055
 7947TIP3    H248037   1.695   0.865   9.552  0.4249 -2.5270 -0.5774
 7948TIP3   OH248038   7.336   2.604   2.022  0.0493  0.0940 -0.1326
 7948TIP3    H148039   7.367   2.692   2.042  0.0973  0.1265 -0.3443
 7948TIP3    H248040   7.325   2.562   2.107 -2.0590  1.0004  0.1040
 7949TIP3   OH248041   0.846   6.204   0.905 -0.1996  0.8134  0.0314
 7949TIP3    H148042   0.797   6.284   0.924 -1.5643 -0.5939  3.3290
 7949TIP3    H248043   0.925   6.211   0.958 -1.2443 -0.7052  1.9507
 7950TIP3   OH248044   4.015   3.667   9.008 -0.1040  0.7818 -0.1785
 7950TIP3    H148045   3.938   3.702   8.964 -0.6423  0.9961  0.8966
 7950TIP3    H248046   3.998   3.573   9.015  0.1418  0.6944 -0.7282
 7951TIP3   OH248047   2.000   1.457   7.476 -0.3538  0.1022  0.4453
 7951TIP3    H148048   1.922   1.500   7.510 -1.4884 -1.3313 -0.2511
 7951TIP3    H248049   1.973   1.367   7.460  1.4177 -0.4025  0.0662
 7952TIP3   OH248050   4.741   5.784   9.830 -0.3175 -0.0236 -0.5449
 7952TIP3    H148051   4.696   5.716   9.780 -0.4835 -0.9042  0.7480
 7952TIP3    H248052   4.817   5.807   9.776  0.9658 -2.7865 -0.1052
 7953TIP3   OH248053   1.892   1.546   9.918 -0.5365  0.1456 -0.0825
 7953TIP3    H148054   1.898   1.497   9.836 -0.0643  0.8761 -0.4847
 7953TIP3    H248055   1.850   1.628   9.894  0.8087  0.9283  0.1483
 7954TIP3   OH248056   0.187   1.989   2.345 -0.0018  0.5463  0.1614
 7954TIP3    H148057   0.282   2.001   2.342  0.0789 -0.1423 -0.5137
 7954TIP3    H248058   0.155   2.063   2.397  0.8954  0.8114  0.3610
 7955TIP3   OH248059   7.518   6.589   7.848  0.4378  0.0401  0.1816
 7955TIP3    H148060   7.546   6.499   7.866 -3.2198 -0.7711  3.1481
 7955TIP3    H248061   7.548   6.639   7.923  0.3592  0.7631 -0.2587
 7956TIP3   OH248062   3.443   4.923   1.092  0.0534 -0.2021 -0.1175
 7956TIP3    H148063   3.366   4.870   1.113  0.2466 -0.6980 -0.6330
 7956TIP3    H248064   3.428   4.951   1.002  1.2413 -1.6960 -0.8179
 7957TIP3   OH248065   2.896   7.377   1.797 -0.5607  0.7213  0.1095
 7957TIP3    H148066   2.920   7.446   1.736  1.0919  0.5402  0.5103
 7957TIP3    H248067   2.901   7.297   1.746 -3.8872  0.9275 -0.7504
 7958TIP3   OH248068   7.678   1.773   7.908 -0.1017  0.4926  0.2073
 7958TIP3    H148069   7.585   1.776   7.884  0.1981  2.2770 -0.9581
 7958TIP3    H248070   7.679   1.792   8.001 -0.9803 -1.0294  0.5621
 7959TIP3   OH248071   3.871   0.521   2.173  0.0509  0.9756  0.2434
 7959TIP3    H148072   3.935   0.592   2.180  1.1227  0.0844 -0.2607
 7959TIP3    H248073   3.919   0.449   2.133 -1.3394  0.3563 -0.3968
 7960TIP3   OH248074   6.173   7.250   0.143  1.0201 -1.2120 -0.5020
 7960TIP3    H148075   6.191   7.343   0.156 -1.4025 -0.7478  0.0474
 7960TIP3    H248076   6.225   7.206   0.211  1.6234 -0.2133 -0.2928
 7961TIP3   OH248077   2.432   1.128   7.664  0.5199  0.0673  0.0985
 7961TIP3    H148078   2.418   1.053   7.607 -1.4630  0.6738 -0.3099
 7961TIP3    H248079   2.479   1.093   7.740  0.6295 -1.3337 -0.5901
 7962TIP3   OH248080   5.638   6.698   9.212  0.6491 -0.0200 -0.1469
 7962TIP3    H148081   5.728   6.669   9.225  0.3015 -1.2869 -0.4576
 7962TIP3    H248082   5.646   6.781   9.165  1.6610 -1.4403 -2.6975
 7963TIP3   OH248083   5.807   3.208   8.814  0.0760  0.1615 -0.0791
 7963TIP3    H148084   5.862   3.278   8.848 -0.1001 -0.3244  1.2492
 7963TIP3    H248085   5.748   3.251   8.752  1.0752  0.8948 -0.5657
 7964TIP3   OH248086   4.085   5.065   8.651  0.2200  0.5750 -0.1186
 7964TIP3    H148087   4.162   5.090   8.702  1.0106  0.5947 -1.2825
 7964TIP3    H248088   4.011   5.081   8.710  0.9943  1.9091  0.5320
 7965TIP3   OH248089   3.272   1.309   8.660  0.2062 -0.7305 -0.6676
 7965TIP3    H148090   3.182   1.293   8.632 -0.7115  0.5942  1.2818
 7965TIP3    H248091   3.310   1.222   8.672 -0.9802 -1.3151 -0.9882
 7966TIP3   OH248092   4.633   1.710   1.256 -0.1034  0.5173  0.7105
 7966TIP3    H148093   4.566   1.722   1.188 -1.3057  1.1480  1.9613
 7966TIP3    H248094   4.706   1.670   1.210 -1.3287 -0.1853 -0.7213
 7967TIP3   OH248095   1.405   3.172   1.726 -0.8129  0.3114  1.0129
 7967TIP3    H148096   1.379   3.199   1.638  0.0975 -2.2366 -0.1353
 7967TIP3    H248097   1.501   3.171   1.723 -0.7777 -1.8919  1.2648
 7968TIP3   OH248098   0.574   4.128   8.194 -0.0161 -0.4429 -0.0144
 7968TIP3    H148099   0.501   4.092   8.143 -1.9198  2.1831  0.6395
 7968TIP3    H248100   0.544   4.123   8.285  0.2160  1.4239  0.2022
 7969TIP3   OH248101   1.804   5.911   2.393  0.5166 -0.2081 -0.1447
 7969TIP3    H148102   1.750   5.934   2.318  0.7087 -1.5893 -0.7396
 7969TIP3    H248103   1.744   5.913   2.468 -0.8848 -3.3664 -1.0193
 7970TIP3   OH248104   6.127   1.885   8.384  0.0164 -0.2021 -0.1116
 7970TIP3    H148105   6.079   1.816   8.338 -0.2418 -1.4577  1.9238
 7970TIP3    H248106   6.064   1.957   8.390 -0.3709 -0.4921 -0.5637
 7971TIP3   OH248107   5.734   7.533   1.414  0.0848 -0.1017 -0.2574
 7971TIP3    H148108   5.644   7.520   1.386 -0.6933 -0.6449  2.2349
 7971TIP3    H248109   5.762   7.447   1.446  1.0261  0.3597  0.2249
 7972TIP3   OH248110   6.497   3.887   8.967  0.0097 -0.0787  0.1498
 7972TIP3    H148111   6.402   3.896   8.959 -0.1437 -1.2073  0.4877
 7972TIP3    H248112   6.518   3.934   9.047 -0.5282 -1.2292  1.0061
 7973TIP3   OH248113   1.995   6.333   1.762 -0.7331 -0.0080 -0.0567
 7973TIP3    H148114   2.085   6.348   1.734 -1.0696 -0.3732 -1.4141
 7973TIP3    H248115   1.942   6.391   1.707 -1.4892 -1.3956 -0.8553
 7974TIP3   OH248116   6.202   4.109   9.501 -0.0348  0.1578 -0.0393
 7974TIP3    H148117   6.207   4.188   9.556  1.3594 -1.2820  2.0703
 7974TIP3    H248118   6.129   4.059   9.537 -0.7028  0.2825 -1.1594
 7975TIP3   OH248119   0.903   5.844   2.372  0.3311  0.7938  0.3371
 7975TIP3    H148120   0.925   5.868   2.462  0.6478  2.5588 -0.1661
 7975TIP3    H248121   0.825   5.789   2.381  1.2070 -0.2913  1.7544
 7976TIP3   OH248122   5.634   5.386   8.014  0.0840 -0.3199  0.0439
 7976TIP3    H148123   5.629   5.423   8.102  1.0265  2.2947 -0.8924
 7976TIP3    H248124   5.724   5.355   8.006  0.3148  0.4099 -0.3099
 7977TIP3   OH248125   4.081   7.392   8.908  0.0434  0.0166  0.6670
 7977TIP3    H148126   4.054   7.484   8.901  0.4687  0.2102  1.4483
 7977TIP3    H248127   4.013   7.344   8.860 -0.6570  0.6632  0.9721
 7978TIP3   OH248128   4.548   3.459   1.249 -0.4009 -0.0701 -0.1720
 7978TIP3    H148129   4.493   3.391   1.209  1.9141 -1.1900 -1.7476
 7978TIP3    H248130   4.565   3.520   1.178  0.6728  0.0242  0.1502
 7979TIP3   OH248131   6.247   6.851   9.960 -0.2189  0.5543 -0.0212
 7979TIP3    H148132   6.187   6.923   9.978 -0.4618  0.3227  0.1073
 7979TIP3    H248133   6.209   6.776  10.006  0.7262  0.6495  0.9745
 7980TIP3   OH248134   0.161   5.558   1.459  0.1538  0.3376  0.4365
 7980TIP3    H148135   0.253   5.576   1.474  0.3236 -0.2562  0.1336
 7980TIP3    H248136   0.146   5.584   1.367 -0.0099  0.5333  0.5166
 7981TIP3   OH248137   1.364   7.108   0.378 -0.5956 -0.2682 -0.5033
 7981TIP3    H148138   1.442   7.158   0.356  0.4334 -1.2838  0.7058
 7981TIP3    H248139   1.309   7.170   0.427  1.1911 -0.5197  2.0404
 7982TIP3   OH248140   3.915   2.811   7.820 -0.1029 -0.4252  0.2763
 7982TIP3    H148141   3.880   2.808   7.731  2.2987  1.2102 -0.8119
 7982TIP3    H248142   4.009   2.797   7.809  0.2129 -0.4949  2.6171
 7983TIP3   OH248143   3.684   5.709   9.482 -0.1972 -0.0315 -0.3854
 7983TIP3    H148144   3.597   5.724   9.446 -0.3403 -0.0415 -0.0484
 7983TIP3    H248145   3.668   5.675   9.570  0.1414 -0.3958 -0.4600
 7984TIP3   OH248146   5.219   3.434   9.524 -0.1688  0.0243  0.0470
 7984TIP3    H148147   5.135   3.414   9.483 -0.9381  0.0249  1.5343
 7984TIP3    H248148   5.257   3.348   9.543  1.0959 -0.0173 -2.3018
 7985TIP3   OH248149   4.838   6.137   2.072  0.7117 -0.2142  0.5597
 7985TIP3    H148150   4.810   6.117   1.982  0.4380  0.6839  0.4326
 7985TIP3    H248151   4.853   6.051   2.112  0.3219 -0.6416 -0.1808
 7986TIP3   OH248152   0.268   5.921   0.487  0.1508  0.0899  0.5442
 7986TIP3    H148153   0.273   5.920   0.391 -1.2807  1.4555  0.4002
 7986TIP3    H248154   0.358   5.930   0.516  0.6586 -0.8251 -0.6396
 7987TIP3   OH248155   0.469   6.171   1.282  0.6448 -0.4655  0.4460
 7987TIP3    H148156   0.410   6.237   1.245  0.9223 -0.6122 -0.2880
 7987TIP3    H248157   0.490   6.115   1.207 -0.5033 -2.0892  1.2787
 7988TIP3   OH248158   3.224   7.224   8.015  0.4751 -0.0932 -0.5697
 7988TIP3    H148159   3.261   7.312   8.009  1.0640 -0.3206 -0.3673
 7988TIP3    H248160   3.260   7.179   7.939  0.4613 -0.2599 -0.4769
 7989TIP3   OH248161   0.071   2.906   0.411  0.0967 -0.0936 -0.4023
 7989TIP3    H148162  -0.024   2.913   0.410  0.1889  1.7063  0.2438
 7989TIP3    H248163   0.099   2.962   0.483  1.6764 -0.0399 -1.0117
 7990TIP3   OH248164   2.399   2.413   8.104 -0.2207  0.1126 -0.3085
 7990TIP3    H148165   2.319   2.403   8.155  0.3308  1.9680  1.0168
 7990TIP3    H248166   2.470   2.406   8.169  0.5424  1.5637 -0.9500
 7991TIP3   OH248167   5.225   6.067   7.169 -0.4972  0.2163  0.3493
 7991TIP3    H148168   5.233   6.040   7.260  1.7901 -0.9831 -0.1257
 7991TIP3    H248169   5.312   6.100   7.146 -1.0415  0.5735 -1.3942
 7992TIP3   OH248170   3.681   5.064   9.625  0.0716  0.5348  0.3916
 7992TIP3    H148171   3.737   5.103   9.558  1.1122 -2.1102 -0.4239
 7992TIP3    H248172   3.738   5.050   9.700  0.2034 -0.8873  0.0591
 7993TIP3   OH248173   4.471   3.001   9.055  0.0781  0.3300  0.2209
 7993TIP3    H148174   4.542   3.013   8.992 -0.4040 -1.1600 -0.6598
 7993TIP3    H248175   4.497   3.053   9.131  2.2665 -0.3943  0.0404
 7994TIP3   OH248176   1.304   6.932   2.560  0.0286 -0.0776  0.1398
 7994TIP3    H148177   1.257   7.001   2.607 -1.0372 -2.3553  2.7353
 7994TIP3    H248178   1.239   6.898   2.498 -0.3452 -0.4432  0.7225
 7995TIP3   OH248179   0.478   2.989   9.506 -0.4306  0.1849 -0.1154
 7995TIP3    H148180   0.505   2.956   9.592 -0.3405  0.4086 -0.0566
 7995TIP3    H248181   0.497   3.082   9.509 -0.3739  0.1847 -0.3995
 7996TIP3   OH248182   1.744   5.248   9.372  0.4980  0.5301  0.1992
 7996TIP3    H148183   1.812   5.268   9.437  0.2878  1.5982  0.1054
 7996TIP3    H248184   1.699   5.332   9.357 -1.4867 -0.3274  0.9882
 7997TIP3   OH248185   6.868   1.761   9.037 -0.2823  0.0324 -0.0243
 7997TIP3    H148186   6.899   1.839   9.083  1.3324 -0.4809 -0.1686
 7997TIP3    H248187   6.781   1.784   9.005  0.1534  1.7588 -0.0435
 7998TIP3   OH248188   1.409   7.514   7.797  0.7172  0.0598 -0.4990
 7998TIP3    H148189   1.343   7.474   7.741  1.1463 -1.1620 -0.1659
 7998TIP3    H248190   1.422   7.451   7.868 -0.1211  1.7490  1.2408
 7999TIP3   OH248191   5.627   1.182   7.999 -0.5640  0.2023 -0.2892
 7999TIP3    H148192   5.704   1.214   8.046 -1.8943  1.2114  1.3157
 7999TIP3    H248193   5.641   1.088   7.990  1.4765  0.5636 -1.2912
 8000TIP3   OH248194   2.319   4.467   9.463 -0.2412  0.5387  0.4649
 8000TIP3    H148195   2.376   4.535   9.428 -0.2997 -0.7824 -2.4336
 8000TIP3    H248196   2.276   4.430   9.387 -2.4358 -0.8185  2.2393
 8001TIP3   OH248197   2.170   6.911   1.339  0.2348 -0.1339 -0.6688
 8001TIP3    H148198   2.075   6.902   1.331  0.4013 -0.4392 -2.8219
 8001TIP3    H248199   2.184   7.005   1.352 -0.4570 -0.3847  2.8896
 8002TIP3   OH248200   2.816   0.605   2.841 -0.2781 -0.4129 -0.1204
 8002TIP3    H148201   2.829   0.530   2.899 -1.0735 -1.0571 -0.7482
 8002TIP3    H248202   2.880   0.593   2.771  0.3631  0.1123  0.3677
 8003TIP3   OH248203   2.874   3.282   8.403 -0.0637 -0.5059 -0.3084
 8003TIP3    H148204   2.864   3.275   8.498 -1.3695  1.6896 -0.2325
 8003TIP3    H248205   2.955   3.234   8.384  0.4491 -0.6283  1.9494
 8004TIP3   OH248206   2.983   4.399   9.149  0.4413  0.3826 -0.0884
 8004TIP3    H148207   2.954   4.368   9.063 -0.9815  0.7785  0.2247
 8004TIP3    H248208   2.907   4.388   9.206  0.3275  3.0471  0.3846
 8005TIP3   OH248209   3.189   1.998   8.267  0.6052 -0.1250 -0.1000
 8005TIP3    H148210   3.103   2.009   8.309  1.7280 -0.1086  2.3935
 8005TIP3    H248211   3.195   1.905   8.247  0.1395 -0.1914  0.0592
 8006TIP3   OH248212   1.219   7.662   9.350  0.0362  0.8203 -0.2397
 8006TIP3    H148213   1.220   7.757   9.359 -0.5954  0.7739  0.3829
 8006TIP3    H248214   1.193   7.630   9.437 -0.4528  0.1074 -0.6388
 8007TIP3   OH248215   2.501   4.688   9.636  0.1708  0.0396 -0.2392
 8007TIP3    H148216   2.519   4.781   9.652 -0.8060 -0.0858  2.1622
 8007TIP3    H248217   2.405   4.682   9.639  0.2440 -1.1056  0.2039
 8008TIP3   OH248218   2.196   7.531   7.950  0.4496 -0.6553 -0.3441
 8008TIP3    H148219   2.181   7.544   8.044  1.0853 -1.3243 -0.1395
 8008TIP3    H248220   2.252   7.603   7.925 -0.2235 -0.1220 -0.3529
 8009TIP3   OH248221   5.202   0.894   8.364 -0.4985  0.4612  0.1181
 8009TIP3    H148222   5.141   0.899   8.290  1.0211  0.4856 -1.2008
 8009TIP3    H248223   5.158   0.942   8.434 -1.6470  1.1664 -1.0225
 8010TIP3   OH248224   3.242   3.329   8.560 -0.1503  0.5785  0.4082
 8010TIP3    H148225   3.265   3.242   8.592  1.0531  0.7856  0.1580
 8010TIP3    H248226   3.281   3.389   8.624 -1.0300  0.9458  0.6212
 8011TIP3   OH248227   2.850   2.857   1.601  0.2671  0.2323  0.0005
 8011TIP3    H148228   2.801   2.833   1.523 -0.3232 -0.8611  0.6878
 8011TIP3    H248229   2.907   2.928   1.572  0.0254 -0.1129 -1.4050
 8012TIP3   OH248230   1.697   7.525   9.306 -0.2746  0.1411  0.6065
 8012TIP3    H148231   1.725   7.584   9.376 -0.0590  1.1499 -0.2986
 8012TIP3    H248232   1.723   7.570   9.225 -0.5510 -0.9742 -0.1211
 8013TIP3   OH248233   6.770   4.816   1.534  0.2507  0.4065 -0.5557
 8013TIP3    H148234   6.681   4.788   1.555  0.6076 -0.5446 -0.2544
 8013TIP3    H248235   6.769   4.829   1.439 -0.7197  2.3615 -0.3351
 8014TIP3   OH248236   3.530   3.070   1.196  0.3338  0.2892  0.6239
 8014TIP3    H148237   3.522   3.136   1.126 -0.2795  0.1071  0.5221
 8014TIP3    H248238   3.481   2.995   1.163  1.6951 -0.5239  0.3842
 8015TIP3   OH248239   4.422   7.109   0.562  0.1667  0.6015 -0.3620
 8015TIP3    H148240   4.407   7.176   0.495  0.5658 -0.0475 -1.1217
 8015TIP3    H248241   4.509   7.131   0.598 -1.0470  2.4040  1.7186
 8016TIP3   OH248242   2.610   2.249   7.957  0.6242  0.2382  0.6709
 8016TIP3    H148243   2.518   2.265   7.979  0.5750  0.2535  0.4525
 8016TIP3    H248244   2.624   2.156   7.978 -0.1596 -0.5083 -1.7332
 8017TIP3   OH248245   3.385   2.338   8.308  0.1577 -0.0774 -0.6379
 8017TIP3    H148246   3.444   2.303   8.375 -0.1061  0.6053 -0.0346
 8017TIP3    H248247   3.400   2.432   8.310 -0.2685  0.0018 -1.1395
 8018TIP3   OH248248   1.927   3.442   0.113 -0.2378 -0.3104 -0.1763
 8018TIP3    H148249   1.837   3.475   0.116  0.0638  0.5810 -0.5007
 8018TIP3    H248250   1.931   3.390   0.033 -0.6842 -1.0533  0.2704
 8019TIP3   OH248251   0.186   7.061   7.641  0.0521 -0.4262 -0.3732
 8019TIP3    H148252   0.149   7.072   7.553 -0.7605  1.6986  0.1776
 8019TIP3    H248253   0.201   7.150   7.672  1.1991 -1.1577  1.3042
 8020TIP3   OH248254   4.430   5.443   1.761 -0.0077 -0.9088  0.0254
 8020TIP3    H148255   4.515   5.429   1.802  0.3268  2.0577  0.5659
 8020TIP3    H248256   4.451   5.468   1.671 -0.4628 -1.9803 -0.4042
 8021TIP3   OH248257   7.528   3.709   9.143 -0.2528  0.2132  0.6039
 8021TIP3    H148258   7.487   3.744   9.064 -1.3594 -1.1193  0.5584
 8021TIP3    H248259   7.484   3.754   9.215 -1.7072 -1.0434  0.5486
 8022TIP3   OH248260   4.626   4.168   7.830 -0.4677  0.4670  0.0096
 8022TIP3    H148261   4.649   4.205   7.916 -1.1173  0.4735  0.1879
 8022TIP3    H248262   4.648   4.237   7.768  1.0325  0.0508  0.0579
 8023TIP3   OH248263   1.476   0.956   0.116 -0.0203 -0.2987 -0.6009
 8023TIP3    H148264   1.550   0.980   0.171  0.2758 -1.0394 -0.6641
 8023TIP3    H248265   1.483   0.861   0.105 -0.7842 -0.3366 -0.8888
 8024TIP3   OH248266   1.978   5.624   0.531  0.1316 -0.0359 -0.1019
 8024TIP3    H148267   1.941   5.617   0.619  1.8110  0.9514  0.7261
 8024TIP3    H248268   2.072   5.613   0.543  0.6026  1.9661 -1.4978
 8025TIP3   OH248269   2.220   4.791   9.964  0.1410  0.1681  0.1449
 8025TIP3    H148270   2.147   4.845   9.992  0.2636  0.8690 -0.8343
 8025TIP3    H248271   2.297   4.830  10.006  0.1296  0.2766  0.0649
 8026TIP3   OH248272   4.429   0.028   1.219  0.2344  0.0642 -0.3756
 8026TIP3    H148273   4.446   0.002   1.309 -0.8420 -1.2676 -0.5231
 8026TIP3    H248274   4.376   0.107   1.226  1.4585  0.8594  0.1237
 8027TIP3   OH248275   1.650   4.878   8.243  0.4690  0.4037  0.6658
 8027TIP3    H148276   1.597   4.840   8.173 -0.7354  1.2934  1.0455
 8027TIP3    H248277   1.676   4.964   8.210  0.4720  0.5476  1.0345
 8028TIP3   OH248278   6.512   5.184   8.902 -0.6368 -0.6120  0.7561
 8028TIP3    H148279   6.468   5.189   8.817 -0.1153  0.3567  0.5350
 8028TIP3    H248280   6.510   5.274   8.936  0.7221 -0.6415  0.9654
 8029TIP3   OH248281   2.336   0.892   8.464 -0.4834 -0.6768  0.3897
 8029TIP3    H148282   2.346   0.800   8.440  0.8080 -0.4027 -0.1742
 8029TIP3    H248283   2.274   0.890   8.537 -0.9895 -1.9238 -0.0313
 8030TIP3   OH248284   2.108   4.635   8.844  0.1432 -0.2197  0.0893
 8030TIP3    H148285   2.173   4.656   8.911 -0.5999  0.8133  0.5038
 8030TIP3    H248286   2.027   4.619   8.892 -0.9973  2.7809 -0.6118
 8031TIP3   OH248287   4.577   4.064   9.620 -0.1900 -0.1708  0.3120
 8031TIP3    H148288   4.496   4.106   9.592 -1.3247 -1.9104  0.7872
 8031TIP3    H248289   4.557   4.029   9.707  0.8815 -1.1368  0.2012
 8032TIP3   OH248290   5.742   4.818   7.577 -0.2556  0.1030 -0.0003
 8032TIP3    H148291   5.809   4.886   7.580  0.5707 -0.6841 -0.0492
 8032TIP3    H248292   5.669   4.858   7.530  0.1910  0.9674  0.0239
 8033TIP3   OH248293   4.834   3.785   8.624  0.4927  0.4632  0.2017
 8033TIP3    H148294   4.788   3.862   8.657  1.6177  0.8427  0.9743
 8033TIP3    H248295   4.833   3.795   8.528 -0.3185  0.8570  0.2454
 8034TIP3   OH248296   1.309   2.154   8.422 -0.1703  0.5537 -0.0158
 8034TIP3    H148297   1.249   2.124   8.354 -0.8431  0.2919  0.6678
 8034TIP3    H248298   1.368   2.081   8.436  2.0045  1.6740 -2.4540
 8035TIP3   OH248299   1.888   2.246   8.684  0.4505  0.7712 -0.3796
 8035TIP3    H148300   1.956   2.208   8.741 -0.1550  0.6623  0.2790
 8035TIP3    H248301   1.888   2.189   8.607  1.1927  0.8437 -0.4446
 8036TIP3   OH248302   2.470   5.520   8.297  0.1655  0.0736  0.1471
 8036TIP3    H148303   2.538   5.523   8.230 -1.3081  0.2244 -1.4148
 8036TIP3    H248304   2.512   5.557   8.375  2.1350 -0.7422 -0.4681
 8037TIP3   OH248305   1.119   2.462   8.744  0.3116  0.5859 -0.7277
 8037TIP3    H148306   1.106   2.516   8.666  0.5855 -1.0231 -1.9216
 8037TIP3    H248307   1.205   2.421   8.731 -0.2083 -0.7194 -0.2183
 8038TIP3   OH248308   3.170   7.569   9.498  0.2186 -0.1286 -0.3273
 8038TIP3    H148309   3.078   7.589   9.478  0.0604  0.1045  0.5863
 8038TIP3    H248310   3.216   7.586   9.416 -0.6543 -0.9791 -1.0261
 8039TIP3   OH248311   2.664   4.742   2.103  0.3572  0.1794 -0.1125
 8039TIP3    H148312   2.652   4.812   2.038 -0.7562  0.0523 -0.0458
 8039TIP3    H248313   2.652   4.661   2.054  1.6512  0.0111 -0.1894
 8040TIP3   OH248314   3.027   5.152   6.420  0.1155  0.5147  0.4575
 8040TIP3    H148315   3.088   5.111   6.481  0.3120 -1.5431 -1.0320
 8040TIP3    H248316   2.942   5.149   6.465  0.1836 -1.2991  0.5512
 8041TIP3   OH248317   2.213   7.044   2.414  0.6868  0.0316  0.5265
 8041TIP3    H148318   2.269   7.045   2.492  0.1591 -0.7641  0.9322
 8041TIP3    H248319   2.164   7.126   2.418  0.2264 -0.2699  1.3704
 8042TIP3   OH248320   2.856   0.883   0.900 -0.5921 -0.2914  0.4494
 8042TIP3    H148321   2.936   0.926   0.869 -2.9235  3.2244 -1.2216
 8042TIP3    H248322   2.865   0.883   0.995  2.3975 -2.3614  0.3190
 8043TIP3   OH248323   1.481   7.212   8.617  0.2516 -0.4319 -0.3566
 8043TIP3    H148324   1.536   7.278   8.573 -2.0034 -0.3465 -3.3739
 8043TIP3    H248325   1.391   7.243   8.603 -0.7222 -1.2493  3.2039
 8044TIP3   OH248326   2.338   0.507   8.099 -0.1269 -0.0116  0.4954
 8044TIP3    H148327   2.311   0.599   8.091  0.6455  0.5788  3.2829
 8044TIP3    H248328   2.433   0.510   8.091  0.3814  0.1995  4.3146
 8045TIP3   OH248329   2.187   5.648   9.817  1.0579  0.2328  0.1602
 8045TIP3    H148330   2.247   5.584   9.778 -0.7350 -1.5433  0.1451
 8045TIP3    H248331   2.199   5.636   9.912  3.0420  2.2348  0.2362
 8046TIP3   OH248332   2.817   6.531   0.805  0.3117  0.3427 -0.4425
 8046TIP3    H148333   2.721   6.527   0.811  0.3113  1.5599  1.0294
 8046TIP3    H248334   2.835   6.537   0.711 -0.9782 -0.9313 -0.8098
 8047TIP3   OH248335   1.677   1.300   7.795  0.0088  0.2983 -0.5940
 8047TIP3    H148336   1.768   1.277   7.809  0.1754  1.3260  0.1207
 8047TIP3    H248337   1.679   1.389   7.759 -0.7087  0.3065 -0.6389
 8048TIP3   OH248338   1.544   0.191   8.984 -0.1940 -0.1761  0.5236
 8048TIP3    H148339   1.504   0.172   8.899  0.6164 -0.1844  0.1262
 8048TIP3    H248340   1.638   0.186   8.967  0.0050  0.9000  1.1669
 8049TIP3   OH248341   0.504   3.943   9.012 -0.4135  0.4627  0.1885
 8049TIP3    H148342   0.591   3.945   8.972 -1.0529  1.7895 -1.2720
 8049TIP3    H248343   0.451   3.893   8.949 -0.4807 -1.4654  1.6860
 8050TIP3   OH248344   0.139   6.531   8.053  0.0698 -0.1727  0.1621
 8050TIP3    H148345   0.212   6.552   8.111  0.6771 -2.0238  0.1346
 8050TIP3    H248346   0.107   6.446   8.084 -1.0805 -0.1075 -0.7866
 8051TIP3   OH248347   5.805   5.353   0.831  0.0012 -0.5433  0.1400
 8051TIP3    H148348   5.854   5.294   0.889  0.9010  0.2883  0.2678
 8051TIP3    H248349   5.834   5.330   0.743  2.6957  1.5819  0.3055
 8052TIP3   OH248350   6.366   5.908   1.660  0.5799 -0.0881  0.0663
 8052TIP3    H148351   6.419   5.906   1.740 -0.5860 -1.0522  0.8656
 8052TIP3    H248352   6.291   5.964   1.683  0.6699  0.3314 -0.6523
 8053TIP3   OH248353   1.199   4.813   7.900  0.4107  0.3709  0.1096
 8053TIP3    H148354   1.205   4.799   7.994  0.1389 -1.1787 -0.0651
 8053TIP3    H248355   1.229   4.730   7.862 -1.0175  0.3867 -1.1315
 8054TIP3   OH248356   6.084   0.602   8.587  0.2033 -0.0332 -0.1802
 8054TIP3    H148357   6.089   0.524   8.642 -0.1986 -0.6873 -1.0528
 8054TIP3    H248358   6.042   0.573   8.506  1.8994  0.6094 -1.3612
 8055TIP3   OH248359   0.720   0.975   9.475  0.2945  0.2488  0.4024
 8055TIP3    H148360   0.709   1.068   9.495  1.4574  0.7919 -1.2407
 8055TIP3    H248361   0.741   0.973   9.381  1.0099 -1.6076  0.5593
 8056TIP3   OH248362   4.152   0.274   0.612 -0.2814  0.3118  0.2010
 8056TIP3    H148363   4.178   0.339   0.546 -1.9906  0.3743 -0.4852
 8056TIP3    H248364   4.101   0.209   0.562 -0.8971 -0.0975  1.3275
 8057TIP3   OH248365   0.114   5.188   8.198 -0.0216  0.3664  0.1869
 8057TIP3    H148366   0.150   5.102   8.175 -1.3618 -0.1200 -0.1600
 8057TIP3    H248367   0.190   5.247   8.196  0.5727 -0.4033 -1.6359
 8058TIP3   OH248368   1.368   3.680   1.806  0.3258 -1.1408  0.2701
 8058TIP3    H148369   1.402   3.624   1.736  1.7660  0.5151 -0.4230
 8058TIP3    H248370   1.392   3.769   1.780  2.3728 -0.5461  3.6142
 8059TIP3   OH248371   4.211   6.260   7.420 -0.3168  0.1062  0.1933
 8059TIP3    H148372   4.249   6.228   7.338  0.6677 -0.7276  0.9500
 8059TIP3    H248373   4.266   6.334   7.445  0.0579 -0.3140  0.6397
 8060TIP3   OH248374   2.094   0.836   6.603  0.4105  0.6053 -0.2126
 8060TIP3    H148375   2.135   0.759   6.563 -0.4337  0.3209 -0.5592
 8060TIP3    H248376   2.002   0.811   6.614  0.3041  1.2525  0.4827
 8061TIP3   OH248377   6.013   2.158   0.514 -0.0275  0.1494  0.7846
 8061TIP3    H148378   5.929   2.203   0.500  0.1698  0.3341  0.1682
 8061TIP3    H248379   6.000   2.109   0.595 -0.1135  1.6296  1.6987
 8062TIP3   OH248380   3.260   1.857   8.655  0.5841 -0.4628  0.0785
 8062TIP3    H148381   3.213   1.887   8.732 -0.9815 -0.2653 -0.9193
 8062TIP3    H248382   3.227   1.769   8.639 -1.1554  0.4652 -1.8977
 8063TIP3   OH248383   3.344   3.785   9.780  0.4506 -0.4475 -0.2619
 8063TIP3    H148384   3.431   3.752   9.761  0.9425  1.6476 -2.0574
 8063TIP3    H248385   3.295   3.774   9.699  0.0577  1.2986 -0.3130
 8064TIP3   OH248386   1.838   0.752   6.588  0.0108  0.3215  0.3422
 8064TIP3    H148387   1.795   0.674   6.553  0.6712 -0.4208  1.1384
 8064TIP3    H248388   1.766   0.804   6.624 -0.5238  0.4722 -0.9140
 8065TIP3   OH248389   4.990   7.186   9.748 -0.2780 -0.0050  0.0515
 8065TIP3    H148390   5.037   7.182   9.831 -0.3247  1.7510  0.2022
 8065TIP3    H248391   4.994   7.278   9.722 -1.8881 -0.1627 -0.9491
 8066TIP3   OH248392   7.583   3.100   8.772 -0.0409  0.1238  0.2031
 8066TIP3    H148393   7.610   3.189   8.748 -0.5699 -0.1400 -1.5264
 8066TIP3    H248394   7.494   3.111   8.807 -0.1434  0.2646 -0.0977
 8067TIP3   OH248395   2.726   2.246   0.960  0.0143 -0.2420 -0.6368
 8067TIP3    H148396   2.725   2.248   0.865  0.8880 -0.0268 -0.6466
 8067TIP3    H248397   2.812   2.209   0.983  0.5537  1.3815  0.0826
 8068TIP3   OH248398   0.749   1.628   0.475  0.4878 -1.0413  0.1852
 8068TIP3    H148399   0.779   1.691   0.541 -0.3545  2.2290 -2.2572
 8068TIP3    H248400   0.655   1.623   0.488  0.2872 -0.2139 -0.8217
 8069TIP3   OH248401   6.330   7.075   9.328  0.0614  0.3048 -0.3373
 8069TIP3    H148402   6.302   7.058   9.238 -0.1181  0.4851 -0.3146
 8069TIP3    H248403   6.424   7.090   9.321 -0.0179  0.7235 -0.5521
 8070TIP3   OH248404   6.822   3.879   8.914 -0.0756  0.3999  0.6646
 8070TIP3    H148405   6.737   3.891   8.957 -0.3272 -0.0995  0.3105
 8070TIP3    H248406   6.849   3.791   8.938  0.2265  0.4652  0.5646
 8071TIP3   OH248407   2.862   1.154   0.996 -0.9484 -0.6194  0.5514
 8071TIP3    H148408   2.905   1.143   0.911 -1.0770  0.6068  0.3117
 8071TIP3    H248409   2.778   1.110   0.986 -1.5845  0.7242 -0.4790
 8072TIP3   OH248410   0.507   0.460   1.065  0.4286  0.0861 -0.3342
 8072TIP3    H148411   0.434   0.400   1.078  2.0465 -2.3437 -1.6490
 8072TIP3    H248412   0.470   0.532   1.013 -1.1947 -0.6920 -0.3235
 8073TIP3   OH248413   2.656   4.201   7.260  0.3507 -0.1636 -0.0395
 8073TIP3    H148414   2.646   4.233   7.349  1.1027  0.1047 -0.0396
 8073TIP3    H248415   2.728   4.138   7.265 -0.1385 -0.7577 -0.3110
 8074TIP3   OH248416   4.821   1.998   1.083  0.7339 -0.3088 -0.1013
 8074TIP3    H148417   4.820   1.903   1.072  1.3426 -0.2270 -0.9214
 8074TIP3    H248418   4.728   2.022   1.089  0.5804 -0.9666  0.3346
 8075TIP3   OH248419   0.704   0.209   0.156 -0.4578 -0.0251 -0.0488
 8075TIP3    H148420   0.790   0.172   0.135  0.0106  0.0259  1.6849
 8075TIP3    H248421   0.699   0.289   0.104  1.6398  1.3105  1.6585
 8076TIP3   OH248422   0.377   0.793   1.664 -0.2172  0.7214  0.0182
 8076TIP3    H148423   0.397   0.727   1.598  0.3100 -0.2940  1.1484
 8076TIP3    H248424   0.456   0.846   1.670  0.7072 -0.7255  1.5399
 8077TIP3   OH248425   1.728   1.974   1.097 -0.0692 -0.8189 -0.0536
 8077TIP3    H148426   1.691   1.898   1.051  0.2139 -0.2039 -1.3453
 8077TIP3    H248427   1.806   1.997   1.047  0.5888 -0.4866  1.1096
 8078TIP3   OH248428   6.305   4.670   8.403 -0.0785  0.3229  0.3952
 8078TIP3    H148429   6.374   4.696   8.464 -0.9037  0.2734  1.3807
 8078TIP3    H248430   6.351   4.629   8.331  0.9799  1.0411  0.6379
 8079TIP3   OH248431   5.993   1.666   8.261  0.6243  1.0760 -0.0077
 8079TIP3    H148432   6.026   1.669   8.172  1.2984 -0.1959  0.1731
 8079TIP3    H248433   6.059   1.616   8.309 -1.1314 -0.8048  0.5692
 8080TIP3   OH248434   3.179   5.886   3.128 -0.4696  0.0808  0.0943
 8080TIP3    H148435   3.178   5.945   3.203  1.0408  0.3481 -0.0611
 8080TIP3    H248436   3.256   5.913   3.078 -0.8397 -0.7987 -0.9799
 8081TIP3   OH248437   0.135   6.890   0.243  0.0338 -0.1993 -0.3650
 8081TIP3    H148438   0.230   6.901   0.234  0.0233  1.1986  0.8605
 8081TIP3    H248439   0.125   6.832   0.318 -0.0573  1.7123  1.1871
 8082TIP3   OH248440   3.690   5.034   9.199 -0.6481 -0.0086  0.2072
 8082TIP3    H148441   3.679   5.112   9.254  0.6571  1.2765 -1.2302
 8082TIP3    H248442   3.623   5.043   9.132 -0.9654 -0.5190  0.4540
 8083TIP3   OH248443   2.748   3.595   8.952  0.3651 -0.1492  0.0821
 8083TIP3    H148444   2.663   3.617   8.912 -0.3441 -0.6611  1.2607
 8083TIP3    H248445   2.807   3.587   8.877 -0.5518  0.4863 -0.7514
 8084TIP3   OH248446   6.274   7.438   9.323 -0.5804 -0.5012  0.1055
 8084TIP3    H148447   6.315   7.388   9.394 -0.2379  0.2886  0.4746
 8084TIP3    H248448   6.196   7.388   9.300 -1.5776  0.0288  2.1214
 8085TIP3   OH248449   2.664   4.723   8.036  0.4466 -0.4509 -0.6219
 8085TIP3    H148450   2.741   4.721   8.094  0.5136 -2.5351 -0.6916
 8085TIP3    H248451   2.695   4.767   7.957  0.6970  1.3584  0.4278
 8086TIP3   OH248452   3.074   0.747   1.640 -0.1356  0.0990 -0.0844
 8086TIP3    H148453   3.098   0.695   1.563 -0.0030 -0.5182  0.3717
 8086TIP3    H248454   3.047   0.832   1.603 -1.1176 -0.5349 -0.9001
 8087TIP3   OH248455   2.061   5.315   7.076 -0.1614  0.2939 -0.4403
 8087TIP3    H148456   2.031   5.225   7.091 -0.0641  0.5216  1.3516
 8087TIP3    H248457   2.102   5.340   7.159  2.0992  1.1295 -1.7580
 8088TIP3   OH248458   6.797   5.572   9.875 -0.2026 -0.0178  0.0312
 8088TIP3    H148459   6.718   5.612   9.911  0.0244 -1.0451  1.8102
 8088TIP3    H248460   6.856   5.565   9.950  1.0900 -0.4543 -0.9872
 8089TIP3   OH248461   5.184   7.668   1.845 -0.6600 -0.0993 -0.0467
 8089TIP3    H148462   5.148   7.636   1.762  0.3055 -2.3806  0.3291
 8089TIP3    H248463   5.222   7.590   1.886  2.1578  1.6209  0.8887
 8090TIP3   OH248464   6.926   4.425   0.080 -0.0222 -0.3019 -0.0352
 8090TIP3    H148465   6.976   4.348   0.053 -0.2724 -0.4342 -0.1233
 8090TIP3    H248466   6.959   4.496   0.025  2.4218  0.3920  2.0975
 8091TIP3   OH248467   6.582   5.592   0.647  0.5119  0.5994 -0.5879
 8091TIP3    H148468   6.617   5.650   0.714 -1.4942 -0.0553  1.1232
 8091TIP3    H248469   6.585   5.505   0.686 -0.4600  0.1588 -1.4507
 8092TIP3   OH248470   1.290   4.207   0.476 -0.5648  0.4372 -0.4943
 8092TIP3    H148471   1.250   4.121   0.480  0.3380 -0.1421 -2.4601
 8092TIP3    H248472   1.375   4.196   0.518 -0.5461  0.4260 -0.5349
 8093TIP3   OH248473   4.575   0.079   8.297 -0.1492  0.3679  0.0521
 8093TIP3    H148474   4.638   0.133   8.346  1.1881  0.9099 -2.0906
 8093TIP3    H248475   4.498   0.135   8.288  0.2151  0.8923  0.1413
 8094TIP3   OH248476   2.833   6.663   0.069 -0.4077 -0.0432 -0.2661
 8094TIP3    H148477   2.739   6.666   0.085 -0.3331  0.2415  0.1401
 8094TIP3    H248478   2.857   6.755   0.058 -0.5586 -0.2342 -2.6579
 8095TIP3   OH248479   4.213   6.794   2.818  0.7021 -0.4080 -0.2724
 8095TIP3    H148480   4.183   6.852   2.888  0.9707  1.7640 -1.8552
 8095TIP3    H248481   4.135   6.744   2.794  1.2106 -3.3605  3.3806
 8096TIP3   OH248482   4.213   3.606   0.919  0.1262 -0.9281  0.2815
 8096TIP3    H148483   4.267   3.574   0.848  0.6513  0.2382  0.1249
 8096TIP3    H248484   4.123   3.596   0.888  0.3522 -0.2789 -0.6322
 8097TIP3   OH248485   0.488   3.941   0.706  0.0513  0.1031  0.3223
 8097TIP3    H148486   0.398   3.922   0.732  0.4049 -1.2888  0.5991
 8097TIP3    H248487   0.538   3.865   0.736  1.4192  1.1245  0.7196
 8098TIP3   OH248488   2.201   4.841   0.608 -0.1837  0.3234 -0.2748
 8098TIP3    H148489   2.129   4.798   0.562  1.4958 -2.6346 -0.3863
 8098TIP3    H248490   2.269   4.774   0.615  2.0490  2.5313  1.0735
 8099TIP3   OH248491   6.514   1.872   8.621 -0.2765 -0.0755 -0.2319
 8099TIP3    H148492   6.490   1.960   8.649 -0.2500 -1.0068  3.0852
 8099TIP3    H248493   6.430   1.828   8.604 -0.2763  0.7521 -2.8895
 8100TIP3   OH248494   4.101   0.229   9.821 -0.2264  0.1617 -0.0920
 8100TIP3    H148495   4.134   0.310   9.861  0.6324 -0.8405  1.3337
 8100TIP3    H248496   4.125   0.160   9.883 -1.7525 -1.0977 -0.8093
 8101TIP3   OH248497   3.774   3.729   8.885  0.2607 -0.0580  0.3046
 8101TIP3    H148498   3.697   3.675   8.864  0.8810 -0.2871 -1.6299
 8101TIP3    H248499   3.738   3.808   8.925 -0.9154 -0.5060  0.1749
 8102TIP3   OH248500   3.639   4.778   9.356  0.1796 -0.2653  0.4135
 8102TIP3    H148501   3.721   4.729   9.367  1.4957  1.9201  1.1295
 8102TIP3    H248502   3.661   4.848   9.295 -0.8318  0.9924  1.4360
 8103TIP3   OH248503   4.950   0.629   1.910 -0.5018 -0.1016  0.3586
 8103TIP3    H148504   4.904   0.575   1.846 -0.8557  0.1052  0.4368
 8103TIP3    H248505   4.910   0.716   1.903  0.2671  0.2393  0.0180
 8104TIP3   OH248506   6.410   0.303   9.200  0.3640 -0.1878  0.0608
 8104TIP3    H148507   6.340   0.304   9.266  1.3038  0.4849  1.0997
 8104TIP3    H248508   6.461   0.382   9.220  1.8554 -1.0611 -0.1800
 8105TIP3   OH248509   6.426   3.388   0.943 -0.4023  0.2251 -0.3170
 8105TIP3    H148510   6.472   3.306   0.922 -0.5016 -0.1730  0.9193
 8105TIP3    H248511   6.466   3.417   1.025 -1.8758  0.2239  0.4326
 8106TIP3   OH248512   3.642   4.904   2.686  0.0644  0.3065  0.0288
 8106TIP3    H148513   3.576   4.839   2.708 -1.2148  1.6553  0.3415
 8106TIP3    H248514   3.665   4.886   2.595  0.5402 -1.2181  0.4227
 8107TIP3   OH248515   5.225   0.179   8.980 -0.2020 -0.4542  0.2828
 8107TIP3    H148516   5.275   0.142   9.053  0.7399  0.2680  0.0247
 8107TIP3    H248517   5.134   0.173   9.008  0.2205  1.2482  2.2510
 8108TIP3   OH248518   5.750   5.318   9.420 -0.4465 -0.1220 -0.1687
 8108TIP3    H148519   5.734   5.225   9.403  0.9141 -0.1748 -1.4419
 8108TIP3    H248520   5.663   5.356   9.430 -1.0822 -1.3486 -0.7701
 8109TIP3   OH248521   1.497   6.172   8.461 -0.2819 -0.2241 -0.6476
 8109TIP3    H148522   1.417   6.190   8.412 -0.5022 -0.3285 -0.3318
 8109TIP3    H248523   1.496   6.078   8.475 -1.0575 -0.0162  0.9486
 8110TIP3   OH248524   1.428   2.776   0.199  0.5667 -0.2249 -0.1735
 8110TIP3    H148525   1.520   2.747   0.196  0.9975  1.0870  0.0377
 8110TIP3    H248526   1.412   2.812   0.112 -0.3512 -2.1526 -0.8519
 8111TIP3   OH248527   4.672   1.304   2.170  0.6574  0.5324 -0.0197
 8111TIP3    H148528   4.709   1.246   2.103  0.7713  1.9594 -1.2538
 8111TIP3    H248529   4.578   1.300   2.156  0.7543  2.1454 -1.4850
 8112TIP3   OH248530   1.888   2.280   0.981  0.0737  0.0253  0.0592
 8112TIP3    H148531   1.882   2.311   0.891 -0.0877 -1.3629 -0.4374
 8112TIP3    H248532   1.798   2.280   1.013  0.2016  1.1473  0.4666
 8113TIP3   OH248533   5.332   5.677   1.451 -0.4678  0.1295 -0.2468
 8113TIP3    H148534   5.376   5.599   1.416 -1.2654 -0.8198  0.7686
 8113TIP3    H248535   5.280   5.710   1.378  1.4394  0.9562 -1.3044
 8114TIP3   OH248536   2.871   1.184   7.452 -0.3626 -0.2037  0.0138
 8114TIP3    H148537   2.857   1.089   7.448  1.3676 -0.4947  0.2475
 8114TIP3    H248538   2.838   1.209   7.538 -1.7891 -0.3935 -0.4500
 8115TIP3   OH248539   3.650   5.755   2.935  0.7262 -0.2452 -0.7319
 8115TIP3    H148540   3.689   5.763   3.022  0.9424  0.0576 -0.8575
 8115TIP3    H248541   3.691   5.824   2.883  1.7448 -1.3758 -1.4995
 8116TIP3   OH248542   6.943   1.552   9.198 -0.7508 -0.0152 -0.6036
 8116TIP3    H148543   7.039   1.546   9.193 -0.7152 -1.1775  0.8187
 8116TIP3    H248544   6.921   1.623   9.138  1.2069  1.7469  0.5849
 8117TIP3   OH248545   3.582   5.004   1.782 -0.3337  0.4909 -0.2727
 8117TIP3    H148546   3.545   5.004   1.694 -3.1455  4.3631  0.6194
 8117TIP3    H248547   3.644   5.077   1.781  0.2045  0.0660  0.7425
 8118TIP3   OH248548   2.708   4.023   9.252  0.5082 -0.2303 -0.6065
 8118TIP3    H148549   2.788   4.056   9.292 -0.3422  0.5861  0.4982
 8118TIP3    H248550   2.640   4.084   9.281 -0.7306 -1.6278 -0.4504
 8119TIP3   OH248551   3.191   5.962   7.456  0.3728 -0.9127 -0.7054
 8119TIP3    H148552   3.100   5.981   7.478  0.8685 -1.6336  2.5768
 8119TIP3    H248553   3.187   5.918   7.371 -2.5307 -2.4249  0.0655
 8120TIP3   OH248554   4.390   7.097   0.119 -0.0355 -0.1641  0.0045
 8120TIP3    H148555   4.478   7.059   0.116 -1.2806 -3.3708 -0.6181
 8120TIP3    H248556   4.385   7.153   0.042  1.2527 -0.4904 -0.3374
 8121TIP3   OH248557   0.274   7.023   9.907  0.4828 -0.1842 -0.4678
 8121TIP3    H148558   0.344   7.035   9.843 -0.1008  1.3902 -0.8387
 8121TIP3    H248559   0.311   7.054   9.990  0.4171  0.0905 -0.5419
 8122TIP3   OH248560   3.869   1.269   8.872 -0.1802  0.2590 -0.3296
 8122TIP3    H148561   3.831   1.185   8.897  0.4792 -0.0364 -0.2958
 8122TIP3    H248562   3.797   1.332   8.881 -1.2451 -0.5805 -2.2105
 8123TIP3   OH248563   6.556   6.549   0.551 -0.2710  0.1778  0.1095
 8123TIP3    H148564   6.573   6.475   0.492  0.9729  0.1583  0.4664
 8123TIP3    H248565   6.599   6.623   0.509  0.9304  0.0985  1.1072
 8124TIP3   OH248566   7.563   3.713   9.585  0.1097  0.3132 -0.0269
 8124TIP3    H148567   7.568   3.634   9.531  0.8986 -0.2837  0.8948
 8124TIP3    H248568   7.651   3.751   9.579 -0.5601  1.7551 -1.3610
 8125TIP3   OH248569   7.604   6.039   8.994 -0.1352 -0.6590 -0.4714
 8125TIP3    H148570   7.614   5.946   8.975 -1.1386 -0.8160 -0.2763
 8125TIP3    H248571   7.663   6.082   8.933 -1.5096 -1.2864 -2.3299
 8126TIP3   OH248572   2.011   2.512   1.107 -0.3875 -0.6176  0.0392
 8126TIP3    H148573   1.963   2.453   1.049  1.5222 -0.1727 -2.1388
 8126TIP3    H248574   2.097   2.471   1.116 -0.4815 -0.4341  2.2856
 8127TIP3   OH248575   0.208   2.870   1.629  0.1965 -0.1175  0.5455
 8127TIP3    H148576   0.220   2.964   1.620  1.8209 -0.4503 -1.6297
 8127TIP3    H248577   0.113   2.859   1.640 -0.3432  1.6586 -1.5156
 8128TIP3   OH248578   6.480   2.426   1.692  0.1675  0.3835 -0.1055
 8128TIP3    H148579   6.562   2.397   1.732  1.0518  1.6743 -0.8698
 8128TIP3    H248580   6.507   2.464   1.608 -0.9674  2.3682  0.3440
 8129TIP3   OH248581   1.263   5.611   6.831  0.0501  0.4673  0.2147
 8129TIP3    H148582   1.356   5.633   6.823 -0.3078  1.7501 -0.6903
 8129TIP3    H248583   1.245   5.559   6.753  0.2672 -0.8246  1.0015
 8130TIP3   OH248584   0.219   5.675   0.683 -0.4767  0.4081 -0.5351
 8130TIP3    H148585   0.256   5.752   0.640 -0.3255 -0.7475 -2.6335
 8130TIP3    H248586   0.152   5.709   0.741 -1.9321  2.0550 -3.0059
 8131TIP3   OH248587   7.195   5.791   0.784 -0.6061 -0.1414 -0.0324
 8131TIP3    H148588   7.216   5.726   0.717 -1.0589  0.6406 -0.9586
 8131TIP3    H248589   7.280   5.821   0.816 -0.3890 -1.2526  0.5029
 8132TIP3   OH248590   3.158   1.191   0.431  0.0450 -0.4239  0.0837
 8132TIP3    H148591   3.072   1.232   0.436  0.8150  1.2958  0.0698
 8132TIP3    H248592   3.193   1.219   0.346  0.3392 -1.6935 -0.2234
 8133TIP3   OH248593   1.318   1.884   7.580  0.1285  0.3070  0.0975
 8133TIP3    H148594   1.349   1.851   7.495  0.4145 -3.3043  1.4390
 8133TIP3    H248595   1.368   1.965   7.593  2.2670 -0.5667 -1.8826
 8134TIP3   OH248596   5.274   5.885   9.646  0.0469  0.4750  0.0463
 8134TIP3    H148597   5.292   5.796   9.679  0.4188  0.6044  0.2020
 8134TIP3    H248598   5.358   5.930   9.653  0.0145  0.6547 -0.6247
 8135TIP3   OH248599   4.279   1.510   7.803  0.0808 -0.0215  0.2555
 8135TIP3    H148600   4.322   1.550   7.727 -0.1456 -0.7140 -0.2506
 8135TIP3    H248601   4.187   1.501   7.776 -0.5127  1.8503  1.4866
 8136TIP3   OH248602   0.924   4.091   2.503  0.1240 -0.2141  0.0915
 8136TIP3    H148603   0.986   4.162   2.513 -0.6015  0.1340  2.8082
 8136TIP3    H248604   0.969   4.027   2.447  1.7585  1.2404 -0.3361
 8137TIP3   OH248605   4.855   1.138   2.002 -0.3936  0.1257  0.2774
 8137TIP3    H148606   4.842   1.081   2.077 -0.4487 -0.4959 -0.1984
 8137TIP3    H248607   4.943   1.175   2.015  0.7707 -2.1055 -0.7261
 8138TIP3   OH248608   5.836   5.976   1.082  0.4768 -0.5124  0.1235
 8138TIP3    H148609   5.802   5.956   0.995 -0.5878 -1.4029  0.7129
 8138TIP3    H248610   5.880   6.060   1.073 -1.0429  0.2041 -0.9157
 8139TIP3   OH248611   5.732   6.962   0.999  0.0842  0.4438 -0.4583
 8139TIP3    H148612   5.814   6.935   1.038  0.6313  0.8519 -1.3029
 8139TIP3    H248613   5.665   6.936   1.063  0.7207 -1.2521 -0.4348
 8140TIP3   OH248614   3.220   2.693   8.220 -0.2886  0.7360 -0.1938
 8140TIP3    H148615   3.153   2.626   8.210 -0.7569  1.3776 -1.6789
 8140TIP3    H248616   3.280   2.658   8.285 -0.3688 -1.2451 -1.1226
 8141TIP3   OH248617   1.957   5.002   1.951 -0.3047  0.1395 -0.5713
 8141TIP3    H148618   1.862   4.990   1.957 -0.4619 -0.3041 -2.8554
 8141TIP3    H248619   1.993   4.916   1.974 -0.3179  0.6215  1.4946
 8142TIP3   OH248620   7.551   6.733   0.476  0.6371 -0.0336  0.0548
 8142TIP3    H148621   7.543   6.731   0.571 -1.7825  4.4904  0.2261
 8142TIP3    H248622   7.461   6.722   0.444  0.9556  1.4643 -1.4758
 8143TIP3   OH248623   5.202   6.272   9.319 -0.1569  0.3808 -0.1005
 8143TIP3    H148624   5.149   6.296   9.395  1.3384  1.1520  0.7530
 8143TIP3    H248625   5.277   6.227   9.356  0.7783  1.0919 -1.0786
 8144TIP3   OH248626   0.077   6.618   9.012  0.0693 -0.3846  0.1455
 8144TIP3    H148627   0.143   6.550   9.025 -0.5778 -1.3999 -1.5676
 8144TIP3    H248628   0.047   6.640   9.101  0.5112 -2.1205  0.7680
 8145TIP3   OH248629   1.284   1.234   9.542  0.3962 -0.6104 -0.1342
 8145TIP3    H148630   1.316   1.254   9.630 -1.2316 -0.6474  0.4899
 8145TIP3    H248631   1.316   1.146   9.524  0.9693 -0.4957  0.2967
 8146TIP3   OH248632   0.888   4.052   8.001  0.3783 -0.0449  0.1502
 8146TIP3    H148633   0.835   4.122   8.039 -0.5818 -0.0823 -1.0788
 8146TIP3    H248634   0.828   4.002   7.945  1.1825 -1.4841  0.5001
 8147TIP3   OH248635   0.868   6.404   8.082 -0.3599 -0.3548 -0.3094
 8147TIP3    H148636   0.944   6.358   8.047  1.3637  2.2098 -0.1866
 8147TIP3    H248637   0.878   6.397   8.177  1.3886  2.2583 -0.1889
 8148TIP3   OH248638   3.128   4.695   9.409 -0.1400 -0.8559  0.3057
 8148TIP3    H148639   3.083   4.727   9.331  1.8271  0.1271 -0.5048
 8148TIP3    H248640   3.085   4.612   9.430  0.3154 -2.0075 -2.8357
 8149TIP3   OH248641   5.255   6.466   8.867 -0.0237 -0.0001 -0.0694
 8149TIP3    H148642   5.294   6.543   8.827  1.0328 -1.0524 -1.1081
 8149TIP3    H248643   5.245   6.490   8.960  0.3285  1.3503 -0.3618
 8150TIP3   OH248644   1.744   6.507   7.816  0.5111 -0.4238 -0.2838
 8150TIP3    H148645   1.779   6.454   7.888  2.0881  1.7619  0.6776
 8150TIP3    H248646   1.650   6.507   7.829  0.7504 -0.1664  1.7617
 8151TIP3   OH248647   0.373   3.297   9.449  0.4668 -0.3788  0.4468
 8151TIP3    H148648   0.314   3.354   9.400  0.5784 -0.0932  0.6383
 8151TIP3    H248649   0.456   3.300   9.401  0.3870 -0.6110  0.2948
 8152TIP3   OH248650   0.894   2.306   1.315  0.4218 -0.6927  0.0297
 8152TIP3    H148651   0.924   2.387   1.355  0.3273  0.4289 -2.0167
 8152TIP3    H248652   0.949   2.238   1.354  1.6149  0.5608  0.6119
 8153TIP3   OH248653   0.482   6.385   0.988  0.3550  0.4702  0.0837
 8153TIP3    H148654   0.409   6.324   0.999 -0.9199  1.7902 -0.5761
 8153TIP3    H248655   0.540   6.343   0.924 -0.9063  0.2695 -0.9725
 8154TIP3   OH248656   0.387   1.881   1.982 -0.5144  0.0120  0.4544
 8154TIP3    H148657   0.301   1.924   1.986  0.0522  1.1839  0.6004
 8154TIP3    H248658   0.408   1.877   1.889 -0.3016  0.6318  0.4709
 8155TIP3   OH248659   3.794   2.072   9.436 -0.9261 -0.2524 -0.2823
 8155TIP3    H148660   3.727   2.078   9.504 -0.1903  3.4943  0.3510
 8155TIP3    H248661   3.876   2.092   9.481  0.3360 -2.4118 -1.4750
 8156TIP3   OH248662   6.891   3.649   9.465 -0.2232  0.2633 -0.5118
 8156TIP3    H148663   6.973   3.697   9.462  0.2478 -0.3897  0.9473
 8156TIP3    H248664   6.912   3.568   9.511 -1.9329  0.6388  1.0721
 8157TIP3   OH248665   0.763   4.016   7.429  0.7138  0.2593 -0.2756
 8157TIP3    H148666   0.686   4.060   7.394  0.4484 -0.1393 -0.1913
 8157TIP3    H248667   0.729   3.944   7.482  1.1233  0.7199  0.6228
 8158TIP3   OH248668   2.245   0.501   2.037  0.1985 -0.1395  0.5438
 8158TIP3    H148669   2.276   0.436   1.974 -0.9121 -0.8548  0.7064
 8158TIP3    H248670   2.298   0.578   2.020 -0.1593 -0.2645 -1.3799
 8159TIP3   OH248671   4.517   2.058   8.180 -0.2045  0.0322  0.2822
 8159TIP3    H148672   4.466   2.047   8.261  2.5206 -1.3473  1.9766
 8159TIP3    H248673   4.481   1.993   8.120 -2.6153  1.4173  0.1040
 8160TIP3   OH248674   6.799   2.711   0.273 -0.7708  0.5555 -0.4676
 8160TIP3    H148675   6.728   2.693   0.334  0.5573 -1.1712  0.6579
 8160TIP3    H248676   6.812   2.629   0.225  0.6896  0.7005 -0.3772
 8161TIP3   OH248677   7.616   7.067   0.885  0.0385  0.4623  0.3538
 8161TIP3    H148678   7.639   7.159   0.871 -0.8325  0.8773  1.4152
 8161TIP3    H248679   7.686   7.018   0.844  0.7315  1.6122  0.1071
 8162TIP3   OH248680   2.710   6.339   9.248  0.5358  0.3371  0.0089
 8162TIP3    H148681   2.796   6.341   9.205  0.7106  0.6425  0.3737
 8162TIP3    H248682   2.720   6.395   9.325  0.0384  0.2898  0.1098
 8163TIP3   OH248683   1.628   6.539   8.509  0.0207 -0.3887 -0.3332
 8163TIP3    H148684   1.694   6.471   8.499  0.3597 -0.1002 -0.0638
 8163TIP3    H248685   1.559   6.498   8.561  0.9968 -0.0100  1.3328
 8164TIP3   OH248686   6.868   6.994   9.196 -0.7727 -0.1303 -0.0716
 8164TIP3    H148687   6.812   7.069   9.175 -0.4932 -0.0764 -0.6383
 8164TIP3    H248688   6.929   6.989   9.123  0.7460  0.5631  1.0991
 8165TIP3   OH248689   0.533   3.477   0.915  0.8798 -0.1191 -0.1529
 8165TIP3    H148690   0.587   3.398   0.909 -0.5034 -1.0900 -0.3059
 8165TIP3    H248691   0.484   3.466   0.996 -1.0591 -0.5862 -1.3395
 8166TIP3   OH248692   3.285   3.101   7.280  0.7067 -0.0621 -0.4139
 8166TIP3    H148693   3.245   3.087   7.194  0.4119 -0.8228 -0.1608
 8166TIP3    H248694   3.377   3.080   7.268  0.6728 -0.1296 -0.5541
 8167TIP3   OH248695   2.013   3.589   7.857  0.3218  0.2107 -0.3422
 8167TIP3    H148696   1.952   3.612   7.787  0.9548 -0.0214 -0.9726
 8167TIP3    H248697   1.974   3.628   7.936 -0.9018 -0.3528 -0.6422
 8168TIP3   OH248698   1.852   2.276   7.359 -0.0154 -0.0463  0.2399
 8168TIP3    H148699   1.808   2.360   7.345  1.6619  1.0552  1.2394
 8168TIP3    H248700   1.821   2.221   7.287  0.0526  1.9323 -1.3965
 8169TIP3   OH248701   1.367   3.185   6.793 -0.1990  0.1980 -0.6272
 8169TIP3    H148702   1.303   3.114   6.800  0.7618 -0.5319  2.6758
 8169TIP3    H248703   1.354   3.237   6.872  3.1158  0.0581  0.1815
 8170TIP3   OH248704   7.022   4.474   0.371 -0.6985 -0.4103  0.3667
 8170TIP3    H148705   7.064   4.394   0.341  0.4530  0.9858 -2.0310
 8170TIP3    H248706   6.928   4.454   0.369 -0.4976 -1.3316 -1.4483
 8171TIP3   OH248707   4.119   2.402   9.380  0.1686 -0.3018  0.6561
 8171TIP3    H148708   4.141   2.320   9.334 -0.5427 -0.4553  0.5786
 8171TIP3    H248709   4.177   2.467   9.341  0.1650 -0.6034  0.1278
 8172TIP3   OH248710   1.938   4.096   0.271 -0.6030 -0.0126 -0.2021
 8172TIP3    H148711   1.845   4.082   0.289 -1.2139  2.8611 -0.5781
 8172TIP3    H248712   1.958   4.179   0.313  2.1343 -1.0668  0.7685
 8173TIP3   OH248713   4.027   2.264   0.981 -0.1086  0.4345  0.2640
 8173TIP3    H148714   3.933   2.265   1.000 -0.2564  1.6251 -0.4156
 8173TIP3    H248715   4.068   2.299   1.060 -0.2587  0.1546  0.4663
 8174TIP3   OH248716   5.054   0.383   9.686 -0.3441 -0.4239  0.1727
 8174TIP3    H148717   5.064   0.396   9.780 -0.8027  0.0936  0.1535
 8174TIP3    H248718   5.089   0.463   9.646  0.1076 -0.7558 -0.1136
 8175TIP3   OH248719   5.867   6.588   8.305 -0.1714 -0.0808 -0.2149
 8175TIP3    H148720   5.898   6.591   8.395 -2.5619 -1.0158  0.7375
 8175TIP3    H248721   5.903   6.507   8.269  1.3342  0.6311 -0.3476
 8176TIP3   OH248722   1.849   1.635   1.876  0.4589  0.4273  0.1047
 8176TIP3    H148723   1.830   1.729   1.873  0.7158  0.4931 -2.6382
 8176TIP3    H248724   1.943   1.630   1.893  0.2987  0.6056  1.1100
 8177TIP3   OH248725   2.376   5.071   0.625 -0.0103 -0.3857  0.4925
 8177TIP3    H148726   2.342   5.136   0.686  0.6031  0.7172 -0.2900
 8177TIP3    H248727   2.316   4.997   0.632 -3.1643  1.7474 -1.4711
 8178TIP3   OH248728   4.443   5.617   2.341  0.7389  0.5897  0.1769
 8178TIP3    H148729   4.370   5.654   2.390  1.1329 -0.7287  1.8701
 8178TIP3    H248730   4.402   5.558   2.278  0.2733 -1.2168  2.0336
 8179TIP3   OH248731   2.619   6.569   8.766 -0.0047 -0.1557  0.1662
 8179TIP3    H148732   2.677   6.496   8.783  1.6836  1.0675 -0.0837
 8179TIP3    H248733   2.553   6.534   8.706  2.6064 -0.7381 -2.5992
 8180TIP3   OH248734   1.627   2.640   9.830  0.2434  0.1076  0.0318
 8180TIP3    H148735   1.557   2.578   9.807  1.5178 -0.4800 -2.6476
 8180TIP3    H248736   1.588   2.726   9.814 -0.9652  0.0105  2.0760
 8181TIP3   OH248737   6.458   5.876   0.692 -0.1751  0.3133 -0.0134
 8181TIP3    H148738   6.426   5.790   0.665  0.2042  0.1263  0.1217
 8181TIP3    H248739   6.479   5.866   0.785  2.4384 -0.2454 -0.5942
 8182TIP3   OH248740   2.253   4.892   1.555  0.0830 -0.5544  0.3038
 8182TIP3    H148741   2.236   4.857   1.468 -0.4496 -0.4832  0.3787
 8182TIP3    H248742   2.191   4.845   1.612 -1.0965  0.9631  0.3146
 8183TIP3   OH248743   5.415   5.043   9.355  0.4108  0.4939  0.3082
 8183TIP3    H148744   5.400   4.972   9.292 -0.1132 -0.8570  1.8803
 8183TIP3    H248745   5.478   5.006   9.417  0.9359  1.8124  0.5769
 8184TIP3   OH248746   0.995   5.166   0.071  0.3423 -0.0936 -0.3893
 8184TIP3    H148747   1.043   5.084   0.086  1.6334  0.4374 -1.3489
 8184TIP3    H248748   1.061   5.226   0.037 -0.3146  1.7343  1.3548
 8185TIP3   OH248749   4.888   2.086   0.635 -0.1590  0.3442 -0.0046
 8185TIP3    H148750   4.936   2.029   0.576  0.9399 -0.3724  1.5208
 8185TIP3    H248751   4.954   2.118   0.697 -1.4381  0.1895  1.5053
 8186TIP3   OH248752   4.869   2.464   0.631  0.1250 -0.3709  0.0449
 8186TIP3    H148753   4.884   2.444   0.538  0.0519  1.8286 -0.5134
 8186TIP3    H248754   4.782   2.504   0.632  0.1312 -0.3733  1.0567
 8187TIP3   OH248755   2.837   1.477   2.216  0.2157 -0.1081 -0.2360
 8187TIP3    H148756   2.895   1.411   2.178  0.5761 -0.1913  0.4467
 8187TIP3    H248757   2.825   1.449   2.307 -2.2785 -1.0697 -0.7522
 8188TIP3   OH248758   1.478   4.491   0.329  0.4473 -0.1562  0.3365
 8188TIP3    H148759   1.399   4.515   0.377  0.2280  0.5795 -0.3898
 8188TIP3    H248760   1.450   4.481   0.238  0.9773 -0.9854  0.2533
 8189TIP3   OH248761   2.885   1.934   9.211  0.5205  0.3011 -0.4934
 8189TIP3    H148762   2.830   1.899   9.141 -2.3592  0.4098  1.5378
 8189TIP3    H248763   2.926   1.858   9.251  0.6609  0.0600 -1.0941
 8190TIP3   OH248764   1.621   2.559   7.777  0.1739 -0.1847 -0.5869
 8190TIP3    H148765   1.551   2.620   7.802  0.7357 -0.0744  0.8443
 8190TIP3    H248766   1.579   2.473   7.777 -0.0539 -0.0790 -0.0968
 8191TIP3   OH248767   5.602   1.042   2.280  0.4592 -0.0490 -0.2858
 8191TIP3    H148768   5.649   0.966   2.316  0.3139 -0.2719 -0.5614
 8191TIP3    H248769   5.521   1.046   2.331  0.0310 -0.6569 -0.8944
 8192TIP3   OH248770   0.907   6.385   9.704  0.0082  0.0482 -0.1631
 8192TIP3    H148771   0.998   6.356   9.701 -0.8276 -2.9427 -0.1033
 8192TIP3    H248772   0.904   6.463   9.650  2.2356 -0.9623 -1.8799
 8193TIP3   OH248773   4.128   5.356   8.217  0.5349  0.4220 -0.1552
 8193TIP3    H148774   4.037   5.383   8.227 -0.0059 -0.6169 -1.8106
 8193TIP3    H248775   4.145   5.299   8.292 -0.6106 -0.4046 -0.4973
 8194TIP3   OH248776   2.486   5.393   7.692 -0.0010  0.1093  0.6735
 8194TIP3    H148777   2.401   5.350   7.682 -0.6970  1.7284 -0.9322
 8194TIP3    H248778   2.502   5.433   7.607  2.1928  0.1996  1.0847
 8195TIP3   OH248779   5.444   4.101   8.382 -0.8434 -0.2492 -0.0789
 8195TIP3    H148780   5.393   4.057   8.450 -0.6895 -2.3585 -1.2501
 8195TIP3    H248781   5.379   4.146   8.328 -1.0528  0.5566  0.8126
 8196TIP3   OH248782   2.314   1.989   6.965  0.8615  0.2231 -0.0475
 8196TIP3    H148783   2.367   1.942   6.901 -0.4167  0.5961 -1.4291
 8196TIP3    H248784   2.248   1.926   6.993  1.2146  0.1649  0.6772
 8197TIP3   OH248785   0.734   5.256   7.997 -0.2991 -0.0315 -0.2282
 8197TIP3    H148786   0.825   5.227   7.989 -0.0138  1.0685 -1.3215
 8197TIP3    H248787   0.725   5.324   7.930 -1.1636  1.7951  1.6384
 8198TIP3   OH248788   2.175   5.138   8.404 -0.3512  0.3186 -0.0597
 8198TIP3    H148789   2.166   5.233   8.411 -1.1898  0.3060 -0.7728
 8198TIP3    H248790   2.253   5.126   8.351  0.1699  0.5840  0.6216
 8199TIP3   OH248791   5.180   2.232   1.524  0.3324 -0.0516 -0.5794
 8199TIP3    H148792   5.169   2.147   1.567 -1.7669  0.3010 -0.3114
 8199TIP3    H248793   5.216   2.288   1.592 -1.0750 -0.0132  0.1766
 8200TIP3   OH248794   0.935   3.964   9.299 -0.1540 -0.7596 -0.0428
 8200TIP3    H148795   1.016   3.958   9.349  0.6402  2.2315 -0.7829
 8200TIP3    H248796   0.947   4.040   9.242 -1.9882 -2.4677 -2.9983
 8201TIP3   OH248797   7.201   0.258   2.228  0.0763  0.2545  0.2581
 8201TIP3    H148798   7.149   0.248   2.308  1.6960  0.0896  1.3403
 8201TIP3    H248799   7.223   0.168   2.203 -0.2492  0.3166 -0.2525
 8202TIP3   OH248800   4.320   4.622   8.575 -0.1855  0.0730 -1.0135
 8202TIP3    H148801   4.330   4.539   8.528 -0.5156 -1.0695  0.8670
 8202TIP3    H248802   4.333   4.600   8.667 -0.0647  2.1608 -0.4738
 8203TIP3   OH248803   0.273   7.542   0.663 -0.0919  0.2610 -0.1318
 8203TIP3    H148804   0.234   7.566   0.747 -1.5977  0.0545 -0.7381
 8203TIP3    H248805   0.328   7.617   0.640 -0.3737  0.7059  0.6146
 8204TIP3   OH248806   3.883   5.311   8.677  0.4720 -0.3433  0.1306
 8204TIP3    H148807   3.839   5.225   8.677  0.8178 -0.7200 -3.9534
 8204TIP3    H248808   3.924   5.317   8.763 -2.5759 -2.6078  1.9290
 8205TIP3   OH248809   3.178   7.061   0.136  0.1331  0.1824  0.4264
 8205TIP3    H148810   3.232   7.037   0.211 -0.9971  0.6594  1.4104
 8205TIP3    H248811   3.215   7.011   0.063 -0.9917 -3.2137  1.9915
 8206TIP3   OH248812   0.496   3.002   8.446 -0.0819  0.5275  0.0112
 8206TIP3    H148813   0.464   2.930   8.500  0.9704  1.2032  1.6060
 8206TIP3    H248814   0.591   2.991   8.446 -0.0000  1.1438 -0.8515
 8207TIP3   OH248815   5.521   4.169   9.088  0.6917 -0.0703  0.3394
 8207TIP3    H148816   5.439   4.189   9.133  0.8639  0.8031  0.2745
 8207TIP3    H248817   5.582   4.149   9.159  0.3759 -0.9579  0.3781
 8208TIP3   OH248818   4.378   7.053   2.617  0.3534  0.3338  0.0039
 8208TIP3    H148819   4.404   7.054   2.525  0.0386 -0.1363 -0.0953
 8208TIP3    H248820   4.424   7.127   2.656  2.4670 -0.9432  0.0252
 8209TIP3   OH248821   1.045   7.405   0.824 -0.3612  0.5057 -0.0513
 8209TIP3    H148822   1.101   7.439   0.893  0.4844  1.5681 -1.2003
 8209TIP3    H248823   1.016   7.483   0.776 -1.4006 -0.1546 -0.5343
 8210TIP3   OH248824   7.196   6.873   0.797 -0.0541 -0.0368 -0.0659
 8210TIP3    H148825   7.112   6.835   0.822 -0.6442  1.4412  0.2792
 8210TIP3    H248826   7.216   6.936   0.866  0.3070  1.1407 -1.2064
 8211TIP3   OH248827   0.769   2.181   7.413 -0.3057  0.2263  0.1242
 8211TIP3    H148828   0.742   2.231   7.336 -2.0157 -0.7605  0.0338
 8211TIP3    H248829   0.865   2.181   7.409 -0.3424 -0.1698 -2.2702
 8212TIP3   OH248830   4.022   5.335   9.352 -0.0810 -0.2371  0.4021
 8212TIP3    H148831   4.060   5.356   9.266 -0.5811 -0.4576  0.1205
 8212TIP3    H248832   4.031   5.416   9.402  2.1468 -0.7024  0.8813
 8213TIP3   OH248833   3.634   4.237   1.530 -0.3276 -0.3670 -0.3310
 8213TIP3    H148834   3.591   4.210   1.611  0.1411 -2.1766 -0.6413
 8213TIP3    H248835   3.599   4.325   1.512 -0.4507  0.0667  1.7942
 8214TIP3   OH248836   1.332   4.248   7.016  0.2731 -0.1233 -0.2179
 8214TIP3    H148837   1.347   4.222   7.107  0.1102 -1.1680 -0.4785
 8214TIP3    H248838   1.247   4.291   7.017  0.2456 -0.1871  0.1229
 8215TIP3   OH248839   0.839   5.541   8.352  0.0652 -0.1201  0.1601
 8215TIP3    H148840   0.888   5.595   8.413  0.4503 -2.6454  2.2584
 8215TIP3    H248841   0.905   5.508   8.290  0.8105 -2.0211  1.8602
 8216TIP3   OH248842   6.646   3.870   1.614  0.1616 -0.1038 -0.3954
 8216TIP3    H148843   6.740   3.861   1.632  0.2481 -1.6777 -1.4666
 8216TIP3    H248844   6.610   3.904   1.696  1.7815  1.5275 -0.2727
 8217TIP3   OH248845   1.246   0.512   1.654  0.3928 -0.4508  0.1007
 8217TIP3    H148846   1.196   0.473   1.726 -0.7029 -0.8362 -0.8287
 8217TIP3    H248847   1.295   0.439   1.616  0.8754 -0.2720  0.3736
 8218TIP3   OH248848   7.255   4.697   8.184  0.0223  0.1738  0.0957
 8218TIP3    H148849   7.223   4.618   8.227 -0.9385  0.2941 -0.3644
 8218TIP3    H248850   7.278   4.668   8.095  0.5188  0.2354  0.2013
 8219TIP3   OH248851   0.011   4.829   1.040 -0.5527  0.2034 -0.4056
 8219TIP3    H148852   0.052   4.891   1.100  0.0974 -0.5311 -0.0676
 8219TIP3    H248853  -0.078   4.863   1.026  0.1158  1.7591 -1.0578
 8220TIP3   OH248854   0.645   1.612   1.510  0.4066 -0.1758 -0.7358
 8220TIP3    H148855   0.714   1.571   1.562  0.5762 -0.3748 -1.1159
 8220TIP3    H248856   0.662   1.584   1.421  0.3495  0.4895 -0.9627
 8221TIP3   OH248857   1.725   5.066   1.348  0.8866 -0.6233  0.2413
 8221TIP3    H148858   1.804   5.015   1.331  1.3085  0.0188  0.2145
 8221TIP3    H248859   1.666   5.044   1.276  1.4679 -0.2761 -0.3546
 8222TIP3   OH248860   6.985   3.129   2.003  0.0586 -0.2414 -0.7715
 8222TIP3    H148861   6.983   3.067   2.077  2.0837 -0.3983 -0.7788
 8222TIP3    H248862   7.061   3.101   1.951  0.7869  1.9662 -1.0023
 8223TIP3   OH248863   7.543   1.447   9.559 -0.2774 -0.2858 -0.0349
 8223TIP3    H148864   7.549   1.429   9.652 -1.8497  0.9476  0.3382
 8223TIP3    H248865   7.581   1.369   9.517  0.5284 -0.8157  1.6035
 8224TIP3   OH248866   7.114   7.335   0.753  0.4532  0.8554 -0.0212
 8224TIP3    H148867   7.178   7.391   0.798  1.2238  0.3635 -0.4789
 8224TIP3    H248868   7.166   7.261   0.720 -0.6395 -0.5163  1.1833
 8225TIP3   OH248869   1.867   0.938   7.899  0.3887 -0.9542  0.2589
 8225TIP3    H148870   1.862   0.920   7.993  1.3635 -1.4289  0.2320
 8225TIP3    H248871   1.778   0.926   7.867 -0.2095  0.3559  1.3141
 8226TIP3   OH248872   4.464   6.245   9.132 -0.3901 -0.1439  0.0308
 8226TIP3    H148873   4.389   6.304   9.139 -1.3582 -1.3925  0.5001
 8226TIP3    H248874   4.509   6.273   9.052 -0.8912  1.1321  0.1715
 8227TIP3   OH248875   0.684   0.840   0.695  1.0382 -0.7994 -0.8418
 8227TIP3    H148876   0.670   0.756   0.652 -0.1319 -1.2662  0.3900
 8227TIP3    H248877   0.618   0.843   0.764  0.8247  1.3018 -1.0929
 8228TIP3   OH248878   4.738   3.567   7.151  0.2263 -0.2404 -0.1090
 8228TIP3    H148879   4.766   3.477   7.168  0.1261 -0.2877 -0.1927
 8228TIP3    H248880   4.801   3.621   7.199  2.4411 -0.2014 -2.7555
 8229TIP3   OH248881   2.095   0.448   7.968  0.6544 -0.1501  0.4012
 8229TIP3    H148882   2.188   0.431   7.982  0.1831 -2.0600  1.6623
 8229TIP3    H248883   2.055   0.361   7.966 -0.9941  0.5816 -1.1087
 8230TIP3   OH248884   1.190   2.560   1.555 -0.6088 -0.3540 -0.2761
 8230TIP3    H148885   1.242   2.562   1.475 -0.9259 -0.3447 -0.4849
 8230TIP3    H248886   1.253   2.542   1.624 -0.0394  1.3798 -0.2922
 8231TIP3   OH248887   7.618   5.358   1.983 -0.2333 -0.1432 -0.1239
 8231TIP3    H148888   7.629   5.385   2.074  0.2868 -0.5967 -0.0437
 8231TIP3    H248889   7.637   5.436   1.932  0.1196 -0.0563  0.1364
 8232TIP3   OH248890   1.182   4.621   9.984  0.0399 -0.1247 -0.2285
 8232TIP3    H148891   1.126   4.544   9.989  0.3833 -0.3175  1.0839
 8232TIP3    H248892   1.256   4.593   9.930  0.4092 -0.9065  0.6464
 8233TIP3   OH248893   0.936   4.738   8.482 -0.0674  0.0001  0.2800
 8233TIP3    H148894   0.961   4.801   8.550 -1.5981  0.6214  0.2857
 8233TIP3    H248895   0.858   4.775   8.441  0.0609 -1.0158 -0.9457
 8234TIP3   OH248896   4.810   1.465   9.138 -0.0558 -0.0143  0.5797
 8234TIP3    H148897   4.716   1.474   9.121 -0.5201 -0.3679  2.6725
 8234TIP3    H248898   4.849   1.448   9.053 -1.9331 -0.1566 -0.2851
 8235TIP3   OH248899   3.867   4.230   9.605  0.1445  0.9150 -0.0580
 8235TIP3    H148900   3.865   4.319   9.638  0.7358  0.9261 -0.0325
 8235TIP3    H248901   3.786   4.190   9.637  1.4281  0.4066  2.8837
 8236TIP3   OH248902   4.468   5.201   7.997  0.1968  0.4308  0.3326
 8236TIP3    H148903   4.549   5.187   7.947 -0.4056 -1.7201 -0.1380
 8236TIP3    H248904   4.445   5.114   8.030 -1.5072  1.1398  1.1242
 8237TIP3   OH248905   5.803   5.233   9.815 -0.0781  0.2776 -0.1755
 8237TIP3    H148906   5.717   5.269   9.835 -0.5343 -0.5448 -0.5863
 8237TIP3    H248907   5.844   5.217   9.900 -0.7223 -0.2329  0.0398
 8238TIP3   OH248908   3.691   6.992   6.866  0.3021 -0.1277  0.3281
 8238TIP3    H148909   3.767   7.000   6.922 -0.7084  3.0610  1.4359
 8238TIP3    H248910   3.702   7.060   6.800  0.0760 -1.9624 -1.7167
 8239TIP3   OH248911   2.525   6.125   9.401  0.0599  0.1857  0.1870
 8239TIP3    H148912   2.614   6.155   9.383 -0.3854  2.4090  1.3456
 8239TIP3    H248913   2.488   6.192   9.458 -3.2608  0.7812 -2.3152
 8240TIP3   OH248914   4.995   5.985   0.767  0.0434 -0.6038  0.1771
 8240TIP3    H148915   5.060   5.917   0.786 -0.5380 -0.6937  2.0392
 8240TIP3    H248916   4.912   5.939   0.767 -0.7640  0.4266  4.6770
 8241TIP3   OH248917   4.813   3.298   9.031  0.1530 -0.3859  0.0918
 8241TIP3    H148918   4.902   3.290   8.997  0.5101 -1.2564  1.2110
 8241TIP3    H248919   4.791   3.391   9.019 -0.1246 -0.7620 -3.3924
 8242TIP3   OH248920   5.873   0.849   9.890 -0.6637  0.1381 -0.3397
 8242TIP3    H148921   5.895   0.926   9.942 -0.4408 -0.4457  0.4534
 8242TIP3    H248922   5.786   0.824   9.921 -0.4883 -0.2714 -0.1723
 8243TIP3   OH248923   5.682   5.377   8.801  0.3002  0.2635 -0.4960
 8243TIP3    H148924   5.755   5.318   8.782  1.0705  1.2897 -0.8233
 8243TIP3    H248925   5.668   5.425   8.719  0.6418  1.5257  0.1556
 8244TIP3   OH248926   6.107   0.437   9.105 -0.1951  0.1044 -0.2917
 8244TIP3    H148927   6.120   0.501   9.175  0.4858 -0.7528  0.3857
 8244TIP3    H248928   6.163   0.468   9.034 -1.0413  1.0885 -0.5472
 8245TIP3   OH248929   3.629   4.508   6.712 -0.3904 -0.1154  0.5071
 8245TIP3    H148930   3.601   4.583   6.661  3.0164 -0.9457 -3.0454
 8245TIP3    H248931   3.704   4.539   6.764 -1.0729 -0.3318  1.6649
 8246TIP3   OH248932   3.452   0.484   1.822  0.0855  0.2182  0.2374
 8246TIP3    H148933   3.422   0.420   1.757  0.8548  0.4612 -0.3839
 8246TIP3    H248934   3.382   0.549   1.825 -0.8968 -0.8536  1.1895
 8247TIP3   OH248935   0.252   7.165   8.141  0.1448  0.0862  0.6240
 8247TIP3    H148936   0.289   7.096   8.196  1.5532  0.2736 -0.0367
 8247TIP3    H248937   0.158   7.148   8.141  0.5018 -2.2975 -0.1267
 8248TIP3   OH248938   2.539   3.660   7.288 -0.2662  0.0087 -0.1742
 8248TIP3    H148939   2.585   3.653   7.205 -0.0920  0.8868 -0.1692
 8248TIP3    H248940   2.609   3.669   7.353 -0.4197  0.9664 -0.1258
 8249TIP3   OH248941   0.638   6.540   8.444 -0.4327  0.3514 -0.5902
 8249TIP3    H148942   0.711   6.497   8.399  0.8590  0.9223  0.8868
 8249TIP3    H248943   0.590   6.469   8.486  0.8340  0.1572  0.6123
 8250TIP3   OH248944   0.700   1.799   0.689  0.3394 -0.1933  0.3180
 8250TIP3    H148945   0.756   1.818   0.765 -0.2940  1.3426  0.4417
 8250TIP3    H248946   0.680   1.885   0.652 -1.7072 -0.6977  0.1249
 8251TIP3   OH248947   6.117   7.259   1.238 -0.3222 -0.0551 -0.6311
 8251TIP3    H148948   6.211   7.272   1.228 -0.1559 -0.8891 -0.2206
 8251TIP3    H248949   6.101   7.267   1.332 -0.6708  0.1480 -0.7035
 8252TIP3   OH248950   0.870   0.294   9.158 -0.3676  0.9661  0.0558
 8252TIP3    H148951   0.897   0.275   9.248 -3.2731  1.1949  1.0791
 8252TIP3    H248952   0.778   0.320   9.165 -0.0756  3.2953 -2.7282
 8253TIP3   OH248953   3.143   6.707   9.790  0.0073 -0.5741  0.6356
 8253TIP3    H148954   3.110   6.634   9.737  0.0477 -0.0038 -0.1845
 8253TIP3    H248955   3.078   6.776   9.778  0.3050 -0.2499  0.8887
 8254TIP3   OH248956   1.488   4.876   2.357  0.0728 -0.0959  0.4529
 8254TIP3    H148957   1.473   4.847   2.447  0.7387  0.4892  0.7601
 8254TIP3    H248958   1.582   4.893   2.353  0.3215 -1.5643 -0.7885
 8255TIP3   OH248959   0.415   5.764   2.275  0.1159  0.0563  0.5296
 8255TIP3    H148960   0.372   5.695   2.325 -1.7594  0.6979 -0.1088
 8255TIP3    H248961   0.408   5.842   2.330  1.5267 -0.0485  0.9044
 8256TIP3   OH248962   3.067   3.624   7.546 -0.4419  0.1923 -0.1478
 8256TIP3    H148963   3.156   3.589   7.552 -0.4807  0.2413  0.8759
 8256TIP3    H248964   3.011   3.550   7.569 -0.5785  0.5980  0.8656
 8257TIP3   OH248965   6.551   2.995   2.090  0.1089  0.0365 -0.0240
 8257TIP3    H148966   6.462   2.993   2.054  0.8872  0.3873 -2.0983
 8257TIP3    H248967   6.590   3.074   2.054  1.1618  0.1118  1.1999
 8258TIP3   OH248968   5.885   0.214   9.859  0.5149  0.3081  0.5001
 8258TIP3    H148969   5.962   0.266   9.836 -0.1765  0.8328 -0.7316
 8258TIP3    H248970   5.849   0.259   9.936  0.1559  1.4567 -0.3023
 8259TIP3   OH248971   2.385   7.660   1.893  0.6358  0.3514 -0.1850
 8259TIP3    H148972   2.461   7.661   1.952  0.0070 -0.1562  0.6443
 8259TIP3    H248973   2.332   7.734   1.921 -0.5980 -0.9824  1.1628
 8260TIP3   OH248974   1.268   4.220   1.271  0.2109  0.0950  0.0424
 8260TIP3    H148975   1.268   4.253   1.361 -3.0717 -0.2024  0.3030
 8260TIP3    H248976   1.260   4.298   1.217 -2.0283  0.1388  0.3368
 8261TIP3   OH248977   7.417   1.453   8.066 -0.9803  0.0606  0.0522
 8261TIP3    H148978   7.473   1.403   8.125  0.2486  1.0931 -0.1875
 8261TIP3    H248979   7.456   1.441   7.980 -1.3130  0.5388 -0.1726
 8262TIP3   OH248980   5.518   2.558   8.305 -0.2408 -0.3017  0.0802
 8262TIP3    H148981   5.535   2.629   8.367  0.3108  0.1209 -0.5429
 8262TIP3    H248982   5.442   2.588   8.254  0.0143 -0.1394 -0.2070
 8263TIP3   OH248983   5.151   0.908   0.290 -0.4309  0.0530 -0.1476
 8263TIP3    H148984   5.225   0.957   0.326  1.2818 -1.3061 -1.6079
 8263TIP3    H248985   5.129   0.844   0.359 -1.4373  1.5386  0.9807
 8264TIP3   OH248986   2.906   0.416   1.121 -0.0617  0.6183 -0.4274
 8264TIP3    H148987   2.833   0.359   1.095  0.1237  0.3328 -0.3321
 8264TIP3    H248988   2.874   0.505   1.106 -1.3082  0.6158  1.8408
 8265TIP3   OH248989   3.086   0.606   7.705 -0.1410 -0.2700 -0.2899
 8265TIP3    H148990   3.072   0.653   7.623  1.5174 -0.0000 -0.4412
 8265TIP3    H248991   3.086   0.674   7.772  0.9889 -0.1766 -0.3660
 8266TIP3   OH248992   6.694   0.724   1.388  0.0423 -0.2255 -0.3053
 8266TIP3    H148993   6.736   0.689   1.466  0.0450 -1.6813 -0.9274
 8266TIP3    H248994   6.601   0.734   1.412 -0.5924 -3.5242 -0.9397
 8267TIP3   OH248995   1.122   3.689   9.424 -0.0153  0.1349  1.0839
 8267TIP3    H148996   1.056   3.684   9.493 -0.3007  1.8166  0.9779
 8267TIP3    H248997   1.170   3.770   9.442 -0.1372  0.6621 -0.7054
 8268TIP3   OH248998   1.107   2.319   2.050 -0.1071 -0.2335 -0.3322
 8268TIP3    H148999   1.070   2.352   1.967 -0.9002  0.9571  0.4612
 8268TIP3    H249000   1.198   2.347   2.048 -0.3504  0.5841 -0.4178
 8269TIP3   OH249001   1.847   5.086   6.860 -0.6873 -0.1198  0.0111
 8269TIP3    H149002   1.830   5.156   6.798 -0.9544 -1.4922 -1.5337
 8269TIP3    H249003   1.941   5.069   6.852 -0.7303 -0.3304 -0.0653
 8270TIP3   OH249004   1.846   6.620   9.984 -0.4547 -0.3129  0.2325
 8270TIP3    H149005   1.854   6.690  10.049 -0.4930 -1.5149  1.5849
 8270TIP3    H249006   1.753   6.598   9.985 -0.7203  0.5701 -1.2800
 8271TIP3   OH249007   5.713   6.398   2.295  0.2002 -0.0081  0.1860
 8271TIP3    H149008   5.719   6.337   2.221 -0.3463 -2.0582  1.7176
 8271TIP3    H249009   5.773   6.362   2.360 -1.8267 -0.2784  2.0046
 8272TIP3   OH249010   3.463   1.502   9.407  0.0270 -0.5465  0.6137
 8272TIP3    H149011   3.398   1.508   9.478 -0.5752 -0.8197  0.0902
 8272TIP3    H249012   3.452   1.584   9.358  1.5594  0.4097  1.7536
 8273TIP3   OH249013   3.469   3.522   0.503  0.1374 -0.3567 -0.2804
 8273TIP3    H149014   3.410   3.598   0.506 -0.8384 -1.0645 -0.9463
 8273TIP3    H249015   3.432   3.460   0.565  1.0047 -0.2541  0.3565
 8274TIP3   OH249016   0.655   2.920   8.141  0.6271 -0.2687  0.1257
 8274TIP3    H149017   0.703   2.837   8.141  1.5050  0.2306  0.6203
 8274TIP3    H249018   0.611   2.922   8.056  1.3709 -0.7959 -0.2796
 8275TIP3   OH249019   0.784   3.653   7.672  0.3382  0.7422  0.2386
 8275TIP3    H149020   0.738   3.737   7.664 -0.5363  0.1966 -0.7120
 8275TIP3    H249021   0.715   3.587   7.666  0.8938 -0.0499  2.0149
 8276TIP3   OH249022   0.410   3.800   9.514 -0.3296  0.2190 -0.3227
 8276TIP3    H149023   0.491   3.755   9.539 -0.3047 -1.1453 -2.6079
 8276TIP3    H249024   0.395   3.774   9.423 -3.5787  0.0553  0.1406
 8277TIP3   OH249025   6.741   5.543   0.376 -0.5828 -0.1448  0.3388
 8277TIP3    H149026   6.664   5.521   0.324 -0.5454  0.9289 -0.1964
 8277TIP3    H249027   6.706   5.575   0.459 -0.6646 -0.9417  0.6214
 8278TIP3   OH249028   0.202   1.704   0.295 -0.0559 -0.6149  0.0066
 8278TIP3    H149029   0.128   1.670   0.245 -0.4363 -0.0274  0.1615
 8278TIP3    H249030   0.176   1.793   0.319  0.5864 -0.5011  0.2986
 8279TIP3   OH249031   0.737   3.587   1.430 -0.0179  0.3446 -0.0446
 8279TIP3    H149032   0.783   3.666   1.459  0.4957 -0.1358  0.4922
 8279TIP3    H249033   0.779   3.516   1.479 -1.9910 -0.0179  1.2065
 8280TIP3   OH249034   2.757   5.016   1.591 -0.3765 -0.1635 -0.0166
 8280TIP3    H149035   2.818   5.036   1.661 -0.4875  2.2705 -0.5484
 8280TIP3    H249036   2.674   4.996   1.635 -0.3846  1.1080  0.5759
 8281TIP3   OH249037   3.759   7.430   2.041  0.5975  0.6902 -0.1330
 8281TIP3    H149038   3.750   7.347   2.086  1.2921 -0.0646 -1.3431
 8281TIP3    H249039   3.740   7.496   2.108  2.3081 -0.3489  1.4455
 8282TIP3   OH249040   6.279   6.888   9.543 -0.3043 -0.3348  0.2178
 8282TIP3    H149041   6.330   6.917   9.619  0.7024  1.4936 -1.0610
 8282TIP3    H249042   6.318   6.935   9.469  0.6192 -4.0586 -1.9511
 8283TIP3   OH249043   3.912   1.028   1.110  0.4330  0.3926  0.4839
 8283TIP3    H149044   3.932   0.962   1.044 -0.7600  1.9389 -1.5407
 8283TIP3    H249045   3.856   0.983   1.173  0.3146 -0.7331 -0.4009
 8284TIP3   OH249046   3.635   0.640   9.138 -0.4756 -0.5254  0.3297
 8284TIP3    H149047   3.607   0.666   9.226  0.7851  0.2678  0.5179
 8284TIP3    H249048   3.558   0.595   9.101 -0.4647 -2.5587  2.5048
 8285TIP3   OH249049   0.112   0.676   0.770  0.0980  0.4033  0.0876
 8285TIP3    H149050   0.026   0.707   0.797 -0.4157 -1.1536  0.3464
 8285TIP3    H249051   0.133   0.727   0.692 -1.2144  0.5736 -0.1710
 8286TIP3   OH249052   7.196   4.256   0.688  0.1868 -0.5647 -0.0621
 8286TIP3    H149053   7.246   4.331   0.655 -1.1740  0.1725 -0.5285
 8286TIP3    H249054   7.187   4.198   0.613  0.2449 -0.6425 -0.0088
 8287TIP3   OH249055   2.497   3.881   0.612 -0.3774  0.7220 -0.2556
 8287TIP3    H149056   2.463   3.962   0.574 -1.9635  0.3470  0.3217
 8287TIP3    H249057   2.586   3.873   0.575 -0.7132  1.9768 -1.4130
 8288TIP3   OH249058   5.889   3.890   8.256  0.3543 -0.0589  0.2762
 8288TIP3    H149059   5.811   3.938   8.229  0.5340 -0.2616 -0.6579
 8288TIP3    H249060   5.871   3.863   8.346 -1.7659 -2.2834 -0.6879
 8289TIP3   OH249061   1.873   7.492   0.825 -0.2716  0.0263 -0.1939
 8289TIP3    H149062   1.922   7.450   0.895  0.9840  1.4751 -0.1552
 8289TIP3    H249063   1.901   7.447   0.745 -0.8596 -0.8767  0.1015
 8290TIP3   OH249064   7.432   4.656   1.500 -0.4515  0.0385 -1.3367
 8290TIP3    H149065   7.429   4.621   1.411  1.7212  2.7062 -2.6084
 8290TIP3    H249066   7.516   4.626   1.535 -0.9532 -0.3632 -0.4425
 8291TIP3   OH249067   2.384   0.570   8.439  0.1457  0.5173 -0.0714
 8291TIP3    H149068   2.439   0.599   8.366 -1.1826  0.3053 -1.1985
 8291TIP3    H249069   2.327   0.503   8.401  0.1845 -0.4150  1.4486
 8292TIP3   OH249070   2.271   4.214   0.760 -0.0591  0.3830  0.5507
 8292TIP3    H149071   2.237   4.131   0.793 -1.0835  0.1764 -0.9539
 8292TIP3    H249072   2.365   4.211   0.781  0.0535 -1.4400 -0.0457
 8293TIP3   OH249073   6.848   1.385   9.393  0.1932  0.4703 -0.2114
 8293TIP3    H149074   6.753   1.375   9.390  0.3806 -1.5404 -1.3788
 8293TIP3    H249075   6.866   1.455   9.330 -0.4362 -0.2300 -1.2151
 8294TIP3   OH249076   3.928   2.412   0.458  0.0783  0.4112  0.4710
 8294TIP3    H149077   3.839   2.447   0.454 -0.2564 -0.5014 -1.6540
 8294TIP3    H249078   3.917   2.318   0.440  1.5459  0.5102 -1.2205
 8295TIP3   OH249079   4.656   4.974   1.375  0.0053 -0.0703  0.3763
 8295TIP3    H149080   4.660   5.064   1.343  1.5962 -0.4953 -0.7819
 8295TIP3    H249081   4.563   4.953   1.377 -0.3520  1.3552 -0.0303
 8296TIP3   OH249082   5.679   1.903   8.320  0.2158  0.0033  0.1359
 8296TIP3    H149083   5.767   1.929   8.347  0.4679 -1.7438  1.1342
 8296TIP3    H249084   5.624   1.921   8.396 -0.5381  2.0808 -0.8408
 8297TIP3   OH249085   1.322   1.335   1.752  0.8267 -0.9873  0.1069
 8297TIP3    H149086   1.380   1.392   1.803 -0.3621  0.0367  0.3820
 8297TIP3    H249087   1.278   1.281   1.818 -0.4724  0.1132  0.1897
 8298TIP3   OH249088   3.017   6.447   8.408 -0.3626 -0.7967 -0.5699
 8298TIP3    H149089   2.929   6.435   8.372 -0.8477 -0.6331  0.5053
 8298TIP3    H249090   3.042   6.536   8.382 -1.1225 -0.3053  0.3219
 8299TIP3   OH249091   1.871   1.145   0.145 -0.4246  0.6191  1.1394
 8299TIP3    H149092   1.923   1.167   0.222  0.5060  1.0964  0.3881
 8299TIP3    H249093   1.911   1.193   0.073 -1.2004  0.0851  0.3189
 8300TIP3   OH249094   0.060   6.319   2.555 -0.5115 -0.1125 -0.1827
 8300TIP3    H149095  -0.019   6.291   2.509 -1.0886  0.0652  0.6725
 8300TIP3    H249096   0.060   6.267   2.636 -0.3662  0.6850  0.3468
 8301TIP3   OH249097   0.158   2.204   1.357  0.6031 -0.7529 -0.2444
 8301TIP3    H149098   0.194   2.276   1.409 -1.5895  0.7905 -0.7020
 8301TIP3    H249099   0.161   2.235   1.267 -0.1917 -1.2887 -0.4690
 8302TIP3   OH249100   6.525   2.442   1.135 -0.0366  0.4468  0.0165
 8302TIP3    H149101   6.550   2.351   1.150  2.6743  1.3198  1.4822
 8302TIP3    H249102   6.430   2.440   1.127 -0.0797 -2.4617  0.2077
 8303TIP3   OH249103   0.244   6.058   7.073 -0.2121  0.0463  0.3089
 8303TIP3    H149104   0.255   5.963   7.066  2.4996  0.2875  0.1612
 8303TIP3    H249105   0.245   6.089   6.982 -1.0233  0.2323  0.3599
 8304TIP3   OH249106   7.095   2.899   1.780 -0.0299 -0.3179 -0.1332
 8304TIP3    H149107   7.059   2.882   1.693 -1.9695 -0.1709  0.5853
 8304TIP3    H249108   7.037   2.853   1.840  0.6885  0.3885  1.1620
 8305TIP3   OH249109   1.760   1.024   0.751  0.5990  0.0082 -0.5929
 8305TIP3    H149110   1.735   1.027   0.843  2.4125 -1.2256  0.0044
 8305TIP3    H249111   1.709   0.953   0.714  0.8092 -0.3575 -0.1952
 8306TIP3   OH249112   5.287   1.416   7.591 -0.1184  0.3243  0.4739
 8306TIP3    H149113   5.249   1.464   7.518  0.8392  0.4308  0.0252
 8306TIP3    H249114   5.277   1.324   7.567 -2.0854  0.2598  1.4011
 8307TIP3   OH249115   4.758   5.212   8.578  0.2041  0.2192  0.4421
 8307TIP3    H149116   4.675   5.178   8.544  0.6434 -0.8013  0.3450
 8307TIP3    H249117   4.766   5.299   8.539 -0.7142  0.2505  0.2903
 8308TIP3   OH249118   6.309   6.534   1.252  0.0765 -0.0629 -0.2232
 8308TIP3    H149119   6.329   6.571   1.339  1.1552  2.3376 -1.3937
 8308TIP3    H249120   6.387   6.485   1.228  0.2808  0.3014 -0.3187
 8309TIP3   OH249121   3.788   0.176   9.883  0.4676  0.1296  0.1756
 8309TIP3    H149122   3.867   0.198   9.932  0.1407  0.8268  0.4080
 8309TIP3    H249123   3.718   0.225   9.927  0.1613  0.7870 -0.9811
 8310TIP3   OH249124   0.804   1.926   1.331 -0.6015  0.7219  0.1868
 8310TIP3    H149125   0.850   1.978   1.396  1.4489 -0.2725 -0.3623
 8310TIP3    H249126   0.858   1.847   1.322 -2.1713 -0.2770 -0.9117
 8311TIP3   OH249127   3.826   4.089   1.808 -0.3834  0.0944 -0.5352
 8311TIP3    H149128   3.855   4.026   1.742 -0.5251  0.3914 -0.8841
 8311TIP3    H249129   3.731   4.078   1.812 -0.5766  1.1336 -1.5022
 8312TIP3   OH249130   6.614   7.083   0.607 -0.0733  0.0202  0.2969
 8312TIP3    H149131   6.584   7.174   0.607 -1.7509 -0.5008 -0.2313
 8312TIP3    H249132   6.710   7.090   0.599  0.0861  1.7636  2.6578
 8313TIP3   OH249133   4.958   4.958   1.777  0.1058 -0.0607 -0.3737
 8313TIP3    H149134   4.907   4.878   1.767  1.0083 -0.5312 -1.5021
 8313TIP3    H249135   4.973   4.966   1.871 -1.0743 -0.5154 -0.1416
 8314TIP3   OH249136   5.681   2.442   9.961  0.0083 -0.6331  0.0642
 8314TIP3    H149137   5.750   2.428   9.896 -1.0297 -0.0663 -1.1915
 8314TIP3    H249138   5.709   2.522  10.007  1.4316 -1.7791  1.2828
 8315TIP3   OH249139   6.143   0.036   0.837 -0.2146 -0.2643  0.1536
 8315TIP3    H149140   6.229   0.066   0.807 -1.0092  0.4734 -1.5232
 8315TIP3    H249141   6.097   0.013   0.757 -2.5219  1.9774  0.7017
 8316TIP3   OH249142   4.918   1.276   9.309  0.3084  0.0991 -0.2744
 8316TIP3    H149143   4.871   1.336   9.251  1.2125 -0.0491 -1.1945
 8316TIP3    H249144   4.937   1.199   9.255  1.7180  0.2154  0.0007
 8317TIP3   OH249145   6.185   1.408   9.035  0.3073  0.3303  0.1192
 8317TIP3    H149146   6.225   1.494   9.022  1.1444  0.2703  2.0617
 8317TIP3    H249147   6.225   1.352   8.969  1.9175  0.7637  0.6981
 8318TIP3   OH249148   1.712   0.573   2.366  0.0828  0.4606 -0.3782
 8318TIP3    H149149   1.768   0.636   2.321 -0.1543  1.9245  1.2606
 8318TIP3    H249150   1.627   0.617   2.372  0.4552  0.9634  2.6248
 8319TIP3   OH249151   2.993   1.931   9.915 -0.7902  0.2948 -0.0799
 8319TIP3    H149152   3.039   1.933   9.999 -1.3853  0.1238  0.2618
 8319TIP3    H249153   3.019   1.848   9.875 -0.1284  0.5965 -0.2887
 8320TIP3   OH249154   2.559   6.688   1.997  0.2261  0.3572  0.4341
 8320TIP3    H149155   2.476   6.694   1.951 -0.2461  0.8886  1.3174
 8320TIP3    H249156   2.580   6.595   1.998 -0.4357  0.2067  0.3436
 8321TIP3   OH249157   4.667   0.106   0.645  0.2020 -0.2691 -0.6817
 8321TIP3    H149158   4.700   0.020   0.618 -0.7543 -1.1210  0.7405
 8321TIP3    H249159   4.703   0.120   0.732 -1.7048 -0.4245  0.1748
 8322TIP3   OH249160   6.339   3.269   1.708  0.3219 -0.0361  0.2568
 8322TIP3    H149161   6.297   3.184   1.699 -0.2612 -0.0030  2.2317
 8322TIP3    H249162   6.280   3.330   1.663 -0.3599 -0.3784  0.6711
 8323TIP3   OH249163   0.580   4.775   7.980 -0.8487  0.2514 -0.1629
 8323TIP3    H149164   0.575   4.859   8.024 -2.2705  0.8114 -1.3252
 8323TIP3    H249165   0.596   4.796   7.888  0.3161 -0.8202 -0.2399
 8324TIP3   OH249166   4.228   5.104   9.140 -0.7794 -0.0865 -0.0754
 8324TIP3    H149167   4.285   5.035   9.106 -0.0160  0.7803 -0.5782
 8324TIP3    H249168   4.139   5.073   9.121 -0.5716 -1.8198  1.4097
 8325TIP3   OH249169   1.554   1.739   9.033  0.0208 -0.0743 -0.0201
 8325TIP3    H149170   1.513   1.670   9.086 -3.3751  2.1476  0.5277
 8325TIP3    H249171   1.565   1.699   8.947 -2.5044 -1.1989  0.0828
 8326TIP3   OH249172   6.903   0.502   9.345  0.3210 -0.3344 -0.0714
 8326TIP3    H149173   6.954   0.502   9.264 -0.6045 -0.6829 -0.6623
 8326TIP3    H249174   6.840   0.573   9.334  0.0896 -0.4827  0.2739
 8327TIP3   OH249175   2.531   0.875   0.574 -0.2666  0.4569 -0.5319
 8327TIP3    H149176   2.543   0.969   0.587  2.4929  0.3050 -1.3044
 8327TIP3    H249177   2.558   0.836   0.657 -0.8306  0.3025 -0.4170
 8328TIP3   OH249178   1.653   3.263   8.674 -0.6889 -0.3833 -0.0972
 8328TIP3    H149179   1.573   3.298   8.633 -0.1072 -0.0453 -0.9667
 8328TIP3    H249180   1.711   3.338   8.682  0.6557 -1.1127 -2.1667
 8329TIP3   OH249181   3.322   4.311   0.968  0.1771 -0.8957 -0.5966
 8329TIP3    H149182   3.235   4.316   1.006  0.5205 -1.0252  0.2262
 8329TIP3    H249183   3.372   4.379   1.013  0.8483 -1.6910 -0.1105
 8330TIP3   OH249184   3.838   3.694   0.455  0.1546  0.8794  0.1284
 8330TIP3    H149185   3.743   3.685   0.447  0.1073  2.8106 -4.1312
 8330TIP3    H249186   3.873   3.615   0.413  0.5128  0.3333  1.3949
 8331TIP3   OH249187   7.544   5.414   8.571 -0.4082 -0.1152 -0.4436
 8331TIP3    H149188   7.493   5.402   8.491 -0.6745 -1.3766 -0.1084
 8331TIP3    H249189   7.520   5.340   8.626  0.7907 -0.0151  0.2599
 8332TIP3   OH249190   0.633   5.687   9.738  0.0772 -0.2602  0.2153
 8332TIP3    H149191   0.678   5.769   9.759  0.2513 -0.3058  0.0309
 8332TIP3    H249192   0.541   5.704   9.755  0.2579 -0.4184  1.4067
 8333TIP3   OH249193   6.062   0.652   9.912  0.0579  0.7098  0.3618
 8333TIP3    H149194   5.996   0.714   9.883  1.3069  2.3024  0.7269
 8333TIP3    H249195   6.065   0.662  10.007 -1.3642 -1.7005  0.7448
 8334TIP3   OH249196   5.839   3.706   1.782 -0.5594 -0.1636 -0.5142
 8334TIP3    H149197   5.781   3.648   1.832 -0.5890  0.6994  0.4863
 8334TIP3    H249198   5.847   3.784   1.836  0.5251  0.2473 -1.2401
 8335TIP3   OH249199   1.249   4.702   0.246 -0.4008 -0.4649  0.0301
 8335TIP3    H149200   1.205   4.623   0.276 -0.6154 -0.5419 -0.4732
 8335TIP3    H249201   1.253   4.693   0.150 -1.7717  0.8018 -0.1932
 8336TIP3   OH249202   5.396   0.049   2.051 -0.0788 -0.1311  0.2961
 8336TIP3    H149203   5.368   0.099   2.129 -1.4565 -1.2092  0.5324
 8336TIP3    H249204   5.317   0.039   1.999  0.7354  0.1752 -1.0562
 8337TIP3   OH249205   7.475   7.552   0.224  0.5797 -0.2149 -0.0694
 8337TIP3    H149206   7.570   7.544   0.224  0.6755  0.7659 -0.6369
 8337TIP3    H249207   7.443   7.462   0.230  1.5428 -0.6718 -1.4224
 8338TIP3   OH249208   0.328   4.934   9.423  0.6317  0.1337  0.4563
 8338TIP3    H149209   0.336   4.847   9.384  0.1496  0.6377 -0.7966
 8338TIP3    H249210   0.265   4.922   9.494  0.0527 -0.4108 -0.1320
 8339TIP3   OH249211   5.404   2.135   9.353 -0.1988  0.3555  0.0593
 8339TIP3    H149212   5.418   2.229   9.369  0.3739  0.3161 -0.1766
 8339TIP3    H249213   5.415   2.094   9.438  0.5248  0.4023 -0.0027
 8340TIP3   OH249214   4.803   4.783   1.539  0.5027 -0.3119  0.3267
 8340TIP3    H149215   4.743   4.709   1.548 -1.6982  1.4666  1.3676
 8340TIP3    H249216   4.752   4.850   1.494  1.3995  1.5624  1.9570
 8341TIP3   OH249217   1.700   1.281   9.661 -0.3853  0.0396  0.0818
 8341TIP3    H149218   1.723   1.267   9.753  2.1658 -0.2603 -0.5336
 8341TIP3    H249219   1.717   1.196   9.619 -1.8669  0.0674 -0.6268
 8342TIP3   OH249220   6.541   5.865   8.676  0.4052  0.1091 -0.4757
 8342TIP3    H149221   6.502   5.948   8.647 -0.2258 -0.0608 -0.1358
 8342TIP3    H249222   6.584   5.886   8.758 -1.2243 -0.2348  0.5198
 8343TIP3   OH249223   0.956   4.182   0.206 -0.2061  0.2003  0.2689
 8343TIP3    H149224   0.907   4.108   0.170  1.1082 -0.5731  0.0333
 8343TIP3    H249225   0.956   4.167   0.300  0.5560 -0.4152  0.1726
 8344TIP3   OH249226   4.370   0.710   0.303 -0.4287 -0.3636  0.1696
 8344TIP3    H149227   4.398   0.722   0.212 -1.8092  0.2741 -0.1979
 8344TIP3    H249228   4.447   0.734   0.354  0.4065 -0.8351 -0.8202
 8345TIP3   OH249229   1.788   6.726   0.975 -0.1452 -0.2877 -0.0916
 8345TIP3    H149230   1.726   6.770   1.034 -0.3509  0.7924 -1.0814
 8345TIP3    H249231   1.801   6.787   0.903  1.2140 -0.9797 -0.4771
 8346TIP3   OH249232   1.746   1.677   2.587 -0.0009 -0.4214 -0.2459
 8346TIP3    H149233   1.682   1.728   2.637  1.2140  1.9499 -0.9551
 8346TIP3    H249234   1.794   1.627   2.653  0.5291  1.4359  0.8522
 8347TIP3   OH249235   3.011   1.507   8.489 -0.0481 -0.4972  0.3240
 8347TIP3    H149236   2.971   1.583   8.532 -0.1617 -0.8975  0.9339
 8347TIP3    H249237   2.983   1.432   8.541  0.4263 -0.9183 -0.0161
 8348TIP3   OH249238   3.301   6.570   2.871  0.6522  0.0039 -0.0381
 8348TIP3    H149239   3.206   6.585   2.876  0.8109  0.5937  1.6472
 8348TIP3    H249240   3.323   6.529   2.954  2.1189  1.3510  0.2808
 8349TIP3   OH249241   5.902   1.788   8.768 -0.1392  0.2798 -0.2167
 8349TIP3    H149242   5.858   1.706   8.745  1.5965 -0.3945 -1.3491
 8349TIP3    H249243   5.906   1.836   8.685  1.5229  0.1558 -0.2289
 8350TIP3   OH249244   0.995   0.142   1.440  0.0648 -0.0975 -0.1046
 8350TIP3    H149245   0.996   0.183   1.354 -1.3429  0.1793 -0.0075
 8350TIP3    H249246   0.956   0.056   1.426 -0.2197 -0.0320  0.2623
 8351TIP3   OH249247   3.905   3.656   1.641 -0.4641 -0.1014  0.3460
 8351TIP3    H149248   3.827   3.601   1.653 -1.3524  0.9329 -0.4359
 8351TIP3    H249249   3.951   3.616   1.568  0.0611 -1.0445  1.1681
 8352TIP3   OH249250   5.308   0.922   0.941  0.0378  0.3273  0.4194
 8352TIP3    H149251   5.296   0.855   0.874 -0.0708 -1.2384  1.9152
 8352TIP3    H249252   5.239   0.904   1.005 -0.3245  2.2274  0.6024
 8353TIP3   OH249253   7.471   0.365   7.307  0.0529  0.0163  0.4637
 8353TIP3    H149254   7.493   0.274   7.288  1.6146  0.4307  0.1590
 8353TIP3    H249255   7.428   0.396   7.228  2.0907  0.3285 -0.5702
 8354TIP3   OH249256   7.545   2.014   0.334 -0.4351  0.2309  0.7112
 8354TIP3    H149257   7.483   2.084   0.351 -1.0656  0.1422 -1.0213
 8354TIP3    H249258   7.491   1.937   0.316  0.1040  0.1759 -0.9186
 8355TIP3   OH249259   4.139   4.765   1.080 -0.0835  0.0685 -0.5122
 8355TIP3    H149260   4.089   4.786   1.001  0.3707  0.8409 -0.5990
 8355TIP3    H249261   4.162   4.672   1.069  1.4259  0.5650 -2.1365
 8356TIP3   OH249262   1.500   7.632   7.033 -0.0242 -0.0057  0.5813
 8356TIP3    H149263   1.594   7.647   7.045  0.1999  0.4503 -1.3152
 8356TIP3    H249264   1.466   7.716   7.002 -0.9598 -0.3105  0.7332
 8357TIP3   OH249265   6.912   6.174   7.815 -0.2786  0.2435 -0.4277
 8357TIP3    H149266   6.883   6.263   7.836 -0.7993 -0.3057  1.4076
 8357TIP3    H249267   6.991   6.161   7.868 -1.2714 -1.0009  0.8355
 8358TIP3   OH249268   7.245   1.925   0.849  0.3158 -0.1203  0.0389
 8358TIP3    H149269   7.300   1.883   0.916 -1.2406 -0.8144  0.9428
 8358TIP3    H249270   7.164   1.945   0.895 -0.2193  0.8347 -1.2764
 8359TIP3   OH249271   7.374   5.065   7.786 -0.1236 -0.0257  0.6429
 8359TIP3    H149272   7.304   5.066   7.721 -0.8863 -1.6392  1.3794
 8359TIP3    H249273   7.369   5.151   7.828 -1.2292  0.1196  0.2381
 8360TIP3   OH249274   2.374   5.567   7.919  0.5716 -0.2603 -0.4552
 8360TIP3    H149275   2.379   5.516   7.838 -0.0960 -0.7382 -0.2037
 8360TIP3    H249276   2.456   5.549   7.964  0.5511 -0.7171 -0.6013
 8361TIP3   OH249277   0.499   4.504   8.047 -0.5694 -0.3940 -0.1331
 8361TIP3    H149278   0.517   4.491   8.140  2.6713 -3.2700 -0.9347
 8361TIP3    H249279   0.522   4.595   8.031 -0.9963  0.1072  1.8094
 8362TIP3   OH249280   3.379   6.128   0.937 -0.0626 -0.1685 -0.0678
 8362TIP3    H149281   3.360   6.222   0.933  0.5115 -0.0315  0.2798
 8362TIP3    H249282   3.298   6.086   0.908 -0.8885  0.3944  1.3480
 8363TIP3   OH249283   2.305   0.968   6.734 -0.4143 -0.0016 -0.2884
 8363TIP3    H149284   2.351   0.907   6.792 -1.8700 -1.0415 -0.1732
 8363TIP3    H249285   2.220   0.927   6.719 -0.4854  0.7535 -2.2999
 8364TIP3   OH249286   5.566   6.569   0.895  0.0520  0.6157  0.1639
 8364TIP3    H149287   5.586   6.502   0.831 -0.3300  0.7417 -0.0877
 8364TIP3    H249288   5.471   6.579   0.892 -0.3053 -1.1669  2.5512
 8365TIP3   OH249289   6.847   7.654   0.427 -0.3201  0.2137 -0.3609
 8365TIP3    H149290   6.891   7.603   0.495  0.9952  0.4254 -1.0352
 8365TIP3    H249291   6.843   7.743   0.461  0.5331  0.3635 -0.6431
 8366TIP3   OH249292   5.116   3.204   0.824 -0.2137  0.1603  0.8818
 8366TIP3    H149293   5.053   3.135   0.847  1.7585 -2.1446 -0.2543
 8366TIP3    H249294   5.190   3.189   0.883  0.1836  1.4532  0.7337
 8367TIP3   OH249295   3.432   2.860   1.053 -0.1304  0.0593  0.3915
 8367TIP3    H149296   3.393   2.827   0.971 -0.7493 -2.6719  1.6574
 8367TIP3    H249297   3.515   2.813   1.060 -0.0505  0.3241  1.2940
 8368TIP3   OH249298   4.584   4.740   8.457 -0.6568  0.5548  0.5206
 8368TIP3    H149299   4.511   4.682   8.432 -0.3400 -0.1988  1.3072
 8368TIP3    H249300   4.550   4.790   8.531  0.1172 -0.9224  1.9285
 8369TIP3   OH249301   4.151   1.445   8.202  0.4622  0.3885  0.8809
 8369TIP3    H149302   4.243   1.436   8.176  0.5839  1.7007  0.7558
 8369TIP3    H249303   4.106   1.473   8.122  0.1338  0.6877  1.1659
 8370TIP3   OH249304   1.321   3.669   0.328 -0.2946  0.1626 -0.1388
 8370TIP3    H149305   1.366   3.601   0.278 -2.9341 -1.3072 -0.7282
 8370TIP3    H249306   1.287   3.623   0.405 -2.4828  0.6318 -0.7533
 8371TIP3   OH249307   3.171   1.399   8.286  0.4265  0.8005  0.5517
 8371TIP3    H149308   3.144   1.465   8.350 -0.4845  1.0609 -0.0859
 8371TIP3    H249309   3.165   1.444   8.202  1.5374  0.4412  0.2574
 8372TIP3   OH249310   2.883   7.155   8.754  0.3492 -0.2231  0.0929
 8372TIP3    H149311   2.852   7.219   8.690  0.0089  0.3240  0.7935
 8372TIP3    H249312   2.948   7.103   8.707  0.4373  0.4705 -0.5578
 8373TIP3   OH249313   3.797   1.964   0.215  0.3012 -0.1676 -0.1022
 8373TIP3    H149314   3.858   1.935   0.147 -1.1075  0.8000 -1.8610
 8373TIP3    H249315   3.776   1.884   0.263  4.1141 -0.3131  1.6775
 8374TIP3   OH249316   3.813   3.481   8.582  0.3398 -0.1026  0.1073
 8374TIP3    H149317   3.807   3.553   8.520  0.5993  0.5845  0.8725
 8374TIP3    H249318   3.883   3.425   8.547  1.4686  1.0173  0.5216
 8375TIP3   OH249319   1.631   1.362   8.312  0.1047 -0.7180 -0.2865
 8375TIP3    H149320   1.585   1.377   8.229  0.3245 -2.1933 -0.7067
 8375TIP3    H249321   1.670   1.446   8.334 -0.5094 -0.1419 -1.3473
 8376TIP3   OH249322   0.567   3.741   9.238  0.1488  0.2002 -0.0846
 8376TIP3    H149323   0.623   3.819   9.229  0.4752 -0.0343 -0.1258
 8376TIP3    H249324   0.628   3.668   9.227 -0.2221 -0.0567 -0.4177
 8377TIP3   OH249325   0.426   6.813   8.552 -0.3490  0.1570 -0.5759
 8377TIP3    H149326   0.406   6.862   8.632  1.4721 -1.1231  0.7588
 8377TIP3    H249327   0.343   6.770   8.529 -0.6396 -0.4803  1.4215
 8378TIP3   OH249328   7.558   3.489   1.934  0.1762 -0.3985  0.3073
 8378TIP3    H149329   7.483   3.457   1.984 -0.4239 -0.6655 -0.7381
 8378TIP3    H249330   7.566   3.581   1.960 -1.5576  0.1027 -0.7560
 8379TIP3   OH249331   4.307   7.247   8.821  0.2245 -0.4799  0.1979
 8379TIP3    H149332   4.305   7.278   8.730  2.3739 -1.9482 -0.4489
 8379TIP3    H249333   4.218   7.257   8.852 -1.1195 -1.8805 -2.8108
 8380TIP3   OH249334   1.541   2.802   7.461  0.2210  0.0444 -0.5493
 8380TIP3    H149335   1.494   2.835   7.385 -0.5225 -1.0875 -0.6101
 8380TIP3    H249336   1.525   2.707   7.460 -0.6022  0.0930  1.5135
 8381TIP3   OH249337   1.434   0.041   2.507  0.1181 -0.7118 -0.1209
 8381TIP3    H149338   1.356   0.041   2.564 -0.6556 -0.2381 -1.1528
 8381TIP3    H249339   1.462   0.132   2.505 -0.0495 -0.6702 -0.7477
 8382TIP3   OH249340   2.660   2.371   1.771 -0.2713  0.0022 -0.1980
 8382TIP3    H149341   2.750   2.405   1.776 -0.5903  0.8398 -0.0042
 8382TIP3    H249342   2.625   2.384   1.859 -1.2538  1.6120 -0.7930
 8383TIP3   OH249343   3.780   6.118   0.846 -0.2154 -0.0426 -0.2107
 8383TIP3    H149344   3.726   6.178   0.795  0.6312  0.4370 -0.5656
 8383TIP3    H249345   3.717   6.065   0.895 -0.9818  1.3871  0.4079
 8384TIP3   OH249346   0.868   0.538   8.732  0.7189  0.2257  0.2089
 8384TIP3    H149347   0.811   0.516   8.658  0.7423 -0.3683  0.3629
 8384TIP3    H249348   0.871   0.458   8.784 -0.6808  1.1225  1.7811
 8385TIP3   OH249349   6.251   0.854   1.863  0.3295  0.1681 -0.7011
 8385TIP3    H149350   6.240   0.759   1.854  0.7982 -0.1161  1.3587
 8385TIP3    H249351   6.300   0.879   1.784  1.4720 -1.5464 -0.5952
 8386TIP3   OH249352   5.596   3.915   8.694 -0.3004 -0.5693  0.1029
 8386TIP3    H149353   5.667   3.979   8.700 -0.5956 -0.2359  0.0429
 8386TIP3    H249354   5.518   3.963   8.719 -0.5645 -0.8365 -0.1936
 8387TIP3   OH249355   1.728   2.151   1.802  0.0510  0.5077 -0.4037
 8387TIP3    H149356   1.791   2.152   1.875  1.1111 -4.4740 -0.9013
 8387TIP3    H249357   1.780   2.178   1.726  0.5792 -0.0276 -0.2376
 8388TIP3   OH249358   2.682   5.542   1.522  0.1018 -0.4018  0.0939
 8388TIP3    H149359   2.684   5.602   1.447  1.2338 -0.0875  0.3556
 8388TIP3    H249360   2.721   5.461   1.488  1.0744 -0.0996  0.4552
 8389TIP3   OH249361   6.227   5.722   1.060 -0.1457  0.3821 -0.1992
 8389TIP3    H149362   6.237   5.800   1.115  0.6371  0.5556 -0.5722
 8389TIP3    H249363   6.133   5.716   1.044 -0.4314  0.1720  1.3784
 8390TIP3   OH249364   1.100   4.503   1.501 -0.0574 -0.2198  0.0848
 8390TIP3    H149365   1.045   4.577   1.475  0.2870  0.9402  2.3808
 8390TIP3    H249366   1.168   4.498   1.434 -0.2755  1.3629 -0.2848
 8391TIP3   OH249367   5.064   3.282   2.482  0.3262 -0.2818 -0.4106
 8391TIP3    H149368   5.081   3.350   2.548  0.7642  0.0649 -0.8728
 8391TIP3    H249369   4.969   3.270   2.485  0.3941 -0.6126  0.6126
 8392TIP3   OH249370   1.893   7.076   0.529  0.0340  0.2625 -0.4966
 8392TIP3    H149371   1.944   7.093   0.450 -3.0096 -0.5991 -2.8461
 8392TIP3    H249372   1.864   7.162   0.558  1.9283  0.6751  0.3439
 8393TIP3   OH249373   2.439   3.123   8.053 -0.0904  0.2075  0.3843
 8393TIP3    H149374   2.449   3.072   7.972 -0.4205  0.2087  0.3438
 8393TIP3    H249375   2.518   3.176   8.057 -0.8752  1.5311 -0.8699
 8394TIP3   OH249376   2.136   3.920   1.150  0.2618  0.0119  0.0523
 8394TIP3    H149377   2.211   3.950   1.201 -0.0622 -1.0666  1.2371
 8394TIP3    H249378   2.157   3.829   1.127  0.4999  0.5436 -2.0087
 8395TIP3   OH249379   6.969   0.176   9.752 -0.2416 -0.1748  0.5396
 8395TIP3    H149380   6.914   0.115   9.702 -0.9648  0.9779 -0.1261
 8395TIP3    H249381   6.998   0.240   9.688  2.2059 -0.9189  0.8139
 8396TIP3   OH249382   6.895   5.399   8.791 -0.1391 -0.3123  0.5107
 8396TIP3    H149383   6.858   5.485   8.810  0.4782 -0.4371  2.5697
 8396TIP3    H249384   6.830   5.356   8.736  0.0413  1.8250 -1.5421
 8397TIP3   OH249385   2.024   1.419   2.508  0.1384  0.0537  0.2136
 8397TIP3    H149386   2.034   1.413   2.603 -2.0409 -2.7373  0.4089
 8397TIP3    H249387   2.084   1.353   2.473  1.0651  1.1892 -0.3912
 8398TIP3   OH249388   5.348   0.454   0.822  0.3910 -0.2575  0.2694
 8398TIP3    H149389   5.302   0.384   0.869 -0.4594  1.0721  1.4963
 8398TIP3    H249390   5.348   0.425   0.730 -1.3684 -1.1209  0.4987
 8399TIP3   OH249391   6.544   0.140   9.826 -0.0604  0.3800  0.0343
 8399TIP3    H149392   6.622   0.142   9.880  0.8045 -1.1442 -1.0799
 8399TIP3    H249393   6.497   0.062   9.854  0.2437 -0.2541 -1.1703
 8400TIP3   OH249394   2.210   6.763   7.619 -0.1982  0.9565 -0.0878
 8400TIP3    H149395   2.120   6.776   7.649 -0.5865  1.6119 -1.4558
 8400TIP3    H249396   2.201   6.712   7.538  0.5176  2.5086 -1.1894
 8401TIP3   OH249397   1.234   6.678   7.556  0.1637  0.3230 -0.1540
 8401TIP3    H149398   1.195   6.649   7.473  1.4432 -0.7452 -0.4281
 8401TIP3    H249399   1.172   6.648   7.623 -0.5790  0.6450 -0.6810
 8402TIP3   OH249400   3.573   7.027   3.007 -0.1415 -0.3740  0.4167
 8402TIP3    H149401   3.640   7.075   2.958 -1.9811  0.3360 -1.5637
 8402TIP3    H249402   3.607   6.938   3.012  1.3940  0.1846  0.3243
 8403TIP3   OH249403   2.282   0.488   2.548  0.3016 -0.4612  0.3185
 8403TIP3    H149404   2.259   0.396   2.539  0.0088 -0.1724 -2.8888
 8403TIP3    H249405   2.344   0.505   2.477 -0.5693  2.0645  0.0545
 8404TIP3   OH249406   6.935   2.943   0.297 -0.1880  0.4949 -0.2759
 8404TIP3    H149407   6.904   2.853   0.291  0.5350  0.3266 -1.7800
 8404TIP3    H249408   6.910   2.971   0.385  0.0159 -1.3332  0.3998
 8405TIP3   OH249409   3.937   0.987   9.753  0.4391  0.2132  0.0422
 8405TIP3    H149410   3.868   1.041   9.715  0.4792 -0.0241 -0.3794
 8405TIP3    H249411   3.894   0.938   9.822 -0.0192 -0.5440 -0.7531
 8406TIP3   OH249412   0.421   7.310   7.949  0.1524  0.1449 -0.4361
 8406TIP3    H149413   0.356   7.319   8.019 -0.3179  0.8558 -0.9547
 8406TIP3    H249414   0.437   7.216   7.943 -2.4797 -0.3161 -1.7603
 8407TIP3   OH249415   2.541   4.475   1.962  0.1599  0.1036 -0.5895
 8407TIP3    H149416   2.562   4.438   2.048 -1.2975  1.5298  0.4402
 8407TIP3    H249417   2.624   4.472   1.914  0.8120 -1.4965  0.5586
 8408TIP3   OH249418   2.503   5.796   6.972  0.1330 -0.0844 -0.0924
 8408TIP3    H149419   2.470   5.775   6.884  0.3448 -4.3525  0.6575
 8408TIP3    H249420   2.598   5.783   6.966  0.3449  1.0945  0.4489
 8409TIP3   OH249421   0.857   5.566   1.532  0.3308 -0.0457 -0.3960
 8409TIP3    H149422   0.849   5.546   1.439  0.0420  0.2071 -0.4255
 8409TIP3    H249423   0.926   5.633   1.536 -0.1735  0.4870 -0.5030
 8410TIP3   OH249424   1.478   0.268   8.167  0.3716 -0.5794 -0.2737
 8410TIP3    H149425   1.573   0.261   8.170  0.5189 -0.2680 -2.3798
 8410TIP3    H249426   1.452   0.207   8.098 -0.7105  0.8393 -1.1935
 8411TIP3   OH249427   4.822   0.879   0.545 -0.0733 -0.1689  0.0085
 8411TIP3    H149428   4.799   0.899   0.636 -1.0976 -0.7193 -0.1114
 8411TIP3    H249429   4.878   0.801   0.550 -2.6944 -2.1896  0.0473
 8412TIP3   OH249430   2.754   3.720   8.076 -0.4334  0.0528 -0.1020
 8412TIP3    H149431   2.713   3.707   7.991  0.2438 -1.5186 -0.2076
 8412TIP3    H249432   2.779   3.632   8.105  0.3945  0.6853  1.1967
 8413TIP3   OH249433   1.508   1.937   7.963  0.1242 -0.8575 -0.1999
 8413TIP3    H149434   1.503   1.849   7.999 -0.1778 -1.5265 -1.7997
 8413TIP3    H249435   1.539   1.925   7.873 -1.1703  0.5391 -0.8855
 8414TIP3   OH249436   0.951   4.351   2.301 -1.1398  0.4552  0.1012
 8414TIP3    H149437   1.001   4.431   2.284 -0.7553 -0.1288 -1.7213
 8414TIP3    H249438   0.971   4.329   2.392  0.3774  1.3202  0.0136
 8415TIP3   OH249439   7.111   7.667   1.066 -0.2552 -0.0850 -0.3854
 8415TIP3    H149440   7.022   7.691   1.039 -0.4865  0.2988  0.6624
 8415TIP3    H249441   7.099   7.620   1.149  0.4380 -1.1291 -0.8559
 8416TIP3   OH249442   6.255   6.852   7.676  0.6619  0.0933  0.6028
 8416TIP3    H149443   6.230   6.928   7.623 -0.4084 -0.6541 -0.0025
 8416TIP3    H249444   6.316   6.803   7.621  0.6250  0.0323  0.6160
 8417TIP3   OH249445   2.177   6.019   9.201 -0.2711  0.3369  0.3413
 8417TIP3    H149446   2.199   5.985   9.288 -0.1951  1.2864  0.7060
 8417TIP3    H249447   2.179   5.943   9.144 -0.8828 -0.3950  1.2737
 8418TIP3   OH249448   0.362   1.744   0.950  0.1130 -0.1073 -0.6910
 8418TIP3    H149449   0.445   1.729   0.993  0.0762 -1.7937 -1.1322
 8418TIP3    H249450   0.296   1.709   1.010 -0.1342 -0.2861 -1.0594
 8419TIP3   OH249451   2.077   6.032   0.575 -0.1856 -0.3553  0.2084
 8419TIP3    H149452   2.090   5.997   0.487 -1.5910 -0.5482  0.0514
 8419TIP3    H249453   2.159   6.076   0.596  1.2638 -2.7607 -0.0396
 8420TIP3   OH249454   2.256   1.216   9.313  0.0203 -0.8183  0.0405
 8420TIP3    H149455   2.241   1.305   9.343 -0.0254 -1.5845  2.5313
 8420TIP3    H249456   2.299   1.226   9.228 -1.7188  1.5166 -0.6527
 8421TIP3   OH249457   7.381   3.794   1.311 -0.3590  0.3727 -0.2961
 8421TIP3    H149458   7.463   3.761   1.346  0.0473  2.9800  1.5449
 8421TIP3    H249459   7.313   3.740   1.353  0.3490 -0.7730 -0.6004
 8422TIP3   OH249460   5.445   4.362   0.195 -0.5584 -0.3999 -0.3350
 8422TIP3    H149461   5.442   4.304   0.119  3.4797 -0.7604 -0.4858
 8422TIP3    H249462   5.539   4.371   0.213 -1.0666  4.2916  1.1039
 8423TIP3   OH249463   2.193   4.220   8.072 -0.0179 -0.1499 -0.6801
 8423TIP3    H149464   2.190   4.316   8.070  0.5797 -0.1235 -2.3463
 8423TIP3    H249465   2.285   4.200   8.054  0.1371 -1.0504  0.9572
 8424TIP3   OH249466   7.571   1.637   8.226  0.0315  0.1090 -0.5506
 8424TIP3    H149467   7.482   1.602   8.226 -0.2337  0.6706  1.1601
 8424TIP3    H249468   7.627   1.559   8.229 -0.4903 -0.2549  0.5857
 8425TIP3   OH249469   7.662   7.333   0.796 -0.5006 -0.3742  0.3447
 8425TIP3    H149470   7.642   7.323   0.703 -0.5753 -0.4523  0.3688
 8425TIP3    H249471   7.734   7.397   0.799  0.4129 -1.3631  0.1420
 8426TIP3   OH249472   4.164   3.487   2.113  0.2095 -0.5739 -0.2175
 8426TIP3    H149473   4.121   3.430   2.176 -1.5702  0.4585 -0.4204
 8426TIP3    H249474   4.247   3.510   2.154  0.7980 -2.9049  0.0524
 8427TIP3   OH249475   4.283   2.845   8.801  0.4144 -0.0525  0.1464
 8427TIP3    H149476   4.358   2.890   8.760  0.1636 -0.3597 -0.6715
 8427TIP3    H249477   4.206   2.883   8.759  0.2110 -1.6651 -1.0491
 8428TIP3   OH249478   5.636   1.050   1.099  0.3690  0.1075 -0.0797
 8428TIP3    H149479   5.716   1.048   1.151  0.7326 -1.1400 -0.6437
 8428TIP3    H249480   5.647   0.980   1.034 -1.9659 -1.4288  1.0294
 8429TIP3   OH249481   3.964   0.039   0.218 -0.5334 -0.4439  0.0978
 8429TIP3    H149482   3.871   0.020   0.229 -0.3178 -0.9579  1.0657
 8429TIP3    H249483   3.993   0.070   0.304 -0.2890  1.8453 -0.7268
 8430TIP3   OH249484   6.914   3.213   8.541  0.0194  0.1583  0.6931
 8430TIP3    H149485   6.915   3.277   8.469  1.6543 -0.3231  0.2362
 8430TIP3    H249486   7.007   3.195   8.558 -0.3730 -0.8128  1.9768
 8431TIP3   OH249487   2.625   2.265   0.707  0.1222  0.5776  0.1425
 8431TIP3    H149488   2.534   2.290   0.719 -0.2664 -1.0750  0.9680
 8431TIP3    H249489   2.650   2.305   0.624 -1.6809  0.2317 -0.6186
 8432TIP3   OH249490   6.136   0.709   0.174 -0.1188 -0.4034  0.1842
 8432TIP3    H149491   6.076   0.710   0.249  0.8827  0.3957  0.9963
 8432TIP3    H249492   6.206   0.650   0.201 -0.3080 -1.0122 -0.6043
 8433TIP3   OH249493   3.811   2.968   0.564 -0.6410 -0.1827 -0.4091
 8433TIP3    H149494   3.755   2.906   0.611 -0.8231 -0.0918 -0.5068
 8433TIP3    H249495   3.817   3.044   0.622  0.8714 -0.8973  0.4422
 8434TIP3   OH249496   3.663   5.616   3.373 -0.1570  0.2651  0.3676
 8434TIP3    H149497   3.604   5.691   3.376 -1.5526 -0.7705  0.2982
 8434TIP3    H249498   3.611   5.546   3.332  0.5155 -1.2121  1.9052
 8435TIP3   OH249499   7.059   3.925   1.121  0.5157 -0.3462  0.0673
 8435TIP3    H149500   7.031   3.867   1.050 -2.6473 -0.5911  1.3479
 8435TIP3    H249501   7.073   4.010   1.078 -0.0475 -0.8068 -1.0600
 8436TIP3   OH249502   3.195   3.521   1.777 -0.0063  0.1081  0.1595
 8436TIP3    H149503   3.211   3.594   1.717  0.3985 -1.0151 -1.1614
 8436TIP3    H249504   3.107   3.491   1.755  0.5943 -1.0779 -0.7913
 8437TIP3   OH249505   1.078   4.888   2.226 -0.1398  0.4208  0.1425
 8437TIP3    H149506   0.984   4.877   2.237 -0.2206 -1.0149 -1.5898
 8437TIP3    H249507   1.109   4.912   2.313 -1.8333 -1.1598  1.2572
 8438TIP3   OH249508   5.317   1.506   9.131 -0.2266  0.5472 -0.6995
 8438TIP3    H149509   5.313   1.410   9.130 -2.7614  0.5558  0.4795
 8438TIP3    H249510   5.262   1.532   9.205 -0.0350  2.9547 -1.3014
 8439TIP3   OH249511   0.844   1.184   1.598 -0.3551 -0.0441  0.3758
 8439TIP3    H149512   0.772   1.171   1.660 -0.9089 -0.4051 -0.3231
 8439TIP3    H249513   0.912   1.124   1.627 -1.0493 -1.0540 -0.0133
 8440TIP3   OH249514   7.423   6.094   0.456  0.2437 -0.0682 -0.5337
 8440TIP3    H149515   7.358   6.136   0.512  0.9010 -0.7249  0.7838
 8440TIP3    H249516   7.373   6.062   0.381 -0.9462 -0.4048  0.3578
 8441TIP3   OH249517   2.534   2.724   7.341 -0.4854  0.6038 -0.7991
 8441TIP3    H149518   2.463   2.693   7.284  0.6542  0.9216 -2.4812
 8441TIP3    H249519   2.499   2.802   7.383 -2.0246 -0.7012  0.4569
 8442TIP3   OH249520   6.058   3.984   8.592  0.2166 -0.3313 -0.4390
 8442TIP3    H149521   6.140   3.936   8.602 -0.0152 -1.0134 -1.6464
 8442TIP3    H249522   5.992   3.917   8.575 -0.4514  0.2737 -0.3126
 8443TIP3   OH249523   0.418   1.994   9.197  0.4322  0.0285  0.0547
 8443TIP3    H149524   0.514   1.993   9.203  0.4502  1.9711  0.7590
 8443TIP3    H249525   0.399   2.058   9.129 -0.3754 -1.0399 -0.7524
 8444TIP3   OH249526   7.166   6.729   8.365 -0.4012  0.2050  0.0056
 8444TIP3    H149527   7.093   6.730   8.426  0.2669  0.2690  0.8202
 8444TIP3    H249528   7.136   6.781   8.291 -1.2275  0.1107  0.2662
 8445TIP3   OH249529   2.366   4.909   9.044  0.0962 -0.3386  0.0378
 8445TIP3    H149530   2.352   5.003   9.040 -0.3302 -0.1450  3.2986
 8445TIP3    H249531   2.294   4.876   9.098 -0.2911 -2.7166 -1.7403
 8446TIP3   OH249532   5.905   3.164   1.204  0.2431  0.1962 -0.0577
 8446TIP3    H149533   5.975   3.130   1.261  1.0806  0.8761 -0.6663
 8446TIP3    H249534   5.901   3.257   1.224  1.3164  0.6779 -1.8711
 8447TIP3   OH249535   7.679   7.217   1.173 -0.4242 -0.5111  0.1565
 8447TIP3    H149536   7.713   7.267   1.247  0.0896 -1.1331  0.3478
 8447TIP3    H249537   7.751   7.214   1.110 -1.1569  0.7955 -0.7795
 8448TIP3   OH249538   3.622   6.927   8.505  0.5179 -0.0314  0.1996
 8448TIP3    H149539   3.672   6.850   8.478  1.0157  0.5654 -0.6494
 8448TIP3    H249540   3.591   6.906   8.593  0.7741 -1.1327  0.0430
 8449TIP3   OH249541   0.299   0.306   7.693  0.2822 -0.2748 -0.3606
 8449TIP3    H149542   0.386   0.328   7.660  1.3815 -0.2705  2.2371
 8449TIP3    H249543   0.301   0.211   7.704  0.2032 -0.2162  0.2336
 8450TIP3   OH249544   0.866   6.411   0.689 -0.5337  0.1282  0.9315
 8450TIP3    H149545   0.884   6.321   0.715  0.7286 -0.0671 -0.5264
 8450TIP3    H249546   0.862   6.459   0.772 -0.6797 -1.1608  1.6940
 8451TIP3   OH249547   1.466   1.976   9.148 -0.3413 -0.2650  0.3568
 8451TIP3    H149548   1.468   1.953   9.241 -1.8700  0.9069  0.7250
 8451TIP3    H249549   1.525   1.914   9.107 -1.9852 -2.8900  1.6737
 8452TIP3   OH249550   4.918   2.959   9.769  0.0048  0.5172 -0.3826
 8452TIP3    H149551   4.999   2.988   9.811 -0.1069  3.5236 -1.9277
 8452TIP3    H249552   4.929   2.865   9.757  3.0102  0.7181  0.0061
 8453TIP3   OH249553   5.449   6.142   9.344  0.4469 -0.7854 -0.1488
 8453TIP3    H149554   5.527   6.089   9.360  1.7363  0.5089 -1.8135
 8453TIP3    H249555   5.483   6.225   9.311 -1.5621  0.5954  1.0510
 8454TIP3   OH249556   2.098   5.779   1.591 -0.6276  0.1563 -0.3175
 8454TIP3    H149557   2.012   5.777   1.550 -1.2468 -0.0491  0.9707
 8454TIP3    H249558   2.091   5.720   1.666 -0.2477  2.3049  1.4986
 8455TIP3   OH249559   7.152   5.725   1.428 -0.4329 -0.3185 -0.1399
 8455TIP3    H149560   7.107   5.649   1.391 -0.8752 -0.0827 -0.0871
 8455TIP3    H249561   7.146   5.713   1.522 -1.4593  0.3263 -0.1054
 8456TIP3   OH249562   2.410   7.266   1.310 -0.2439  0.6502  0.1746
 8456TIP3    H149563   2.426   7.312   1.393 -0.9620 -1.2730  1.4399
 8456TIP3    H249564   2.497   7.250   1.274  0.0800  1.4229  0.5889
 8457TIP3   OH249565   1.065   0.442   8.134 -0.3532 -0.6801  0.0728
 8457TIP3    H149566   1.097   0.523   8.093  2.6028 -1.7624  0.0303
 8457TIP3    H249567   1.010   0.472   8.206  0.6680  1.3988  0.0559
 8458TIP3   OH249568   0.534   6.573   8.159  0.0578 -0.0429  0.6056
 8458TIP3    H149569   0.584   6.601   8.235  0.1106 -1.0993  0.9764
 8458TIP3    H249570   0.448   6.550   8.193  0.2367 -1.0040  0.4419
 8459TIP3   OH249571   2.943   2.007   8.412 -0.0526 -0.6408  0.3987
 8459TIP3    H149572   2.908   2.023   8.500  0.8491  0.4592  0.5853
 8459TIP3    H249573   2.876   2.043   8.353 -0.9497 -1.9407  0.5872
 8460TIP3   OH249574   7.596   1.761   9.891  0.3570  0.2055  1.0285
 8460TIP3    H149575   7.606   1.845   9.936 -1.3876  2.2979 -2.0830
 8460TIP3    H249576   7.634   1.776   9.804  1.1454 -2.7216  0.7599
 8461TIP3   OH249577   3.558   5.500   7.280  1.1266 -0.4809  0.7098
 8461TIP3    H149578   3.596   5.588   7.277  2.4075 -1.0454 -1.2187
 8461TIP3    H249579   3.465   5.514   7.260  1.8218  0.2505 -2.6853
 8462TIP3   OH249580   1.667   3.661   0.770  0.2332  0.2507 -0.2433
 8462TIP3    H149581   1.720   3.741   0.778  1.0567 -0.4423  1.8585
 8462TIP3    H249582   1.727   3.590   0.794 -1.4634 -0.6043  1.7590
 8463TIP3   OH249583   4.792   6.880   0.049 -0.6782 -0.8101  0.1923
 8463TIP3    H149584   4.861   6.930   0.094 -1.2335  0.5832 -0.4442
 8463TIP3    H249585   4.711   6.910   0.089 -0.9349 -2.5375  1.0218
 8464TIP3   OH249586   5.056   3.746   9.313 -0.5487  0.2905 -0.7807
 8464TIP3    H149587   5.046   3.661   9.271  0.5464  0.5458 -1.5962
 8464TIP3    H249588   5.031   3.809   9.246  0.0041  0.6564 -0.6556
 8465TIP3   OH249589   2.125   4.829   9.207  0.9065 -0.0233 -0.0355
 8465TIP3    H149590   2.155   4.907   9.254  0.0952 -1.0912  2.4288
 8465TIP3    H249591   2.115   4.763   9.275 -3.3616 -0.8164 -1.1637
 8466TIP3   OH249592   6.381   5.509   9.234  0.2147  0.4282 -0.0236
 8466TIP3    H149593   6.422   5.582   9.280  1.2912  0.4664 -1.0041
 8466TIP3    H249594   6.366   5.443   9.302  0.7499  0.9107  0.5711
 8467TIP3   OH249595   7.362   3.351   9.683 -0.1941 -0.0150  0.0895
 8467TIP3    H149596   7.411   3.271   9.665 -1.9473 -0.8085 -1.5190
 8467TIP3    H249597   7.318   3.335   9.766  1.8106  0.5299  1.3172
 8468TIP3   OH249598   4.080   7.659   9.566  0.2251 -0.2457 -0.0562
 8468TIP3    H149599   4.081   7.745   9.609 -0.7497  0.1725 -0.8397
 8468TIP3    H249600   4.153   7.612   9.606  1.9612  1.5778 -0.8851
 8469TIP3   OH249601   7.350   0.402   7.552  0.2802 -0.3332  0.6954
 8469TIP3    H149602   7.334   0.495   7.565  1.2493 -0.0189 -0.2828
 8469TIP3    H249603   7.380   0.394   7.462  0.1332 -1.6096  0.7297
 8470TIP3   OH249604   7.037   3.741   7.592 -0.0261  0.0591  0.0526
 8470TIP3    H149605   7.086   3.793   7.528  0.4816 -0.1693  0.2477
 8470TIP3    H249606   6.972   3.801   7.627  1.3531  0.9532  1.1884
 8471TIP3   OH249607   7.438   4.754   0.474 -0.2688 -0.7506  0.3807
 8471TIP3    H149608   7.397   4.682   0.425  0.2348 -0.0307 -1.1643
 8471TIP3    H249609   7.502   4.711   0.531  0.7196 -1.4978 -1.2241
 8472TIP3   OH249610   1.269   5.467   2.823 -0.1224  0.5534  0.1735
 8472TIP3    H149611   1.198   5.404   2.836 -1.1510  1.5722 -0.3539
 8472TIP3    H249612   1.319   5.465   2.905 -0.7761 -0.1575  0.5629
 8473TIP3   OH249613   3.567   0.780   0.360  0.2282 -0.7298 -0.1494
 8473TIP3    H149614   3.653   0.742   0.379  0.3419  0.2516  1.4544
 8473TIP3    H249615   3.506   0.724   0.408  0.1949 -0.1689  0.4738
 8474TIP3   OH249616   4.317   4.089   0.353  0.8042 -0.4351 -1.0124
 8474TIP3    H149617   4.367   4.013   0.385  2.8872  0.6550 -1.5208
 8474TIP3    H249618   4.345   4.100   0.262  0.6511  1.0210 -0.9052
 8475TIP3   OH249619   3.298   0.862   8.557  0.2164  0.3291 -0.3375
 8475TIP3    H149620   3.340   0.795   8.502  1.5219  1.9551 -1.4342
 8475TIP3    H249621   3.361   0.934   8.558 -0.5573  1.0330  1.9183
 8476TIP3   OH249622   6.971   6.116   0.424  0.2357  0.0250 -0.1705
 8476TIP3    H149623   7.015   6.124   0.509  0.4809 -3.5069  0.2044
 8476TIP3    H249624   6.878   6.113   0.447  0.2688 -0.3020 -0.0636
 8477TIP3   OH249625   6.017   3.942   9.633  0.0919 -0.2803  0.0003
 8477TIP3    H149626   6.094   3.913   9.681  1.5350  0.8986 -1.4574
 8477TIP3    H249627   5.988   3.865   9.585  0.7590 -0.5845  0.0828
 8478TIP3   OH249628   6.904   5.265   9.077  0.0008  0.3776  0.1224
 8478TIP3    H149629   6.996   5.247   9.057 -0.2173 -0.8713  0.1355
 8478TIP3    H249630   6.867   5.298   8.995  0.3419  0.3782 -0.0298
 8479TIP3   OH249631   5.407   7.615   8.612 -0.1126 -0.1846  0.3007
 8479TIP3    H149632   5.452   7.697   8.591 -1.9409  0.4477 -1.5289
 8479TIP3    H249633   5.392   7.620   8.706 -0.2050  1.6430  0.2364
 8480TIP3   OH249634   6.617   2.300   0.413 -0.3071 -0.9111 -0.2666
 8480TIP3    H149635   6.698   2.294   0.362 -0.0687 -2.0152  0.2049
 8480TIP3    H249636   6.646   2.317   0.502 -0.7515  1.5842 -0.5354
 8481TIP3   OH249637   7.551   5.393   0.915  0.0484  0.5498 -1.0100
 8481TIP3    H149638   7.459   5.369   0.903 -0.4380  0.5733  1.8580
 8481TIP3    H249639   7.589   5.319   0.962  0.8670  1.4664 -0.1705
 8482TIP3   OH249640   6.530   6.388   8.379 -0.2085 -0.6211 -0.2640
 8482TIP3    H149641   6.568   6.473   8.400 -0.8354 -0.5758  0.7705
 8482TIP3    H249642   6.535   6.382   8.284  1.3262 -0.1457 -0.2374
 8483TIP3   OH249643   6.401   5.988   9.503 -0.1727  0.4731  0.0931
 8483TIP3    H149644   6.433   5.935   9.429 -0.1646  0.3095  0.2116
 8483TIP3    H249645   6.369   5.923   9.566  0.6044  0.5806  0.5972
 8484TIP3   OH249646   4.899   4.258   1.077  0.3914 -0.3615 -0.0400
 8484TIP3    H149647   4.989   4.288   1.090  0.2094  0.0741  0.2725
 8484TIP3    H249648   4.869   4.303   0.998 -0.0831  0.7960  0.7676
 8485TIP3   OH249649   6.709   5.715   1.271  0.4959 -0.5026 -0.4171
 8485TIP3    H149650   6.721   5.626   1.306 -1.4268 -0.7518 -0.2474
 8485TIP3    H249651   6.618   5.736   1.292 -0.0338  0.3082 -3.1148
 8486TIP3   OH249652   1.046   3.719   7.667 -0.0588  0.0558  0.2698
 8486TIP3    H149653   1.048   3.715   7.571 -0.0951 -0.0742  0.2740
 8486TIP3    H249654   0.954   3.715   7.690 -0.1172  1.2145  0.2701
 8487TIP3   OH249655   3.793   0.785   9.923  0.2866 -0.1586  0.3466
 8487TIP3    H149656   3.711   0.794   9.973  0.6503  2.3576  0.6063
 8487TIP3    H249657   3.854   0.745   9.985  0.0300  0.6199  1.1234
 8488TIP3   OH249658   1.561   7.633   0.615  0.5290  0.1809  0.4490
 8488TIP3    H149659   1.581   7.598   0.528 -0.3196  0.0770  0.2858
 8488TIP3    H249660   1.597   7.569   0.676  0.2955 -0.2341  0.1599
 8489TIP3   OH249661   3.948   0.826   0.917  0.2017  0.1090 -0.0061
 8489TIP3    H149662   4.036   0.791   0.902  0.3798  1.4034 -2.6477
 8489TIP3    H249663   3.897   0.750   0.945  1.7608 -1.0449 -0.1172
 8490TIP3   OH249664   5.329   1.275   7.270  0.1353  0.0488 -0.1940
 8490TIP3    H149665   5.403   1.336   7.275 -0.5877  0.8657  1.0312
 8490TIP3    H249666   5.253   1.329   7.288 -0.5650 -1.1684  0.5842
 8491TIP3   OH249667   4.515   2.760   8.393  0.9571 -0.1737 -0.0565
 8491TIP3    H149668   4.422   2.779   8.377  0.6893  0.1745  1.7342
 8491TIP3    H249669   4.531   2.678   8.346 -0.2597 -0.2547 -0.3607
 8492TIP3   OH249670   1.000   1.840   9.447  0.0851 -0.0647 -0.1849
 8492TIP3    H149671   0.966   1.805   9.365  1.3967  1.6680 -1.5647
 8492TIP3    H249672   0.927   1.834   9.509 -1.7564  0.7866 -2.1594
 8493TIP3   OH249673   3.241   4.725   1.169 -0.9228 -0.2091  0.6853
 8493TIP3    H149674   3.286   4.662   1.112  0.9217  0.6722  1.0882
 8493TIP3    H249675   3.245   4.686   1.256 -1.0666 -0.1779  0.7069
 8494TIP3   OH249676   3.475   3.707   0.123  0.4852  0.4430 -0.2599
 8494TIP3    H149677   3.404   3.651   0.154  0.4072  0.4226 -0.4731
 8494TIP3    H249678   3.522   3.652   0.060 -0.8639  1.3291 -2.1056
 8495TIP3   OH249679   0.407   4.138   9.159  0.3356  0.0998 -0.3618
 8495TIP3    H149680   0.472   4.208   9.155 -0.2588  0.6922  0.1798
 8495TIP3    H249681   0.451   4.063   9.119  1.1053  0.6783 -0.6368
 8496TIP3   OH249682   6.881   0.674   0.273 -0.0595  0.2798  0.3561
 8496TIP3    H149683   6.907   0.586   0.300 -2.3195 -1.5323 -2.7966
 8496TIP3    H249684   6.958   0.708   0.227  0.0223 -1.1621 -0.6548
 8497TIP3   OH249685   3.014   1.400   0.953  0.4962 -0.2647 -0.0522
 8497TIP3    H149686   2.933   1.398   1.004 -0.1399 -2.4263 -1.0063
 8497TIP3    H249687   2.984   1.412   0.862  1.3984  0.7606 -0.2268
 8498TIP3   OH249688   6.310   6.011   1.967  0.1012  0.4007 -0.1266
 8498TIP3    H149689   6.388   5.963   1.939  0.6594  1.3911 -0.3020
 8498TIP3    H249690   6.322   6.099   1.931 -0.2225  1.0723  1.3486
 8499TIP3   OH249691   0.198   4.446   8.314  0.1355  0.2568 -0.9260
 8499TIP3    H149692   0.189   4.412   8.225  0.3414  1.3548 -1.3830
 8499TIP3    H249693   0.128   4.511   8.322 -0.5989 -0.6280  0.1180
 8500TIP3   OH249694   4.502   1.877   1.044  0.1169 -0.1130 -0.8816
 8500TIP3    H149695   4.463   1.795   1.013 -2.6184  0.4699  0.6808
 8500TIP3    H249696   4.516   1.928   0.964 -0.1619 -1.2832 -1.7037
 8501TIP3   OH249697   6.812   2.310   9.200  0.0900  0.3416 -0.0708
 8501TIP3    H149698   6.896   2.288   9.240  0.9345 -0.3476 -2.0381
 8501TIP3    H249699   6.757   2.233   9.216  0.8439 -0.4811 -1.2478
 8502TIP3   OH249700   3.286   3.716   0.561  0.2053 -0.5114  0.3457
 8502TIP3    H149701   3.250   3.764   0.486  0.8086 -2.4249 -1.2390
 8502TIP3    H249702   3.256   3.766   0.637 -0.3945  1.5384 -1.1312
 8503TIP3   OH249703   2.015   3.073   8.519 -0.4166 -0.4588  0.5003
 8503TIP3    H149704   1.980   3.058   8.431 -2.5749 -0.5783  1.3138
 8503TIP3    H249705   2.005   3.167   8.534 -0.4500 -0.5040  0.7701
 8504TIP3   OH249706   5.380   2.529   8.896 -0.5819  0.7379 -0.1079
 8504TIP3    H149707   5.351   2.471   8.967  0.1245  0.5038  0.0027
 8504TIP3    H249708   5.343   2.614   8.918 -1.7470  0.3019 -0.3393
 8505TIP3   OH249709   3.229   1.267   1.054  0.8149  0.5282 -0.0056
 8505TIP3    H149710   3.319   1.282   1.023  0.8837  0.3469  0.1078
 8505TIP3    H249711   3.174   1.309   0.988  1.0057  1.1979  0.2540
 8506TIP3   OH249712   0.671   2.193   0.386 -0.3551 -0.0228  0.2788
 8506TIP3    H149713   0.577   2.186   0.404 -0.5536 -2.1782 -1.2242
 8506TIP3    H249714   0.675   2.218   0.293  0.6344  3.4487  1.0898
 8507TIP3   OH249715   4.390   0.462   2.095 -0.5912 -1.1583 -0.6927
 8507TIP3    H149716   4.483   0.448   2.106 -0.4531 -2.2722 -2.7388
 8507TIP3    H249717   4.348   0.395   2.149 -0.2466 -0.5697  0.3334
 8508TIP3   OH249718   3.270   3.316   9.495 -0.0329  0.0390  0.1163
 8508TIP3    H149719   3.215   3.248   9.456  2.0576 -0.7406 -1.6884
 8508TIP3    H249720   3.345   3.269   9.531  0.9737  1.2900 -0.2719
 8509TIP3   OH249721   0.234   3.474   2.511 -0.2262  0.5897 -0.0701
 8509TIP3    H149722   0.308   3.414   2.502 -1.0120 -0.5895  1.0038
 8509TIP3    H249723   0.164   3.433   2.459 -0.2507  1.5244 -0.8023
 8510TIP3   OH249724   0.506   5.926   0.686  0.0157 -0.1115 -0.0272
 8510TIP3    H149725   0.481   5.869   0.760 -0.3858 -0.0048 -0.0810
 8510TIP3    H249726   0.600   5.941   0.699  0.1275 -0.7899 -0.0119
 8511TIP3   OH249727   1.913   6.797   8.323  0.8488  0.3881 -0.2562
 8511TIP3    H149728   1.969   6.867   8.288  2.3707 -0.7756 -0.2622
 8511TIP3    H249729   1.928   6.800   8.417  0.7630  0.2156 -0.2373
 8512TIP3   OH249730   3.428   6.394   8.964  0.1111 -0.6314  0.2358
 8512TIP3    H149731   3.488   6.454   8.920 -0.9637  0.5750  0.3585
 8512TIP3    H249732   3.483   6.320   8.990  1.6058  0.5522  0.5923
 8513TIP3   OH249733   1.980   3.845   1.453 -0.4806 -0.3624 -0.2588
 8513TIP3    H149734   2.001   3.857   1.546 -0.5995  0.3479 -0.3175
 8513TIP3    H249735   2.059   3.805   1.416 -0.5768 -1.0220  0.2193
 8514TIP3   OH249736   4.828   7.415   0.085 -0.1618  0.1595  0.3361
 8514TIP3    H149737   4.739   7.385   0.106 -0.5000  1.1104  0.3135
 8514TIP3    H249738   4.845   7.486   0.147  0.9934 -0.6897  1.0210
 8515TIP3   OH249739   3.402   0.833   9.212  0.4240 -0.3818 -0.5752
 8515TIP3    H149740   3.400   0.772   9.285 -0.6525  0.3850  0.0650
 8515TIP3    H249741   3.394   0.920   9.252  1.4481  0.1656 -1.4978
 8516TIP3   OH249742   2.890   0.657   2.327  0.3146  0.7224 -0.9424
 8516TIP3    H149743   2.969   0.668   2.380  0.3527 -0.7214 -0.6524
 8516TIP3    H249744   2.916   0.684   2.239  0.6534  1.8026 -0.5314
 8517TIP3   OH249745   3.946   6.192   2.941  0.3501  0.0973 -0.3369
 8517TIP3    H149746   4.035   6.158   2.945 -0.0552 -1.1004 -1.0908
 8517TIP3    H249747   3.927   6.197   2.848  0.5473  2.8953 -0.2989
 8518TIP3   OH249748   0.313   5.216   0.002  0.6407  0.2202 -0.1143
 8518TIP3    H149749   0.259   5.167  -0.060 -0.4761  1.6769 -0.3597
 8518TIP3    H249750   0.253   5.240   0.073  1.7689 -0.9283  1.2939
 8519TIP3   OH249751   6.413   5.453   2.432 -0.2574  0.4540  0.7863
 8519TIP3    H149752   6.488   5.395   2.422 -1.0978 -0.7928  1.4863
 8519TIP3    H249753   6.424   5.492   2.518  0.2786  1.3327  0.3385
 8520TIP3   OH249754   3.154   5.762   1.540 -0.4049  0.8803 -0.3651
 8520TIP3    H149755   3.169   5.677   1.582  0.6476  1.8456  1.3229
 8520TIP3    H249756   3.131   5.820   1.612  0.3456  2.3603 -1.2795
 8521TIP3   OH249757   6.165   5.517   2.322  0.2437 -0.1084  0.3860
 8521TIP3    H149758   6.233   5.484   2.381  2.4397  0.2318 -1.8125
 8521TIP3    H249759   6.146   5.444   2.263  0.3251  0.4959 -0.4037
 8522TIP3   OH249760   6.398   1.144   9.482  0.0749  0.0897  0.1222
 8522TIP3    H149761   6.431   1.085   9.414 -1.7626  1.5818 -2.2430
 8522TIP3    H249762   6.310   1.111   9.501  0.3827 -0.0091  1.4855
 8523TIP3   OH249763   0.727   0.002   9.885 -0.7437 -0.2076  0.1663
 8523TIP3    H149764   0.654  -0.006   9.946 -1.7989 -1.3187 -1.1764
 8523TIP3    H249765   0.790  -0.065   9.913 -1.3231 -0.8647 -0.0633
 8524TIP3   OH249766   0.832   5.990   8.160  0.0789  0.1164 -0.0314
 8524TIP3    H149767   0.814   6.048   8.086 -1.0244  0.6120  0.6083
 8524TIP3    H249768   0.748   5.977   8.202  0.6605 -0.3245  1.0366
 8525TIP3   OH249769   1.495   6.297   0.021 -0.0730 -0.1644  0.1357
 8525TIP3    H149770   1.491   6.208  -0.013  0.7892  0.6807 -2.3545
 8525TIP3    H249771   1.578   6.331  -0.011 -0.9517  1.9444 -0.0375
 8526TIP3   OH249772   6.737   4.599   1.864 -0.1652 -0.4728  0.6167
 8526TIP3    H149773   6.764   4.516   1.904  1.5004 -0.3766 -0.2240
 8526TIP3    H249774   6.690   4.573   1.785 -1.0220 -0.6127  1.1534
 8527TIP3   OH249775   5.977   6.566   0.929  0.3209  0.1922  0.2295
 8527TIP3    H149776   6.028   6.634   0.884  0.6794  0.7340  1.4005
 8527TIP3    H249777   5.916   6.615   0.984  0.4169 -0.4351  0.9043
 8528TIP3   OH249778   5.416   6.621   9.346 -0.0789  0.1043 -0.1764
 8528TIP3    H149779   5.486   6.665   9.299 -0.1364  0.8760  0.4311
 8528TIP3    H249780   5.428   6.649   9.437 -1.4136  0.6010 -0.1288
 8529TIP3   OH249781   6.955   4.032   0.081 -0.2942  0.2113  0.1971
 8529TIP3    H149782   7.012   4.097   0.038  0.0625  0.7006  1.3644
 8529TIP3    H249783   6.945   3.963   0.016  0.7761  0.6149 -0.4310
 8530TIP3   OH249784   3.123   2.902   0.981 -0.8211  0.2486  0.0016
 8530TIP3    H149785   3.181   2.942   0.917 -0.4998  0.7673  0.6104
 8530TIP3    H249786   3.129   2.958   1.059 -1.0182 -0.5037  0.5759
 8531TIP3   OH249787   1.616   0.266   7.642 -0.3023 -0.2552 -0.2129
 8531TIP3    H149788   1.564   0.250   7.564 -1.2073  0.6364  0.1882
 8531TIP3    H249789   1.636   0.179   7.675  2.0201 -0.7649 -2.6253
 8532TIP3   OH249790   6.466   0.905   1.680  0.5536 -0.6988  0.7391
 8532TIP3    H149791   6.438   0.872   1.595 -2.2289  1.8779  0.4890
 8532TIP3    H249792   6.481   0.827   1.732 -2.0087 -2.4139 -0.8621
 8533TIP3   OH249793   1.642   7.325   8.420  0.5288 -0.2602 -0.4259
 8533TIP3    H149794   1.600   7.404   8.385 -0.8822 -0.6040  0.4006
 8533TIP3    H249795   1.699   7.358   8.490 -0.5185  0.0153  0.3314
 8534TIP3   OH249796   1.365   2.397   2.053  0.3722 -0.1773 -0.2635
 8534TIP3    H149797   1.442   2.436   2.096 -0.3154  1.3252 -0.3408
 8534TIP3    H249798   1.399   2.361   1.971  0.9504  0.7138 -0.4268
 8535TIP3   OH249799   5.452   7.076   0.565 -0.5112 -0.4165 -0.2285
 8535TIP3    H149800   5.541   7.077   0.531 -1.2540  0.1082 -2.3185
 8535TIP3    H249801   5.462   7.064   0.659  1.7458 -0.4855 -0.4302
 8536TIP3   OH249802   2.178   7.479   1.791  0.1066  0.4462  0.1931
 8536TIP3    H149803   2.245   7.537   1.829  0.4860  1.2812 -1.6452
 8536TIP3    H249804   2.131   7.444   1.867 -0.0846  3.0897  1.4023
 8537TIP3   OH249805   0.840   5.890   8.816  0.0723 -0.0275  0.7976
 8537TIP3    H149806   0.778   5.936   8.873 -0.5727 -0.0533  0.1436
 8537TIP3    H249807   0.852   5.804   8.857  1.1808  0.6511  1.9546
 8538TIP3   OH249808   1.273   6.518   2.356 -0.6522  0.5517  0.5960
 8538TIP3    H149809   1.311   6.431   2.359 -1.0037  0.3591 -0.2028
 8538TIP3    H249810   1.316   6.566   2.427  1.2445  0.4121 -0.3881
 8539TIP3   OH249811   6.129   2.690   9.552  0.0694  0.1579  0.1639
 8539TIP3    H149812   6.148   2.715   9.462 -1.0752 -1.1340 -0.4792
 8539TIP3    H249813   6.074   2.761   9.585 -0.3368  0.1641 -0.5022
 8540TIP3   OH249814   2.626   1.036   1.072  0.2734 -0.4510 -0.3721
 8540TIP3    H149815   2.614   1.069   1.161  0.5076 -2.3393  0.4048
 8540TIP3    H249816   2.540   1.001   1.047  0.5287 -1.0875 -0.3784
 8541TIP3   OH249817   6.520   1.767   2.077  0.1016  0.3041  0.0736
 8541TIP3    H149818   6.483   1.745   2.163  1.2180  1.8390  0.9955
 8541TIP3    H249819   6.488   1.856   2.060  3.0734  1.6378  0.8344
 8542TIP3   OH249820   6.281   1.262   0.865 -0.0412 -0.6620  0.4151
 8542TIP3    H149821   6.284   1.327   0.935 -0.2475 -0.3131  0.1049
 8542TIP3    H249822   6.206   1.206   0.888 -0.9237  0.2276 -0.1854
 8543TIP3   OH249823   4.051   1.064   0.835 -0.0068 -0.1412  0.0317
 8543TIP3    H149824   4.011   0.978   0.825 -0.0489 -0.1187  0.0082
 8543TIP3    H249825   4.010   1.100   0.913  1.1380 -0.7807  0.9757
 8544TIP3   OH249826   4.266   3.791   0.592 -0.2630  0.4558 -0.5133
 8544TIP3    H149827   4.182   3.797   0.637  0.4449  2.1249  0.7156
 8544TIP3    H249828   4.296   3.702   0.606 -2.2214 -0.4605 -1.7827
 8545TIP3   OH249829   6.059   1.678   7.988 -0.1815  0.1419  0.1887
 8545TIP3    H149830   6.023   1.612   7.929 -1.3176  0.6693  0.2781
 8545TIP3    H249831   6.084   1.751   7.932 -0.9045  0.4878  0.3068
 8546TIP3   OH249832   4.738   1.002   1.802  0.5923 -0.2551  0.3486
 8546TIP3    H149833   4.796   1.050   1.861  0.5086  0.4856 -0.1495
 8546TIP3    H249834   4.702   0.932   1.855  1.3900 -0.2897  0.8626
 8547TIP3   OH249835   0.825   2.776   8.834  0.4401 -0.0673 -0.6773
 8547TIP3    H149836   0.909   2.775   8.788 -0.5333 -0.4859 -2.5331
 8547TIP3    H249837   0.763   2.813   8.771 -0.4242  2.1907  1.3473
 8548TIP3   OH249838   6.645   0.454   0.446 -0.2555 -0.1277  0.0742
 8548TIP3    H149839   6.686   0.420   0.366  0.6251 -1.7422  1.1645
 8548TIP3    H249840   6.644   0.380   0.506  0.2265  1.3583  2.0038
 8549TIP3   OH249841   0.489   5.766   1.075 -0.3323  0.2534 -0.2625
 8549TIP3    H149842   0.404   5.721   1.073  1.0136 -2.5543  0.2005
 8549TIP3    H249843   0.532   5.739   0.995  0.7312  0.3224  0.2766
 8550TIP3   OH249844   1.155   3.944   7.764 -0.3032 -0.0604 -0.7373
 8550TIP3    H149845   1.127   3.917   7.852  0.1733 -1.1747 -0.9085
 8550TIP3    H249846   1.154   3.863   7.713  1.1640  0.2311 -1.2880
 8551TIP3   OH249847   6.888   3.661   9.108 -0.3547  0.2534 -0.1910
 8551TIP3    H149848   6.880   3.568   9.131  0.2671  0.0533 -0.7377
 8551TIP3    H249849   6.967   3.665   9.054 -1.3303  0.7976 -1.6652
 8552TIP3   OH249850   4.160   4.937   0.664 -0.0342  0.5940  0.3873
 8552TIP3    H149851   4.255   4.924   0.659 -0.1903 -0.3786 -0.3561
 8552TIP3    H249852   4.130   4.928   0.574 -1.1800 -2.1252  0.9505
 8553TIP3   OH249853   1.090   4.907   0.384  0.5901  0.0200 -0.1018
 8553TIP3    H149854   1.050   4.846   0.445  1.1814  0.7134  1.0126
 8553TIP3    H249855   1.117   4.853   0.310 -3.2142 -0.3947 -1.4392
 8554TIP3   OH249856   4.396   0.649   8.607  0.2196  0.2626  0.5722
 8554TIP3    H149857   4.345   0.589   8.552  1.3702  0.2523 -0.5378
 8554TIP3    H249858   4.485   0.613   8.605  1.1752  2.4539 -0.8959
 8555TIP3   OH249859   3.356   4.962   2.012  0.4284 -0.7175  0.2295
 8555TIP3    H149860   3.352   5.022   2.086 -0.2095  0.0791 -0.4292
 8555TIP3    H249861   3.439   4.983   1.969 -0.4804  0.8143 -0.8827
 8556TIP3   OH249862   7.011   0.048   7.951  0.0521 -0.2224  0.4091
 8556TIP3    H149863   7.044   0.036   7.862  0.9484 -1.0318  0.8265
 8556TIP3    H249864   6.989   0.141   7.957 -1.5231 -0.4517 -1.1387
 8557TIP3   OH249865   2.439   4.614   9.233  0.4389 -0.3366  0.3678
 8557TIP3    H149866   2.428   4.608   9.138 -1.6003 -0.7098  0.5761
 8557TIP3    H249867   2.526   4.653   9.245  0.9616 -0.7734 -1.6247
 8558TIP3   OH249868   2.596   2.966   9.956  0.1091  0.0828 -0.1343
 8558TIP3    H149869   2.582   2.929   9.870 -0.1780  0.9085 -0.4549
 8558TIP3    H249870   2.677   3.017   9.948 -0.8713  1.6702 -0.4553
 8559TIP3   OH249871   4.217   7.319   8.196  0.1837  0.6489  0.2278
 8559TIP3    H149872   4.246   7.252   8.257  3.3352  0.2133 -1.5407
 8559TIP3    H249873   4.280   7.390   8.206  0.8533  0.5515 -2.4308
 8560TIP3   OH249874   3.443   3.983   1.731  0.1455 -0.1154  0.0901
 8560TIP3    H149875   3.485   4.058   1.774 -1.3378  0.0724  1.3312
 8560TIP3    H249876   3.487   3.907   1.767  1.8180  0.1311 -1.3476
 8561TIP3   OH249877   1.067   3.755   0.333 -0.2552 -0.0894  0.0175
 8561TIP3    H149878   1.158   3.728   0.321  0.2382  1.4812  0.0119
 8561TIP3    H249879   1.056   3.759   0.428 -0.3079 -0.2557  0.0181
 8562TIP3   OH249880   1.119   3.633   8.196  0.3359 -0.1986  0.4948
 8562TIP3    H149881   1.029   3.599   8.196 -0.0993  0.5220 -2.7812
 8562TIP3    H249882   1.118   3.701   8.128  3.5132 -0.5702 -0.0683
 8563TIP3   OH249883   0.873   6.381   1.689  0.0883 -0.1031 -0.0709
 8563TIP3    H149884   0.811   6.397   1.760  0.5664  0.1241  0.3009
 8563TIP3    H249885   0.912   6.296   1.709  0.4546  0.1046  0.1191
 8564TIP3   OH249886   0.240   4.795   1.546  0.7748  0.2720  0.3027
 8564TIP3    H149887   0.212   4.842   1.624 -1.3293 -0.0077 -0.2441
 8564TIP3    H249888   0.272   4.711   1.579 -0.4421  0.0126  0.8689
 8565TIP3   OH249889   5.074   3.769   9.627 -0.3866 -0.6898 -0.0130
 8565TIP3    H149890   5.044   3.855   9.655 -0.1919 -0.5806 -0.1355
 8565TIP3    H249891   5.064   3.770   9.532  1.6643  0.0087 -0.2653
 8566TIP3   OH249892   6.883   3.437   1.283  0.4246 -0.1436  0.0518
 8566TIP3    H149893   6.886   3.373   1.354 -0.8924 -0.7459 -0.4058
 8566TIP3    H249894   6.881   3.385   1.203  2.9448  0.5385 -0.5396
 8567TIP3   OH249895   6.681   2.501   9.432 -0.0664 -0.4962  0.0947
 8567TIP3    H149896   6.601   2.545   9.404 -0.0674 -0.6896 -0.2077
 8567TIP3    H249897   6.751   2.547   9.386 -0.0919 -0.9995 -0.4603
 8568TIP3   OH249898   5.911   1.434   9.112  0.0920 -0.5770 -0.2438
 8568TIP3    H149899   6.000   1.431   9.078 -0.6781 -1.8754 -2.3469
 8568TIP3    H249900   5.874   1.515   9.076  0.5752  0.3341  1.2076
 8569TIP3   OH249901   1.719   2.787   8.364  0.4528 -0.3200  0.4867
 8569TIP3    H149902   1.640   2.777   8.417  0.0030 -0.0338 -0.1189
 8569TIP3    H249903   1.730   2.882   8.356  1.2060 -0.3475  1.0681
 8570TIP3   OH249904   3.298   6.407   0.874  0.3736 -0.0833  0.0147
 8570TIP3    H149905   3.313   6.489   0.921  4.8832 -1.1192  0.9052
 8570TIP3    H249906   3.283   6.433   0.783 -0.8296  1.7449  0.6995
 8571TIP3   OH249907   0.933   0.024   9.159  0.2082  0.4581 -0.1515
 8571TIP3    H149908   0.930  -0.013   9.247  0.9731 -0.5067 -0.5103
 8571TIP3    H249909   0.886   0.107   9.166  0.2881  0.4148  1.1708
 8572TIP3   OH249910   2.374   2.706   2.384  0.1348 -0.4284 -0.1481
 8572TIP3    H149911   2.415   2.755   2.455  2.9670 -0.9660 -1.2797
 8572TIP3    H249912   2.281   2.704   2.407  0.7156  0.6663  2.7535
 8573TIP3   OH249913   2.880   1.978   0.692 -0.6668  0.0927  0.1210
 8573TIP3    H149914   2.933   1.920   0.637 -1.8303 -1.5954  0.7070
 8573TIP3    H249915   2.944   2.027   0.743  0.3762  0.1569 -1.1863
 8574TIP3   OH249916   1.853   6.691   0.575 -0.1642 -0.3148 -0.0641
 8574TIP3    H149917   1.761   6.715   0.583 -0.9349 -3.2083  1.1437
 8574TIP3    H249918   1.863   6.660   0.485 -0.0302  1.1319 -0.5627
 8575TIP3   OH249919   5.690   2.428   8.730 -0.2656  0.1044 -0.3076
 8575TIP3    H149920   5.597   2.437   8.711 -0.5260 -0.1816  0.7332
 8575TIP3    H249921   5.733   2.492   8.674 -1.0104 -0.3186 -1.3870
 8576TIP3   OH249922   5.796   6.180   7.703  0.6676 -0.3620 -0.2748
 8576TIP3    H149923   5.778   6.271   7.725  0.0657  0.3845 -3.4207
 8576TIP3    H249924   5.711   6.137   7.708  0.7138 -0.4437 -0.1772
 8577TIP3   OH249925   7.603   4.985   7.312  0.1862 -0.5715  0.3662
 8577TIP3    H149926   7.659   4.908   7.318  0.9379  0.0667  2.0816
 8577TIP3    H249927   7.539   4.974   7.383 -1.0547 -0.6368 -0.7208
 8578TIP3   OH249928   4.467   5.327   8.601 -0.0959 -0.4950 -0.2511
 8578TIP3    H149929   4.550   5.370   8.620  0.2244 -0.2737 -2.0542
 8578TIP3    H249930   4.414   5.395   8.560 -1.0166 -0.7699  0.4354
 8579TIP3   OH249931   0.826   3.709   8.052 -0.2014 -0.0047 -0.1548
 8579TIP3    H149932   0.824   3.657   7.971  1.5697  0.0261 -0.2540
 8579TIP3    H249933   0.782   3.653   8.117 -1.5442 -0.0728 -1.0818
 8580TIP3   OH249934   1.218   7.056   9.276 -0.2567  0.6059 -0.1837
 8580TIP3    H149935   1.198   6.969   9.312  1.4264  0.3730  0.3029
 8580TIP3    H249936   1.272   7.097   9.344  0.0800  1.5081 -0.9853
 8581TIP3   OH249937   4.933   6.331   7.357 -0.1451  0.2875 -0.0199
 8581TIP3    H149938   4.992   6.291   7.293  0.3101 -0.0657  0.6157
 8581TIP3    H249939   4.848   6.290   7.341  0.1809 -0.4884  0.2214
 8582TIP3   OH249940   7.408   7.271   0.197  0.2510 -0.3361 -0.2180
 8582TIP3    H149941   7.417   7.183   0.234  1.1129  0.4391  1.5654
 8582TIP3    H249942   7.320   7.272   0.160  0.0184 -1.7836  0.2104
 8583TIP3   OH249943   2.938   3.531   8.719 -0.0158  0.0520  0.1671
 8583TIP3    H149944   3.017   3.541   8.772 -0.6576  0.6805  1.0316
 8583TIP3    H249945   2.922   3.436   8.716  0.3029 -0.0189  0.6794
 8584TIP3   OH249946   0.220   0.774   9.266  0.4376  0.0743  0.2065
 8584TIP3    H149947   0.252   0.794   9.354  0.1182  1.5606  0.0147
 8584TIP3    H249948   0.291   0.725   9.225  0.7568 -0.2673  1.1465
 8585TIP3   OH249949   3.153   0.792   8.234 -0.4336  0.4720 -0.1484
 8585TIP3    H149950   3.149   0.846   8.312  0.7152  2.5512 -1.4222
 8585TIP3    H249951   3.237   0.747   8.240 -0.7005  0.0134  0.1792
 8586TIP3   OH249952   0.133   2.105   8.336 -0.2990  0.4649 -0.0432
 8586TIP3    H149953   0.124   2.058   8.253 -0.3443  0.0901  0.1736
 8586TIP3    H249954   0.178   2.043   8.394 -0.8723  0.4727  0.4177
 8587TIP3   OH249955   4.460   1.150   8.239  0.4544  0.7752 -0.4073
 8587TIP3    H149956   4.436   1.070   8.285  1.9924 -0.7508 -2.1085
 8587TIP3    H249957   4.530   1.123   8.180  0.4842  3.2361 -1.5886
 8588TIP3   OH249958   6.765   2.065   1.355  0.2984  0.0604  0.0238
 8588TIP3    H149959   6.773   2.138   1.415  1.0597 -0.1183  0.1559
 8588TIP3    H249960   6.798   1.989   1.404  0.4479 -0.1818 -0.4331
 8589TIP3   OH249961   4.142   5.555   0.444 -0.1760 -0.2388 -0.2238
 8589TIP3    H149962   4.153   5.643   0.479 -3.0403 -0.1544  0.6723
 8589TIP3    H249963   4.231   5.527   0.423  0.9305  2.4201  0.4822
 8590TIP3   OH249964   6.903   5.372   9.677  0.7727  0.2726  0.0481
 8590TIP3    H149965   6.824   5.322   9.660  1.2604 -0.5913  0.2786
 8590TIP3    H249966   6.872   5.459   9.703 -0.0830  0.0146 -0.0959
 8591TIP3   OH249967   7.534   2.597   1.811  0.0643 -0.1059  0.5158
 8591TIP3    H149968   7.447   2.562   1.828 -0.2102  0.5175  0.4351
 8591TIP3    H249969   7.518   2.682   1.770  0.7114 -0.1015  0.2593
 8592TIP3   OH249970   3.599   3.859   1.954 -0.3239  0.1410 -0.4189
 8592TIP3    H149971   3.593   3.763   1.954 -2.8045  0.2215  0.2797
 8592TIP3    H249972   3.615   3.882   2.045  0.4047  0.4023 -0.6079
 8593TIP3   OH249973   3.586   0.954   8.491  0.1614  0.2605  0.4925
 8593TIP3    H149974   3.665   1.008   8.491  0.8055 -0.6499 -0.1380
 8593TIP3    H249975   3.618   0.864   8.494 -0.8371 -0.1398 -0.2549
 8594TIP3   OH249976   0.884   3.243   1.964 -0.3268  0.1645 -0.2382
 8594TIP3    H149977   0.918   3.246   1.874 -0.7054  1.2278 -0.3635
 8594TIP3    H249978   0.829   3.165   1.966  0.8744 -0.7186 -0.4800
 8595TIP3   OH249979   6.170   1.972   0.376  0.3545 -0.3740 -0.6368
 8595TIP3    H149980   6.189   2.029   0.301  2.0282  0.5104  0.4022
 8595TIP3    H249981   6.116   2.026   0.434  2.9704  0.7780  0.9417
 8596TIP3   OH249982   2.855   4.167   7.738  0.1304 -0.2143 -0.1475
 8596TIP3    H149983   2.811   4.191   7.820 -1.5739 -2.4057 -0.3213
 8596TIP3    H249984   2.927   4.109   7.765  0.0550 -0.3088 -0.1486
 8597TIP3   OH249985   0.124   7.024   7.380  0.4333  0.3719 -0.2271
 8597TIP3    H149986   0.055   7.008   7.315 -0.7029 -0.0678  1.0266
 8597TIP3    H249987   0.183   6.949   7.372 -1.1528 -1.0850  0.9981
 8598TIP3   OH249988   2.270   5.119   6.427 -0.2631  0.0864  0.4162
 8598TIP3    H149989   2.250   5.041   6.478 -2.6226  0.0960 -0.3854
 8598TIP3    H249990   2.299   5.184   6.492 -0.4562 -0.7517  1.3588
 8599TIP3   OH249991   1.650   0.656   8.012  0.3389 -0.9021  0.0230
 8599TIP3    H149992   1.628   0.596   7.941 -0.1759 -0.4791 -0.1818
 8599TIP3    H249993   1.745   0.647   8.023  0.3670 -1.2336 -0.4807
 8600TIP3   OH249994   0.973   6.312   7.775 -0.1673  0.2451  0.6310
 8600TIP3    H149995   0.938   6.341   7.691 -0.4684  1.3176  1.1107
 8600TIP3    H249996   0.901   6.263   7.815 -0.1990  0.1725  0.4869
 8601TIP3   OH249997   1.608   7.220   7.547 -0.3379  0.3443  0.2238
 8601TIP3    H149998   1.611   7.127   7.521  0.8913  0.3729  0.1927
 8601TIP3    H249999   1.556   7.221   7.627 -1.1329 -0.2476 -0.2746
 8602TIP3   OH250000   5.906   3.434   7.793  0.1558 -0.3792 -0.1018
 8602TIP3    H150001   5.995   3.413   7.821  0.0625  0.2481  0.7231
 8602TIP3    H250002   5.916   3.511   7.737  0.1005 -0.1024  0.2681
 8603TIP3   OH250003   7.310   1.604   0.924 -0.3505 -0.2578 -0.2999
 8603TIP3    H150004   7.254   1.545   0.975  0.2118  0.3047  0.9826
 8603TIP3    H250005   7.337   1.672   0.985  0.2587  0.5035 -1.3739
 8604TIP3   OH250006   2.036   0.291   9.935 -0.0444 -0.5544 -0.1750
 8604TIP3    H150007   1.979   0.352   9.981 -0.7216 -1.4269  0.1907
 8604TIP3    H250008   2.102   0.345   9.893 -1.1650  0.4857 -0.6377
 8605TIP3   OH250009   6.497   1.444   0.847 -0.8864  0.3675  0.1717
 8605TIP3    H150010   6.564   1.464   0.781  0.6649 -0.7041  1.3684
 8605TIP3    H250011   6.449   1.370   0.810  0.4013 -0.6564  0.4962
 8606TIP3   OH250012   5.409   6.749   8.011  0.1203  0.0500  0.1087
 8606TIP3    H150013   5.417   6.752   7.916  1.0433  2.0546  0.1952
 8606TIP3    H250014   5.459   6.825   8.042  1.6996 -1.7418  2.3329
 8607TIP3   OH250015   7.385   5.898   8.225  0.1526 -0.0565 -0.5640
 8607TIP3    H150016   7.325   5.846   8.279 -0.3767 -0.5231 -1.5690
 8607TIP3    H250017   7.393   5.848   8.143  0.5642  0.8544 -1.0949
 8608TIP3   OH250018   1.078   6.549   8.978 -0.1856 -0.1549  0.2049
 8608TIP3    H150019   1.066   6.456   8.958 -0.7932 -0.0693  0.1420
 8608TIP3    H250020   0.993   6.589   8.956  0.8146  0.8389 -2.1837
 8609TIP3   OH250021   5.120   1.651   8.105  0.4100 -0.1253 -0.3914
 8609TIP3    H150022   5.034   1.648   8.147 -0.1817  1.7675 -1.3860
 8609TIP3    H250023   5.182   1.640   8.177 -0.6383 -0.2881  0.5092
 8610TIP3   OH250024   4.078   1.169   0.294  0.1842  0.1172  0.1405
 8610TIP3    H150025   4.008   1.181   0.358 -0.9513  0.7305 -1.1826
 8610TIP3    H250026   4.146   1.122   0.343 -0.0897  1.6427  2.1671
 8611TIP3   OH250027   3.432   3.569   9.489 -0.1432  0.2826 -0.0750
 8611TIP3    H150028   3.498   3.531   9.430 -1.3657 -0.4042 -1.0536
 8611TIP3    H250029   3.367   3.500   9.500 -1.2569  1.3095 -0.0258
 8612TIP3   OH250030   5.639   2.326   7.923 -0.1663 -0.0046 -0.6398
 8612TIP3    H150031   5.670   2.412   7.894  1.6662 -1.1697 -2.4478
 8612TIP3    H250032   5.707   2.295   7.984 -0.7814 -0.2056 -0.0429
 8613TIP3   OH250033   0.684   4.235   9.539  0.6236 -0.2416  0.3360
 8613TIP3    H150034   0.631   4.287   9.599  1.0261  0.4571  0.0935
 8613TIP3    H250035   0.730   4.173   9.596 -1.1172 -1.4678  0.4561
 8614TIP3   OH250036   6.265   3.629   7.699  0.0576 -0.4209  0.7737
 8614TIP3    H150037   6.286   3.681   7.776 -1.0765  0.7791  0.3092
 8614TIP3    H250038   6.287   3.539   7.724  0.1563  0.0063  2.3071
 8615TIP3   OH250039   5.034   1.778   9.138  0.0186  0.2748 -0.1624
 8615TIP3    H150040   5.045   1.871   9.121  2.6405  0.4035  1.6992
 8615TIP3    H250041   5.067   1.765   9.227 -2.7260 -2.0555  0.6710
 8616TIP3   OH250042   7.538   1.566   9.026  0.7512  0.2402 -0.6753
 8616TIP3    H150043   7.465   1.508   9.045  0.6081  0.9978  1.3085
 8616TIP3    H250044   7.501   1.654   9.031  1.9388  0.6884  1.3611
 8617TIP3   OH250045   3.468   1.976   1.911  0.1585 -0.6715 -0.1291
 8617TIP3    H150046   3.435   1.944   1.827 -0.3440 -0.2831 -0.0905
 8617TIP3    H250047   3.413   2.053   1.930  2.3495  1.2246 -0.9990
 8618TIP3   OH250048   7.202   7.496   1.822  0.0192 -0.0286 -0.1582
 8618TIP3    H150049   7.218   7.491   1.916 -1.1537 -0.4916  0.0436
 8618TIP3    H250050   7.116   7.539   1.815 -0.8995 -1.8734 -0.8897
 8619TIP3   OH250051   6.313   0.206   8.965  0.8446 -0.4926 -0.1952
 8619TIP3    H150052   6.223   0.174   8.973  0.6083  0.0769 -0.4956
 8619TIP3    H250053   6.327   0.260   9.043 -0.2048  2.0543 -1.6149
 8620TIP3   OH250054   2.246   7.384   8.844  0.1459  0.0518 -0.2794
 8620TIP3    H150055   2.154   7.394   8.822  0.3208  0.2679 -0.9311
 8620TIP3    H250056   2.271   7.298   8.808  0.1554 -0.0808  0.0439
 8621TIP3   OH250057   4.627   4.875   9.598  0.1423  0.0183  0.3525
 8621TIP3    H150058   4.637   4.800   9.657  0.1143 -0.2401  0.0325
 8621TIP3    H250059   4.577   4.841   9.524 -1.6751  0.8604  1.1356
 8622TIP3   OH250060   6.244   0.123   1.079  0.1562 -0.0554 -0.0353
 8622TIP3    H150061   6.333   0.090   1.070  0.5297  0.0773  2.3547
 8622TIP3    H250062   6.214   0.136   0.990  2.8934  0.8780 -0.9372
 8623TIP3   OH250063   1.339   2.411   8.380 -0.2830  0.0000  0.5511
 8623TIP3    H150064   1.395   2.403   8.303 -0.5113  1.2278  0.2430
 8623TIP3    H250065   1.322   2.320   8.407  1.8791 -0.4082  0.6980
 8624TIP3   OH250066   4.649   1.161   9.692 -0.0977  0.0601 -0.1714
 8624TIP3    H150067   4.676   1.152   9.600 -0.3602  1.5444 -0.4290
 8624TIP3    H250068   4.571   1.218   9.688 -0.3382 -0.1692  0.9424
 8625TIP3   OH250069   2.229   7.069   9.036  0.5800  0.3970  0.2131
 8625TIP3    H150070   2.158   7.017   9.075 -0.7458  1.6960 -0.3451
 8625TIP3    H250071   2.214   7.157   9.069  0.9095  1.0340 -1.2711
 8626TIP3   OH250072   5.199   4.459   9.547 -0.3471  0.0786  0.2925
 8626TIP3    H150073   5.278   4.467   9.493 -0.9447 -1.2298 -0.8489
 8626TIP3    H250074   5.156   4.379   9.515 -1.4784  0.0607  1.7550
 8627TIP3   OH250075   2.921   1.786   8.835 -0.3263  0.2033  0.3505
 8627TIP3    H150076   2.846   1.815   8.887 -0.8583 -0.7977  0.1700
 8627TIP3    H250077   2.885   1.773   8.747  0.3157  0.7959 -0.0156
 8628TIP3   OH250078   0.360   3.608   1.136 -0.5077  0.0235 -0.3904
 8628TIP3    H150079   0.455   3.622   1.135 -0.2862 -0.9932  1.5914
 8628TIP3    H250080   0.328   3.662   1.208 -1.3690 -0.0114 -0.7281
 8629TIP3   OH250081   2.362   4.424   8.602 -0.3071  0.3091  0.8289
 8629TIP3    H150082   2.285   4.369   8.619  1.1820 -1.1746  3.2172
 8629TIP3    H250083   2.402   4.385   8.524  0.2507 -1.5635  1.9848
 8630TIP3   OH250084   0.425   1.701   9.845 -1.2552  0.9290  0.3941
 8630TIP3    H150085   0.413   1.710   9.940  1.9582  1.7437  0.8377
 8630TIP3    H250086   0.364   1.765   9.807 -2.2405  0.9382  1.8832
 8631TIP3   OH250087   3.564   4.778   7.962 -0.5400 -0.5583  0.4190
 8631TIP3    H150088   3.636   4.839   7.975 -2.3805  1.7088  0.6181
 8631TIP3    H250089   3.580   4.741   7.875 -0.7198  2.3052 -0.9555
 8632TIP3   OH250090   1.004   0.429   7.785 -0.2440 -0.6579  0.0320
 8632TIP3    H150091   0.983   0.373   7.860 -1.0771  1.3581  1.3775
 8632TIP3    H250092   1.099   0.429   7.780 -0.2147 -1.7763  0.2936
 8633TIP3   OH250093   4.719   2.754   0.691  0.1064 -0.5891  0.1824
 8633TIP3    H150094   4.792   2.700   0.721  1.4027  1.5352  1.0683
 8633TIP3    H250095   4.660   2.760   0.766 -0.0136 -0.7193  0.0999
 8634TIP3   OH250096   4.622   5.796   7.535  0.7885 -0.0693 -0.1493
 8634TIP3    H150097   4.654   5.706   7.547  0.1626 -0.2666  0.0789
 8634TIP3    H250098   4.534   5.786   7.499  0.6927  0.4543 -0.0696
 8635TIP3   OH250099   7.557   3.423   9.224 -0.5203  0.2431  0.4608
 8635TIP3    H150100   7.513   3.454   9.304 -0.9751  1.8705 -0.3733
 8635TIP3    H250101   7.587   3.503   9.181  0.1236 -0.6392 -0.7878
 8636TIP3   OH250102   6.292   0.162   1.389  0.5804  0.3925  0.2612
 8636TIP3    H150103   6.217   0.206   1.349  1.4982  0.8827 -0.9936
 8636TIP3    H250104   6.346   0.136   1.315  0.7731 -1.6014  1.0373
 8637TIP3   OH250105   4.864   2.402   9.384 -0.3088 -0.3628 -0.4320
 8637TIP3    H150106   4.879   2.407   9.479 -0.2819 -1.4981 -0.3623
 8637TIP3    H250107   4.937   2.449   9.345 -1.1930  1.5896  0.1442
 8638TIP3   OH250108   3.244   1.450   0.714 -0.3237 -0.0991 -0.3766
 8638TIP3    H150109   3.204   1.483   0.633  0.5358  0.0868 -0.7362
 8638TIP3    H250110   3.213   1.359   0.720  1.2682 -0.8224 -2.0750
 8639TIP3   OH250111   4.028   0.310   8.082 -0.4525  0.0535 -0.5395
 8639TIP3    H150112   4.039   0.347   7.994  0.3474 -0.2680 -0.5876
 8639TIP3    H250113   3.934   0.314   8.099 -0.6091  0.1497 -1.4019
 8640TIP3   OH250114   6.784   6.553   0.999 -0.2741  0.7000  0.9033
 8640TIP3    H150115   6.738   6.594   1.072 -2.5581 -1.5208  0.8765
 8640TIP3    H250116   6.715   6.534   0.935  0.9952 -0.9845 -0.0593
 8641TIP3   OH250117   2.791   3.715   9.596 -0.4285 -0.0600 -0.2300
 8641TIP3    H150118   2.801   3.793   9.651  3.4318  0.7386 -1.7437
 8641TIP3    H250119   2.789   3.642   9.658  0.2097  0.9960  1.0882
 8642TIP3   OH250120   2.740   2.322   9.299  0.6055 -0.3909  0.2030
 8642TIP3    H150121   2.800   2.378   9.348  0.0648  1.7105 -1.3993
 8642TIP3    H250122   2.772   2.325   9.209 -0.4188 -1.3275 -0.2195
 8643TIP3   OH250123   3.316   6.960   2.922 -0.2534  0.1470 -0.7832
 8643TIP3    H150124   3.399   6.962   2.969 -0.4413 -2.2984 -0.2417
 8643TIP3    H250125   3.292   7.052   2.912  1.5086  0.8365  0.8169
 8644TIP3   OH250126   6.868   7.624   9.640 -0.0733  0.4781  0.5660
 8644TIP3    H150127   6.954   7.588   9.662  0.5822  0.8924 -1.1254
 8644TIP3    H250128   6.808   7.584   9.703  1.4090  0.5286  2.0864
 8645TIP3   OH250129   6.665   7.448   0.825 -0.1707 -0.2896 -0.2287
 8645TIP3    H150130   6.582   7.409   0.852 -0.3401 -0.0482 -0.4068
 8645TIP3    H250131   6.725   7.373   0.819 -0.0719 -0.3302  1.0295
 8646TIP3   OH250132   0.290   6.469   1.374 -0.0501 -0.3706  0.1167
 8646TIP3    H150133   0.262   6.400   1.313  1.4003 -1.0798  0.2152
 8646TIP3    H250134   0.377   6.494   1.343 -0.0471  0.5383  0.8416
 8647TIP3   OH250135   0.515   5.426   9.842 -0.3629 -0.0022  0.0543
 8647TIP3    H150136   0.445   5.388   9.790  1.7399 -1.3046 -2.0500
 8647TIP3    H250137   0.546   5.500   9.790 -0.8952  1.2913  1.5234
 8648TIP3   OH250138   0.852   5.757   0.173  0.8373  0.6165  0.4295
 8648TIP3    H150139   0.856   5.734   0.266  1.3811 -0.3867  0.1700
 8648TIP3    H250140   0.936   5.800   0.156  0.6332  1.0283  0.4579
 8649TIP3   OH250141   3.496   7.231   2.603 -0.9799  0.0135  0.0255
 8649TIP3    H150142   3.519   7.142   2.628  0.2225  0.2569 -0.1606
 8649TIP3    H250143   3.448   7.265   2.678 -0.1475 -0.3003  0.7191
 8650TIP3   OH250144   0.166   0.110   1.176 -0.2258  0.7713  0.2401
 8650TIP3    H150145   0.090   0.085   1.229  0.2336 -0.3599  0.3959
 8650TIP3    H250146   0.207   0.027   1.153  0.9810  1.3661  0.1809
 8651TIP3   OH250147   6.558   0.255   8.515 -0.6992  0.0862  0.1583
 8651TIP3    H150148   6.578   0.279   8.606  0.1299  1.3636 -0.3262
 8651TIP3    H250149   6.463   0.256   8.510 -0.7475  2.8570  0.3379
 8652TIP3   OH250150   2.417   7.115   3.262  0.2715  0.1510  0.1325
 8652TIP3    H150151   2.340   7.079   3.306  1.3718 -1.2106  1.0410
 8652TIP3    H250152   2.416   7.208   3.282 -0.2680 -0.1330  1.5026
 8653TIP3   OH250153   6.441   2.483   7.889 -0.1495  0.4187 -0.0046
 8653TIP3    H150154   6.512   2.519   7.836 -1.0156 -0.9009 -2.1829
 8653TIP3    H250155   6.485   2.423   7.950  0.8981  2.2244  1.1093
 8654TIP3   OH250156   3.859   6.573   7.454 -0.0732  0.3462 -0.7029
 8654TIP3    H150157   3.862   6.656   7.501 -0.9283 -0.5071  0.9260
 8654TIP3    H250158   3.805   6.591   7.377 -2.0047  0.8359  0.6865
 8655TIP3   OH250159   2.983   4.153   8.025 -0.6064 -0.3693  0.7331
 8655TIP3    H150160   2.908   4.177   8.079 -1.1199 -3.4687  1.6276
 8655TIP3    H250161   3.058   4.157   8.085 -0.3791  0.6863  0.3954
 8656TIP3   OH250162   2.872   0.948   6.965  0.0727  0.4556 -0.0263
 8656TIP3    H150163   2.872   0.939   6.870 -0.3377  1.7075 -0.1768
 8656TIP3    H250164   2.798   0.895   6.995  0.4766 -0.2984 -0.3557
 8657TIP3   OH250165   0.554   4.696   8.918  0.0435 -0.0731  0.1222
 8657TIP3    H150166   0.645   4.702   8.947 -0.2558 -0.3858  1.1773
 8657TIP3    H250167   0.527   4.606   8.938 -0.4345 -0.0502 -0.3757
 8658TIP3   OH250168   4.649   6.364   1.141  0.7762 -0.2219 -0.1212
 8658TIP3    H150169   4.596   6.382   1.064  0.3573 -1.2075 -0.0808
 8658TIP3    H250170   4.728   6.322   1.107  0.1460 -1.5967  0.0304
 8659TIP3   OH250171   0.582   1.334   0.687  0.4552  0.3732 -0.1886
 8659TIP3    H150172   0.666   1.289   0.675  0.8603  1.3930 -1.4189
 8659TIP3    H250173   0.536   1.320   0.605 -1.3562 -1.6147  1.0616
 8660TIP3   OH250174   6.344   2.925   1.033  0.2723  0.2167  0.2421
 8660TIP3    H150175   6.306   2.866   0.968  2.5276  1.8441 -2.8327
 8660TIP3    H250176   6.305   3.010   1.013  1.5585  0.8900  0.4691
 8661TIP3   OH250177   2.065   1.635   1.141 -0.7545  0.3788  0.0190
 8661TIP3    H150178   2.018   1.718   1.147 -0.0314  0.8884 -1.0693
 8661TIP3    H250179   2.147   1.650   1.188 -1.2168 -0.1846  1.0354
 8662TIP3   OH250180   5.348   4.073   0.663 -0.0642 -0.3434 -0.5568
 8662TIP3    H150181   5.418   4.024   0.619 -0.1991 -0.5527 -0.5394
 8662TIP3    H250182   5.313   4.013   0.728  1.3670  0.5812  1.1413
 8663TIP3   OH250183   2.364   1.669   0.959 -0.5948 -0.2729 -0.2672
 8663TIP3    H150184   2.351   1.587   0.911 -1.6539 -0.5171  0.4027
 8663TIP3    H250185   2.276   1.698   0.981 -0.1689 -0.0661  1.3400
 8664TIP3   OH250186   5.977   7.116   1.577 -0.4186  0.3409 -0.0039
 8664TIP3    H150187   5.903   7.166   1.543 -1.4079 -1.0239  0.0514
 8664TIP3    H250188   6.014   7.171   1.646 -0.8727  1.3921 -0.5844
 8665TIP3   OH250189   5.570   3.808   9.969  0.2996 -0.0038  0.0755
 8665TIP3    H150190   5.658   3.818   9.933 -0.0043 -0.7507 -0.8951
 8665TIP3    H250191   5.516   3.870   9.919  0.4485  1.2490  1.3953
 8666TIP3   OH250192   3.463   2.380   8.723 -0.2069  0.1914  0.2548
 8666TIP3    H150193   3.448   2.379   8.818 -0.1882  1.0646  0.2779
 8666TIP3    H250194   3.496   2.468   8.706  0.4320 -0.1832 -0.4704
 8667TIP3   OH250195   4.426   0.859   8.771  0.1773  0.2091 -0.1085
 8667TIP3    H150196   4.396   0.783   8.721 -0.8226  0.9508 -0.6700
 8667TIP3    H250197   4.520   0.846   8.779  0.0194 -1.1396 -0.1010
 8668TIP3   OH250198   3.883   4.843   9.683 -0.8382 -0.0282 -0.6794
 8668TIP3    H150199   3.925   4.797   9.610 -1.9688 -0.3202 -1.1696
 8668TIP3    H250200   3.955   4.871   9.738 -0.0369 -1.0602 -1.1672
 8669TIP3   OH250201   0.727   4.070   0.976  0.3155  0.2219 -0.3443
 8669TIP3    H150202   0.737   3.987   1.023  0.7697  0.7282  0.4833
 8669TIP3    H250203   0.733   4.137   1.044  1.4839  1.0079 -1.1797
 8670TIP3   OH250204   1.801   0.237   6.619  0.4857 -0.5878 -0.0350
 8670TIP3    H150205   1.833   0.168   6.561  0.6714 -0.4411 -0.1101
 8670TIP3    H250206   1.817   0.204   6.707 -2.2660 -2.0117  0.0446
 8671TIP3   OH250207   1.229   0.441   0.728  0.1608 -0.4510  0.1011
 8671TIP3    H150208   1.227   0.525   0.682 -3.5375 -1.0639 -1.2059
 8671TIP3    H250209   1.182   0.456   0.809 -0.5413 -1.2406 -0.1456
 8672TIP3   OH250210   6.795   7.443   7.876  0.6262  0.0830  0.2002
 8672TIP3    H150211   6.863   7.467   7.938  0.3351 -0.4810  0.7361
 8672TIP3    H250212   6.720   7.497   7.901  0.1780 -0.8779  1.0018
 8673TIP3   OH250213   1.404   4.770   6.410 -0.1874  0.3136  0.4575
 8673TIP3    H150214   1.329   4.729   6.366  1.7546 -1.3306 -1.5470
 8673TIP3    H250215   1.473   4.704   6.405  1.7254  2.1487  1.3132
 8674TIP3   OH250216   2.707   1.266   7.666  0.0412 -0.0706  0.1018
 8674TIP3    H150217   2.620   1.236   7.642 -0.8933  1.1959  1.7223
 8674TIP3    H250218   2.719   1.238   7.757  1.2216  0.0243 -0.0010
 8675TIP3   OH250219   6.343   5.550   9.695 -0.3602 -0.0863  0.0526
 8675TIP3    H150220   6.281   5.507   9.754 -0.7556  0.7229  0.2343
 8675TIP3    H250221   6.421   5.495   9.698 -0.4387 -0.1491  1.1861
 8676TIP3   OH250222   1.486   1.079   0.516  0.5065 -0.5970 -0.2880
 8676TIP3    H150223   1.536   1.058   0.437 -0.4456  0.5363 -1.2482
 8676TIP3    H250224   1.549   1.120   0.575  1.5538 -2.7142  0.1528
 8677TIP3   OH250225   0.200   0.242   0.363 -0.2175 -0.3068  0.1492
 8677TIP3    H150226   0.201   0.317   0.422  1.7447 -0.8448  0.8704
 8677TIP3    H250227   0.120   0.194   0.386 -0.2961  0.3353  1.2730
 8678TIP3   OH250228   1.248   5.411   9.625 -0.2663  0.3633 -0.0335
 8678TIP3    H150229   1.210   5.360   9.697 -0.9633  0.8953 -0.0102
 8678TIP3    H250230   1.176   5.466   9.594 -0.0331 -0.0070 -1.2870
 8679TIP3   OH250231   4.836   4.787   0.432 -0.1480  0.1965  0.0325
 8679TIP3    H150232   4.758   4.811   0.383 -0.4758 -1.5031 -0.3500
 8679TIP3    H250233   4.907   4.790   0.367 -0.2042  0.0377 -0.0364
 8680TIP3   OH250234   0.078   1.127   1.165 -0.8161  0.3732 -0.1236
 8680TIP3    H150235   0.158   1.179   1.162 -1.5980  1.6198 -0.4143
 8680TIP3    H250236   0.027   1.158   1.089 -0.5388 -2.1751 -1.4600
 8681TIP3   OH250237   5.968   5.851   0.463  0.0689  0.3736 -0.1983
 8681TIP3    H150238   6.019   5.799   0.400 -0.8439 -0.0785 -0.5878
 8681TIP3    H250239   5.880   5.814   0.458 -0.4746  1.6220 -0.0785
 8682TIP3   OH250240   6.867   4.591   8.149 -0.2868 -0.1781  0.1524
 8682TIP3    H150241   6.781   4.626   8.172 -1.1288 -0.1160 -2.6675
 8682TIP3    H250242   6.848   4.509   8.102  1.4039 -1.8918  2.2440
 8683TIP3   OH250243   3.283   5.324   0.022  0.1717 -0.0211  0.6373
 8683TIP3    H150244   3.201   5.278   0.042  0.6419 -1.1080  0.1807
 8683TIP3    H250245   3.348   5.282   0.078  0.5484  0.3490  0.4808
 8684TIP3   OH250246   1.791   4.505   0.975 -0.0027  0.3981  0.2245
 8684TIP3    H150247   1.845   4.528   0.899 -0.5000  0.2887 -0.1703
 8684TIP3    H250248   1.760   4.589   1.009 -0.4786  0.4114 -0.2217
 8685TIP3   OH250249   5.816   2.510   8.286 -0.6630  0.2141  0.0425
 8685TIP3    H150250   5.825   2.532   8.379  1.0877  2.8491 -0.6625
 8685TIP3    H250251   5.733   2.550   8.260 -0.5504  0.5465  0.1942
 8686TIP3   OH250252   1.760   7.338   0.595 -0.4170 -0.2763 -0.4262
 8686TIP3    H150253   1.715   7.353   0.512 -0.2675  0.3210 -0.4089
 8686TIP3    H250254   1.695   7.361   0.661 -0.7241 -1.2940 -0.3567
 8687TIP3   OH250255   1.117   7.029   1.703  0.2862 -0.3759 -0.4247
 8687TIP3    H150256   1.204   7.058   1.674  0.2049 -1.2464 -1.6112
 8687TIP3    H250257   1.057   7.096   1.668  0.3511 -0.5437 -0.8703
 8688TIP3   OH250258   3.677   3.256   9.184 -0.0147 -0.2472 -0.1335
 8688TIP3    H150259   3.597   3.208   9.204 -0.4580 -0.3142 -1.9447
 8688TIP3    H250260   3.747   3.198   9.211 -0.5493 -1.6780 -1.6465
 8689TIP3   OH250261   4.077   3.255   1.389  0.0645 -0.8695  0.3323
 8689TIP3    H150262   4.109   3.337   1.428 -1.2244 -0.0063 -0.3640
 8689TIP3    H250263   4.148   3.192   1.404  1.8443  0.7971 -0.6138
 8690TIP3   OH250264   1.690   1.796   1.478 -0.0757  0.4135  0.4046
 8690TIP3    H150265   1.683   1.877   1.528  2.1926  0.7839  0.2123
 8690TIP3    H250266   1.608   1.791   1.428 -0.6733  2.0512  1.1776
 8691TIP3   OH250267   6.159   3.233   2.062 -0.2398 -0.4569  0.1217
 8691TIP3    H150268   6.198   3.189   1.986 -1.3495 -1.2731  0.0040
 8691TIP3    H250269   6.228   3.230   2.129 -0.0458 -1.8087 -0.1000
 8692TIP3   OH250270   2.185   5.421   8.406 -0.1406 -0.2011 -0.6178
 8692TIP3    H150271   2.273   5.435   8.372  0.5365 -1.5246  0.5199
 8692TIP3    H250272   2.127   5.450   8.335  1.1847  0.8718 -1.3020
 8693TIP3   OH250273   1.186   6.496   9.337 -0.1258 -0.4623 -0.4291
 8693TIP3    H150274   1.216   6.516   9.426  0.1898  0.0700 -0.6544
 8693TIP3    H250275   1.266   6.491   9.285 -0.3674  0.1555 -0.8705
 8694TIP3   OH250276   4.132   4.567   0.610  0.2754 -0.4741 -0.3812
 8694TIP3    H150277   4.039   4.591   0.608  0.4258  0.2179  0.2907
 8694TIP3    H250278   4.135   4.485   0.658  0.0936 -0.0163  0.4330
 8695TIP3   OH250279   2.593   5.126   1.318  0.6286  0.1804  0.1991
 8695TIP3    H150280   2.633   5.140   1.232  0.1792  1.0973  0.1290
 8695TIP3    H250281   2.505   5.092   1.298  1.5414 -2.5229  0.3602
 8696TIP3   OH250282   5.579   6.479   1.690  0.4374  0.7807 -0.3946
 8696TIP3    H150283   5.626   6.520   1.763  0.5612  0.0042 -0.0234
 8696TIP3    H250284   5.495   6.525   1.686  0.3458  0.6974  0.3854
 8697TIP3   OH250285   2.495   4.179   8.047  0.3047  0.2578  0.2211
 8697TIP3    H150286   2.568   4.239   8.057 -0.3699  1.1094  0.2205
 8697TIP3    H250287   2.529   4.093   8.071  1.3330  0.6156  0.0611
 8698TIP3   OH250288   0.519   1.828   2.955  0.5896 -0.2410  0.0331
 8698TIP3    H150289   0.452   1.844   3.022 -1.5081  0.4001 -2.0759
 8698TIP3    H250290   0.496   1.887   2.884  3.0204 -0.5523 -1.1173
 8699TIP3   OH250291   3.562   4.772   9.052  0.0717 -0.1335  0.1212
 8699TIP3    H150292   3.583   4.861   9.023 -0.0553  0.1108  0.7673
 8699TIP3    H250293   3.614   4.716   8.994  0.8371  0.3912  0.2754
 8700TIP3   OH250294   3.031   1.196   0.692 -0.1852 -0.1603 -0.6724
 8700TIP3    H150295   2.956   1.154   0.651 -0.3992 -1.4323  0.9217
 8700TIP3    H250296   3.107   1.158   0.647 -0.4531  0.2675 -1.5039
 8701TIP3   OH250297   3.476   6.809   1.637  0.2505  0.1293  0.0550
 8701TIP3    H150298   3.480   6.796   1.732  0.9051 -3.2551 -0.3037
 8701TIP3    H250299   3.567   6.799   1.608 -0.1609 -0.5264 -1.0580
 8702TIP3   OH250300   0.466   2.231   0.038 -0.3830  0.0446 -0.3341
 8702TIP3    H150301   0.437   2.220   0.128 -2.3430  1.3596 -0.7319
 8702TIP3    H250302   0.547   2.282   0.044 -0.8219  0.6594  0.6729
 8703TIP3   OH250303   1.997   7.540   1.612  0.4509 -0.2181 -0.6449
 8703TIP3    H150304   2.063   7.508   1.674 -0.9251  1.7889  2.0657
 8703TIP3    H250305   1.919   7.553   1.665 -1.2427  0.3552 -3.1272
 8704TIP3   OH250306   2.210   1.116   8.343 -0.0100 -0.2920  0.5063
 8704TIP3    H150307   2.178   1.163   8.420 -0.9564 -0.7742  0.4282
 8704TIP3    H250308   2.265   1.047   8.378  0.6295  0.2871  0.6702
 8705TIP3   OH250309   3.794   4.865   0.264  0.6417  0.1430  0.2930
 8705TIP3    H150310   3.802   4.773   0.289  1.5678  0.4680  1.2552
 8705TIP3    H250311   3.822   4.868   0.173  1.4806 -0.4027  0.5182
 8706TIP3   OH250312   5.275   3.781   8.358  0.5725  0.0359 -0.0004
 8706TIP3    H150313   5.293   3.822   8.273 -1.5538 -1.0872 -1.0677
 8706TIP3    H250314   5.329   3.702   8.357  0.7618  0.1650 -0.1852
 8707TIP3   OH250315   5.207   5.131   7.786  0.3897 -0.0524  0.3581
 8707TIP3    H150316   5.200   5.224   7.767 -0.6551 -0.2095 -0.0926
 8707TIP3    H250317   5.286   5.123   7.839 -0.1195  1.2356  1.3540
 8708TIP3   OH250318   7.372   7.635   1.659  0.0330  0.7628 -0.1711
 8708TIP3    H150319   7.317   7.713   1.655  0.3846  1.0204  0.0370
 8708TIP3    H250320   7.318   7.569   1.703 -0.5784  0.6242 -1.0988
 8709TIP3   OH250321   0.022   6.407   0.348  0.1856  0.6715  0.4520
 8709TIP3    H150322  -0.053   6.463   0.368 -0.8046 -0.0020 -1.1812
 8709TIP3    H250323   0.085   6.427   0.417 -1.6301  0.9693  2.1272
 8710TIP3   OH250324   2.261   4.358   2.035 -0.7067 -0.1698 -0.2291
 8710TIP3    H150325   2.211   4.316   1.965 -0.0819  0.3041 -0.9833
 8710TIP3    H250326   2.345   4.380   1.994 -0.3056  0.0511  0.6965
 8711TIP3   OH250327   7.222   5.886   8.879  0.5103 -0.2738 -0.0599
 8711TIP3    H150328   7.251   5.839   8.957  0.0342  0.4426  0.5668
 8711TIP3    H250329   7.180   5.965   8.913 -0.4669 -0.3555 -0.9987
 8712TIP3   OH250330   4.086   7.659   9.289  0.7151  0.0764 -0.4202
 8712TIP3    H150331   3.994   7.685   9.276  1.0952  1.2504 -0.8562
 8712TIP3    H250332   4.096   7.653   9.384  1.0873  3.5244 -0.1162
 8713TIP3   OH250333   0.040   2.612   7.772  0.2942  0.1446 -0.8615
 8713TIP3    H150334  -0.045   2.595   7.811 -0.6189  2.0869 -1.8444
 8713TIP3    H250335   0.102   2.566   7.828 -1.3250 -0.6706  0.3351
 8714TIP3   OH250336   7.378   4.797   7.796  0.0410 -0.3572  0.4101
 8714TIP3    H150337   7.449   4.778   7.856 -0.5419 -1.0639  0.8900
 8714TIP3    H250338   7.373   4.893   7.793  1.0557 -0.3007  0.2991
 8715TIP3   OH250339   2.977   3.843   1.304  0.7675 -0.4220 -0.1845
 8715TIP3    H150340   2.931   3.915   1.260  0.6516 -0.5094 -0.2044
 8715TIP3    H250341   3.031   3.804   1.235  0.6086 -0.5402 -0.2425
 8716TIP3   OH250342   1.370   5.243   7.996  0.0263 -0.3620 -0.3200
 8716TIP3    H150343   1.290   5.288   8.023  0.4706 -0.4564  1.2712
 8716TIP3    H250344   1.364   5.157   8.037  1.4948  0.0659  0.9190
 8717TIP3   OH250345   7.541   4.952   2.138  0.0850 -0.1925 -0.6599
 8717TIP3    H150346   7.566   4.861   2.121 -0.4826 -0.2427 -1.3241
 8717TIP3    H250347   7.574   4.971   2.225  0.6284 -0.8861 -0.7091
 8718TIP3   OH250348   5.335   0.799   8.148 -0.5941 -0.1468  0.2049
 8718TIP3    H150349   5.428   0.778   8.159  0.7722  4.6723 -0.0600
 8718TIP3    H250350   5.303   0.810   8.237 -1.4504 -3.0789  0.3726
 8719TIP3   OH250351   4.916   4.815   8.946 -0.0522  0.1787 -0.3536
 8719TIP3    H150352   4.823   4.795   8.954  0.6369 -3.5329 -0.1508
 8719TIP3    H250353   4.941   4.785   8.859  0.8556  1.9907 -0.7843
 8720TIP3   OH250354   5.198   5.318   0.131 -0.0620  0.5845 -0.7034
 8720TIP3    H150355   5.240   5.353   0.053 -0.6439 -2.3387 -2.4896
 8720TIP3    H250356   5.270   5.293   0.189  0.5199  0.2606 -1.5465
 8721TIP3   OH250357   1.488   4.112   0.050  0.8404 -0.0868  0.3000
 8721TIP3    H150358   1.420   4.174   0.076  0.3559  0.0558 -1.2345
 8721TIP3    H250359   1.524   4.080   0.133 -1.9192 -1.1088  1.2146
 8722TIP3   OH250360   2.874   0.802   7.968  0.2726  0.0923 -0.2442
 8722TIP3    H150361   2.943   0.832   7.909 -0.0523  1.0203 -0.1644
 8722TIP3    H250362   2.836   0.726   7.924  1.4015 -0.4941 -0.2419
 8723TIP3   OH250363   2.442   6.043   1.235  0.6019  0.1224  0.2452
 8723TIP3    H150364   2.458   6.132   1.206  2.1671  0.7201  2.6321
 8723TIP3    H250365   2.501   6.031   1.309 -0.6385 -2.4000  0.9445
 8724TIP3   OH250366   6.711   6.005   0.933 -0.0687  0.1364 -0.1221
 8724TIP3    H150367   6.636   5.945   0.929 -0.3819  0.5364 -0.2905
 8724TIP3    H250368   6.786   5.950   0.912  0.1909 -1.1098  3.4389
 8725TIP3   OH250369   6.442   6.395   9.619  0.4824  0.4171  0.1711
 8725TIP3    H150370   6.402   6.386   9.532  0.9445 -2.3251  0.1493
 8725TIP3    H250371   6.526   6.349   9.611  0.2104 -0.5557  2.2216
 8726TIP3   OH250372   4.315   4.708   1.683  0.7296 -0.3379  0.1003
 8726TIP3    H150373   4.278   4.688   1.769 -0.4039 -0.7652 -0.4692
 8726TIP3    H250374   4.353   4.795   1.693  0.1097 -0.1415  0.8879
 8727TIP3   OH250375   5.708   3.747   1.545  0.2757 -0.3035  0.1264
 8727TIP3    H150376   5.758   3.713   1.471 -1.0702 -0.3081 -0.8222
 8727TIP3    H250377   5.766   3.738   1.620  2.1461  0.7901 -1.1170
 8728TIP3   OH250378   0.492   1.353   1.319 -0.0822 -0.1134 -0.0017
 8728TIP3    H150379   0.490   1.319   1.409  1.0563  0.8914  0.4322
 8728TIP3    H250380   0.583   1.382   1.307 -0.7669  1.8608 -0.6722
 8729TIP3   OH250381   0.894   2.696   2.610 -0.1996  0.0070  0.4746
 8729TIP3    H150382   0.800   2.681   2.601 -0.2536  0.3532  0.4320
 8729TIP3    H250383   0.904   2.791   2.601  0.5154 -0.2750 -2.5846
 8730TIP3   OH250384   1.414   4.043   1.011 -0.7619 -0.1976  0.3128
 8730TIP3    H150385   1.393   4.132   1.038 -0.0933 -0.3461  1.4284
 8730TIP3    H250386   1.502   4.028   1.046  0.8445  0.0625 -3.2570
 8731TIP3   OH250387   4.691   0.115   1.158  0.0668  0.0786 -0.1266
 8731TIP3    H150388   4.601   0.085   1.168  0.4545 -1.3905 -0.7829
 8731TIP3    H250389   4.690   0.167   1.077 -0.0959 -0.3788 -0.4216
 8732TIP3   OH250390   0.609   2.903   2.197 -0.0871 -0.2623 -0.2388
 8732TIP3    H150391   0.670   2.895   2.124 -2.2773  0.4431 -2.2916
 8732TIP3    H250392   0.581   2.814   2.215  1.3041 -0.5636  0.5580
 8733TIP3   OH250393   3.567   1.601   7.945 -0.8275 -0.1205  0.0427
 8733TIP3    H150394   3.612   1.590   8.029  0.5132 -1.9072 -0.8435
 8733TIP3    H250395   3.528   1.516   7.927 -0.1439 -0.1123 -1.6441
 8734TIP3   OH250396   0.933   1.238   2.245  0.4933  1.1283  0.2165
 8734TIP3    H150397   1.015   1.204   2.209 -0.3207 -1.3865  0.5435
 8734TIP3    H250398   0.945   1.229   2.340 -0.7322 -0.9300  0.2388
 8735TIP3   OH250399   0.405   0.207   1.056 -0.3438 -0.2638 -0.1838
 8735TIP3    H150400   0.312   0.184   1.067 -0.7636  2.2731  2.4079
 8735TIP3    H250401   0.452   0.131   1.089 -1.4339 -1.3793 -1.0551
 8736TIP3   OH250402   0.823   4.685   8.135 -0.1913  0.0967 -0.2309
 8736TIP3    H150403   0.762   4.713   8.203  0.1023 -1.2183  0.6252
 8736TIP3    H250404   0.768   4.673   8.057 -0.7603  0.4293  0.1106
 8737TIP3   OH250405   6.602   5.220   1.117  0.1917 -0.6261 -0.2333
 8737TIP3    H150406   6.520   5.173   1.133  0.5601 -1.5013 -0.8125
 8737TIP3    H250407   6.575   5.309   1.095 -0.5889 -0.8307 -0.1356
 8738TIP3   OH250408   3.367   1.684   7.381 -0.5695  0.0638 -0.8609
 8738TIP3    H150409   3.404   1.658   7.465 -0.8900  0.4531 -0.5939
 8738TIP3    H250410   3.356   1.779   7.388 -0.5329  0.1058 -1.3669
 8739TIP3   OH250411   4.152   5.868   2.687 -0.4102 -0.4951  0.1842
 8739TIP3    H150412   4.099   5.852   2.765 -1.3570  0.5565 -0.2041
 8739TIP3    H250413   4.197   5.951   2.704  1.1876 -1.3955  0.5231
 8740TIP3   OH250414   0.529   0.678   0.545 -0.5163 -0.6825  0.5090
 8740TIP3    H150415   0.505   0.645   0.458  1.3189 -0.4773 -0.1087
 8740TIP3    H250416   0.481   0.761   0.552 -0.9595 -0.8681 -0.1542
 8741TIP3   OH250417   5.189   0.897   7.653  0.0517 -0.1649  0.2310
 8741TIP3    H150418   5.168   0.895   7.746  0.6735  0.2099  0.3824
 8741TIP3    H250419   5.283   0.883   7.649  0.1546  0.6246 -0.2899
 8742TIP3   OH250420   2.585   2.752   8.426  0.1262 -0.4228 -0.4573
 8742TIP3    H150421   2.585   2.656   8.424  1.3850 -0.4436 -0.4011
 8742TIP3    H250422   2.515   2.778   8.367 -0.2073 -1.3826 -0.4896
 8743TIP3   OH250423   1.050   0.812   8.300 -0.1979  0.3911  0.3481
 8743TIP3    H150424   1.090   0.747   8.358  0.2312  0.7607  0.4774
 8743TIP3    H250425   1.064   0.895   8.345 -0.2139  0.6345 -0.0960
 8744TIP3   OH250426   2.617   1.624   8.818 -0.4483  0.3035  0.4414
 8744TIP3    H150427   2.657   1.595   8.736  1.6835  0.5275  1.3565
 8744TIP3    H250428   2.605   1.718   8.807  0.7376  0.5007  0.7151
 8745TIP3   OH250429   2.108   7.521   7.124 -0.2825  0.4247 -0.1492
 8745TIP3    H150430   2.041   7.570   7.076 -0.3047  0.9687  0.4250
 8745TIP3    H250431   2.182   7.581   7.130 -0.2320  0.3086  0.3802
 8746TIP3   OH250432   3.888   5.401   8.951 -0.4769 -0.3833  0.2143
 8746TIP3    H150433   3.811   5.387   9.005 -0.5219  0.9488  0.5339
 8746TIP3    H250434   3.957   5.424   9.013 -0.4878  0.9989 -0.2565
 8747TIP3   OH250435   4.374   6.234   0.664  0.7404  0.1811  0.2751
 8747TIP3    H150436   4.325   6.274   0.736 -0.5682  0.5110 -0.7703
 8747TIP3    H250437   4.382   6.303   0.598  0.2765 -0.6514 -0.6772
 8748TIP3   OH250438   4.443   7.398   2.392  0.0627  0.1021  0.1442
 8748TIP3    H150439   4.530   7.438   2.383  0.5939 -0.0047  3.4062
 8748TIP3    H250440   4.383   7.465   2.359  1.2335  1.6868  1.0235
 8749TIP3   OH250441   4.804   5.989   9.061 -0.8188  0.4558 -0.3270
 8749TIP3    H150442   4.890   6.001   9.103  0.0342 -1.0149 -1.5229
 8749TIP3    H250443   4.743   5.982   9.134 -0.4244  4.1357  0.5761
 8750TIP3   OH250444   4.373   7.579   1.528 -0.1597 -0.1225  0.2588
 8750TIP3    H150445   4.301   7.576   1.465  1.3354 -1.7077 -1.4990
 8750TIP3    H250446   4.333   7.552   1.611 -2.3631  2.8380  0.3133
 8751TIP3   OH250447   3.429   6.977   7.943 -0.0408  0.2737 -0.2835
 8751TIP3    H150448   3.498   6.997   7.880  1.4146 -1.2142  0.7439
 8751TIP3    H250449   3.458   7.017   8.025 -1.8311  2.0512 -0.4486
 8752TIP3   OH250450   1.034   3.447   1.299  0.4877  0.2036 -0.2793
 8752TIP3    H150451   1.122   3.474   1.272 -0.2555  1.0959 -1.9719
 8752TIP3    H250452   0.985   3.440   1.217 -0.7357 -1.3991  0.5442
 8753TIP3   OH250453   3.666   1.087   8.010  0.1989  0.1941 -0.1363
 8753TIP3    H150454   3.751   1.044   8.010  0.1940  0.1855 -0.5908
 8753TIP3    H250455   3.611   1.032   8.066  0.1455 -0.4795 -0.8382
 8754TIP3   OH250456   6.724   7.430   1.302 -0.1095  0.1901  0.0358
 8754TIP3    H150457   6.654   7.368   1.321 -1.0946  1.6212  1.3196
 8754TIP3    H250458   6.721   7.442   1.207 -0.9327 -0.5160 -0.0416
 8755TIP3   OH250459   3.139   6.396   8.645  0.6894 -0.4267  0.0691
 8755TIP3    H150460   3.207   6.463   8.643  1.6056 -1.3413 -0.7687
 8755TIP3    H250461   3.083   6.416   8.570  1.2018 -0.8201 -0.4275
 8756TIP3   OH250462   0.837   4.648   9.294 -0.1094  0.4998  0.0662
 8756TIP3    H150463   0.907   4.703   9.259 -0.7810  2.1037  1.1079
 8756TIP3    H250464   0.883   4.574   9.335  0.8050  0.1291 -1.5355
 8757TIP3   OH250465   6.574   6.673   9.954 -1.0100 -0.5627  0.3211
 8757TIP3    H150466   6.515   6.598   9.950  0.4260 -1.9202  2.5572
 8757TIP3    H250467   6.660   6.638   9.931 -0.6110  0.8144 -0.3711
 8758TIP3   OH250468   4.207   2.080   0.882 -0.3885 -0.2332 -0.6431
 8758TIP3    H150469   4.152   2.149   0.919  1.9093  0.4477  1.8561
 8758TIP3    H250470   4.274   2.126   0.832  0.3742 -0.6887 -0.0771
 8759TIP3   OH250471   2.256   2.390   1.218 -0.6712  0.3896  0.3029
 8759TIP3    H150472   2.310   2.369   1.295 -0.6233 -0.9950 -0.0954
 8759TIP3    H250473   2.319   2.394   1.146 -1.0981 -1.4671 -0.2082
 8760TIP3   OH250474   4.088   1.975   7.720 -0.1101 -0.4910  0.3182
 8760TIP3    H150475   4.109   2.057   7.764 -2.5634  0.5887 -0.3409
 8760TIP3    H250476   4.167   1.954   7.669  1.7302 -0.2875  2.8871
 8761TIP3   OH250477   6.007   2.442   9.545  0.4975  0.5512  0.8717
 8761TIP3    H150478   6.054   2.525   9.556  0.6845  0.4482  0.8441
 8761TIP3    H250479   5.914   2.467   9.548  0.5042  1.1038 -1.6658
 8762TIP3   OH250480   7.377   4.509   0.079  0.3711 -0.1332 -0.5927
 8762TIP3    H150481   7.375   4.466  -0.007 -0.9976  1.6567 -1.5314
 8762TIP3    H250482   7.423   4.592   0.062 -1.5535  1.0867 -0.0686
 8763TIP3   OH250483   4.331   4.698   9.515  0.6162 -0.7115 -0.2992
 8763TIP3    H150484   4.369   4.625   9.564 -0.1137 -0.9543 -0.0910
 8763TIP3    H250485   4.311   4.661   9.429 -1.0250 -1.1479  0.2406
 8764TIP3   OH250486   6.217   6.383   0.942  0.1882  0.0465 -0.4450
 8764TIP3    H150487   6.140   6.427   0.976  0.6165  0.2117  0.3292
 8764TIP3    H250488   6.282   6.453   0.929  0.8509 -0.3214  0.7372
 8765TIP3   OH250489   2.451   7.001   0.615  0.0207 -0.0482  0.5016
 8765TIP3    H150490   2.443   7.057   0.693  0.2580 -0.2821  0.6964
 8765TIP3    H250491   2.447   6.912   0.650  1.1029 -0.1626  0.3600
 8766TIP3   OH250492   3.429   2.348   9.607 -0.2258 -0.2826  0.2359
 8766TIP3    H150493   3.362   2.413   9.585  0.3488  0.1578 -0.2477
 8766TIP3    H250494   3.467   2.379   9.689  0.4554  0.3426 -0.2939
 8767TIP3   OH250495   1.109   0.260   8.469  0.1050 -0.3417  0.5907
 8767TIP3    H150496   1.192   0.307   8.462 -0.0274 -0.2760 -1.0525
 8767TIP3    H250497   1.102   0.211   8.387 -1.8415  0.2755  0.3172
 8768TIP3   OH250498   0.520   6.859   0.481  0.4519 -0.2997  0.3655
 8768TIP3    H150499   0.601   6.907   0.496  0.8895 -0.3080 -1.6802
 8768TIP3    H250500   0.548   6.775   0.445 -0.4452 -0.2125 -0.6106
 8769TIP3   OH250501   0.770   0.084   9.612 -0.4382 -0.4105  0.1367
 8769TIP3    H150502   0.841   0.146   9.631 -1.6694  0.1170  3.7090
 8769TIP3    H250503   0.757   0.036   9.693 -1.1326 -3.8571 -1.8053
 8770TIP3   OH250504   2.363   4.320   2.280 -0.1917 -0.2285 -0.0545
 8770TIP3    H150505   2.445   4.352   2.241 -0.4266  0.0809 -0.3055
 8770TIP3    H250506   2.304   4.309   2.205 -0.5419  0.0495  0.1805
 8771TIP3   OH250507   1.178   1.661   1.219 -0.0110  0.0534 -0.2062
 8771TIP3    H150508   1.255   1.714   1.241 -0.5510  0.7617  0.0122
 8771TIP3    H250509   1.111   1.689   1.281 -1.8031  2.5738 -3.0085
 8772TIP3   OH250510   1.192   3.136   0.814  0.2305 -0.3026  0.5626
 8772TIP3    H150511   1.129   3.064   0.824  1.5329 -1.8660 -1.5133
 8772TIP3    H250512   1.156   3.189   0.742  0.2916 -0.0388  0.7247
 8773TIP3   OH250513   1.445   0.646   2.515  0.0859 -0.1219  0.0971
 8773TIP3    H150514   1.408   0.613   2.597  0.2135 -0.8306 -0.1197
 8773TIP3    H250515   1.369   0.659   2.458  0.1724 -2.6327 -0.7278
 8774TIP3   OH250516   2.921   4.376   0.359  0.2935  0.2812 -0.1572
 8774TIP3    H150517   3.010   4.357   0.388  0.5518 -0.2135 -1.2019
 8774TIP3    H250518   2.895   4.298   0.308  0.5736  1.7865 -2.7726
 8775TIP3   OH250519   2.068   4.640   7.250 -0.1274  0.1851  0.2597
 8775TIP3    H150520   2.015   4.674   7.178 -0.3610 -1.8150 -0.5776
 8775TIP3    H250521   2.010   4.581   7.297  0.3523  0.6371  1.4713
 8776TIP3   OH250522   6.443   4.020   9.738 -0.4217  0.2132 -0.3390
 8776TIP3    H150523   6.351   4.039   9.754 -0.4289  0.4925 -0.6931
 8776TIP3    H250524   6.445   3.927   9.715 -0.2913 -0.4776  2.1482
 8777TIP3   OH250525   3.135   2.486   0.143 -0.1454  0.2903 -0.0310
 8777TIP3    H150526   3.168   2.458   0.228  1.7525 -2.4732 -1.5154
 8777TIP3    H250527   3.206   2.537   0.105  0.1009 -0.6649 -0.9124
 8778TIP3   OH250528   1.000   7.583   8.563  0.1463 -0.5065 -0.4819
 8778TIP3    H150529   0.967   7.511   8.617 -2.9588  1.4786  0.4959
 8778TIP3    H250530   1.077   7.616   8.610 -0.2817 -1.1866  0.7333
 8779TIP3   OH250531   5.941   4.240   2.202  0.0999  0.1465  0.5946
 8779TIP3    H150532   5.881   4.166   2.193  0.8206 -0.2084 -3.0094
 8779TIP3    H250533   5.886   4.317   2.190  0.0951 -0.1161 -1.3097
 8780TIP3   OH250534   2.804   0.413   0.746 -0.1065  0.5219  0.1854
 8780TIP3    H150535   2.726   0.409   0.800  0.0633  0.0411  0.4037
 8780TIP3    H250536   2.772   0.428   0.657 -0.4320  0.5571  0.3112
 8781TIP3   OH250537   4.761   6.806   1.199 -0.0980  0.4358  0.4736
 8781TIP3    H150538   4.808   6.778   1.277 -0.4270  2.1757  1.3501
 8781TIP3    H250539   4.669   6.809   1.226 -0.6455 -1.7835 -0.8743
 8782TIP3   OH250540   6.947   3.301   8.294  0.6167 -0.2208  0.6696
 8782TIP3    H150541   7.016   3.367   8.295  0.7708 -0.3809  1.7387
 8782TIP3    H250542   6.986   3.226   8.248  0.3242  0.5205 -0.8468
 8783TIP3   OH250543   2.164   3.793   6.775  0.2724 -0.0247  0.3052
 8783TIP3    H150544   2.200   3.835   6.696 -1.2641  2.8892  1.0112
 8783TIP3    H250545   2.076   3.767   6.750  0.6988 -1.5960  0.3369
 8784TIP3   OH250546   6.790   1.363   9.062 -0.3187  0.1995 -0.1075
 8784TIP3    H150547   6.843   1.421   9.118 -0.3970 -0.6760  0.9068
 8784TIP3    H250548   6.852   1.295   9.035 -0.7312 -0.3954  0.4373
 8785TIP3   OH250549   3.870   4.293   8.392 -0.1960  0.0292  0.1165
 8785TIP3    H150550   3.833   4.320   8.476 -0.7016 -2.3092  0.7252
 8785TIP3    H250551   3.794   4.269   8.339  0.2016  0.0322 -0.4690
 8786TIP3   OH250552   1.012   4.737   2.815 -0.4727  0.4468 -0.3637
 8786TIP3    H150553   1.086   4.796   2.827 -1.1759  1.5806 -1.4072
 8786TIP3    H250554   0.993   4.706   2.904  0.7140  0.7794  0.0305
 8787TIP3   OH250555   6.640   3.817   9.287 -0.5261 -0.5379  0.2370
 8787TIP3    H150556   6.552   3.830   9.252  0.5581  1.1770 -2.0787
 8787TIP3    H250557   6.663   3.900   9.328 -0.2855 -1.2848  1.7023
 8788TIP3   OH250558   1.822   5.815   2.072 -0.4044 -0.4250 -0.3867
 8788TIP3    H150559   1.802   5.892   2.126  0.3982 -1.0158  0.8028
 8788TIP3    H250560   1.864   5.851   1.994 -0.6108  0.3879 -0.1330
 8789TIP3   OH250561   4.419   2.402   2.063  0.2129  0.1734 -0.0784
 8789TIP3    H150562   4.402   2.493   2.041 -0.7766 -0.2611 -1.2083
 8789TIP3    H250563   4.422   2.400   2.159 -1.5991  1.1029  0.0407
 8790TIP3   OH250564   3.273   1.194   9.872  0.6782  0.3636 -0.0918
 8790TIP3    H150565   3.254   1.165   9.783  0.6279  2.9456 -1.0005
 8790TIP3    H250566   3.368   1.205   9.874  0.9255 -1.4562  0.8306
 8791TIP3   OH250567   5.588   7.531   0.195 -0.0797 -0.5148  0.8305
 8791TIP3    H150568   5.574   7.452   0.143  0.7591 -0.3212  0.2934
 8791TIP3    H250569   5.501   7.569   0.204 -0.0710  0.4318 -2.0306
 8792TIP3   OH250570   7.615   1.559   8.544 -0.1637  0.2954 -0.4966
 8792TIP3    H150571   7.593   1.468   8.564 -1.4046  0.8938  1.0777
 8792TIP3    H250572   7.531   1.600   8.526  0.4712  0.9637 -2.0944
 8793TIP3   OH250573   2.403   6.033   7.102  0.2844  0.0379  0.1291
 8793TIP3    H150574   2.431   5.944   7.080  0.0033 -0.4542  1.6313
 8793TIP3    H250575   2.366   6.067   7.021 -2.3138 -2.2914  0.1580
 8794TIP3   OH250576   6.929   4.568   9.244  0.1577  0.0386 -0.6511
 8794TIP3    H150577   6.868   4.583   9.316  2.0582 -1.0810  1.3073
 8794TIP3    H250578   6.965   4.481   9.260  2.3595  0.6832 -1.6088
 8795TIP3   OH250579   6.149   3.175   9.194  0.0534  0.3302  0.1990
 8795TIP3    H150580   6.166   3.182   9.100 -0.6566 -0.4337  0.0058
 8795TIP3    H250581   6.211   3.237   9.234  2.2821 -1.2570 -0.5697
 8796TIP3   OH250582   1.353   1.268   0.121 -0.9881 -0.4660 -0.2818
 8796TIP3    H150583   1.402   1.189   0.101 -1.8831 -0.5698 -2.3512
 8796TIP3    H250584   1.328   1.259   0.213  1.9802 -0.8431  0.5773
 8797TIP3   OH250585   0.823   3.604   0.273  0.4315  0.0954  0.0796
 8797TIP3    H150586   0.900   3.658   0.288 -0.5941  1.2988  1.2789
 8797TIP3    H250587   0.789   3.632   0.188  0.1063  1.1517  0.5338
 8798TIP3   OH250588   2.195   7.547   2.160  0.0961  0.3004 -0.4074
 8798TIP3    H150589   2.175   7.634   2.126  1.6025  0.4027 -1.0921
 8798TIP3    H250590   2.265   7.514   2.104  0.6713 -0.6982  0.8469
 8799TIP3   OH250591   0.434   4.363   9.600  0.4509 -0.2539 -0.1071
 8799TIP3    H150592   0.467   4.446   9.635 -0.5360  0.0978  0.0472
 8799TIP3    H250593   0.469   4.360   9.511  0.1138  0.5852 -0.2868
 8800TIP3   OH250594   2.436   3.158   9.677 -0.4746  0.4280  0.0242
 8800TIP3    H150595   2.345   3.130   9.668 -0.0811 -0.8007 -0.4265
 8800TIP3    H250596   2.432   3.236   9.732 -1.7794  0.2937  0.1583
 8801TIP3   OH250597   2.585   5.873   8.845 -0.1809 -0.3120 -0.4242
 8801TIP3    H150598   2.529   5.818   8.790 -0.8118 -1.1969  1.0442
 8801TIP3    H250599   2.524   5.931   8.891  0.4675  1.7434 -1.9732
 8802TIP3   OH250600   1.424   6.753   1.635 -0.3779  0.4692  0.0755
 8802TIP3    H150601   1.514   6.765   1.606 -0.3401  0.1725  0.0680
 8802TIP3    H250602   1.393   6.678   1.586  0.1426 -0.9460  1.7977
 8803TIP3   OH250603   2.608   5.244   2.882  0.4354  0.1463  0.4189
 8803TIP3    H150604   2.608   5.334   2.847  0.5334 -0.1397 -0.3511
 8803TIP3    H250605   2.530   5.239   2.936 -0.1451  0.3831 -0.3803
 8804TIP3   OH250606   1.429   6.432   0.641 -0.5697  0.8173  0.3545
 8804TIP3    H150607   1.352   6.406   0.693 -0.1831 -1.4557 -0.0890
 8804TIP3    H250608   1.394   6.447   0.553 -0.4320 -1.1404 -0.0728
 8805TIP3   OH250609   4.690   0.485   9.664 -0.5047  0.3669 -0.7957
 8805TIP3    H150610   4.605   0.493   9.707  0.5098  0.2240  1.4097
 8805TIP3    H250611   4.742   0.431   9.724  1.4931  1.3975 -1.4918
 8806TIP3   OH250612   7.374   7.200   2.050  0.0192  0.3355  0.1262
 8806TIP3    H150613   7.292   7.173   2.009  0.1346  0.2592 -0.0566
 8806TIP3    H250614   7.364   7.295   2.062 -1.3315 -0.0863  2.9126
 8807TIP3   OH250615   7.079   2.016   2.344 -0.2279 -0.5704  0.5273
 8807TIP3    H150616   7.017   2.008   2.272 -0.1701  1.6237  0.1524
 8807TIP3    H250617   7.030   1.987   2.421 -0.9461 -1.0566 -0.0976
 8808TIP3   OH250618   1.235   6.972   8.738 -0.3678 -0.2888 -0.1014
 8808TIP3    H150619   1.282   6.992   8.819  1.1402 -0.5594 -0.8827
 8808TIP3    H250620   1.183   7.051   8.721  2.0703  1.2998 -0.7534
 8809TIP3   OH250621   0.749   2.132   1.955 -0.6082 -0.0522 -0.4172
 8809TIP3    H150622   0.724   2.057   2.009 -0.1577  0.1891  0.1344
 8809TIP3    H250623   0.795   2.093   1.880  0.9334 -0.2674  0.6006
 8810TIP3   OH250624   0.555   7.678   9.458  0.1373  0.3407  0.3175
 8810TIP3    H150625   0.619   7.734   9.500 -0.2422  1.6191 -0.7452
 8810TIP3    H250626   0.556   7.598   9.510  0.5711  1.3773  1.9874
 8811TIP3   OH250627   2.082   1.536   8.501 -0.1493  0.1023 -0.0380
 8811TIP3    H150628   2.005   1.501   8.545  0.2629 -1.4885 -0.5194
 8811TIP3    H250629   2.081   1.495   8.414  2.7073 -2.2042  0.8904
 8812TIP3   OH250630   6.535   3.802   8.424 -0.0683 -0.0190 -0.6147
 8812TIP3    H150631   6.582   3.786   8.342  1.9111 -0.5268  0.5247
 8812TIP3    H250632   6.605   3.812   8.489 -1.5730 -0.5427  1.1713
 8813TIP3   OH250633   1.950   6.753   8.033 -0.0923 -0.0745  0.3009
 8813TIP3    H150634   1.884   6.761   8.102 -1.6371  0.5220 -1.1896
 8813TIP3    H250635   2.010   6.685   8.065 -0.2281  0.7995  2.6145
 8814TIP3   OH250636   5.202   5.871   0.959  0.1855  0.5261  0.0964
 8814TIP3    H150637   5.214   5.865   0.864 -2.0117  2.7546 -0.4365
 8814TIP3    H250638   5.260   5.942   0.985  0.1578  0.4876  0.2590
 8815TIP3   OH250639   5.006   5.857   1.681  0.1580  0.1782  0.3121
 8815TIP3    H150640   4.999   5.863   1.776 -0.8418  0.5167  0.2286
 8815TIP3    H250641   5.089   5.899   1.660 -0.8926  2.6670  0.8142
 8816TIP3   OH250642   3.262   1.075   2.574 -0.3821  0.0775  0.2003
 8816TIP3    H150643   3.213   1.125   2.638 -1.4407  0.6192 -0.9919
 8816TIP3    H250644   3.218   1.092   2.491 -0.1480 -2.0250 -0.4109
 8817TIP3   OH250645   1.577   0.561   0.169  0.0434 -0.3351 -0.0932
 8817TIP3    H150646   1.633   0.492   0.206 -0.7863 -2.3588 -2.3562
 8817TIP3    H250647   1.488   0.532   0.189 -0.3253  1.6700  1.4670
 8818TIP3   OH250648   5.912   2.998   0.415 -0.0959  0.1752 -0.0575
 8818TIP3    H150649   5.914   2.913   0.372 -0.8500  0.4251 -0.6116
 8818TIP3    H250650   6.003   3.016   0.438  0.3149 -0.0491 -1.4051
 8819TIP3   OH250651   1.766   5.698   3.183  0.1692  0.0586 -0.3767
 8819TIP3    H150652   1.685   5.683   3.232  0.4934  0.5269  0.3248
 8819TIP3    H250653   1.766   5.630   3.116 -0.4415 -0.4076  0.0808
 8820TIP3   OH250654   0.758   0.989   0.456  0.7181  0.1483 -0.0702
 8820TIP3    H150655   0.752   0.928   0.383  2.8048 -2.4165  1.7048
 8820TIP3    H250656   0.714   0.945   0.529  0.1696  1.8760  0.7127
 8821TIP3   OH250657   7.394   3.463   0.415  0.5551 -0.4785 -0.2303
 8821TIP3    H150658   7.461   3.515   0.369  0.3337 -0.6355 -0.7428
 8821TIP3    H250659   7.333   3.529   0.449  0.3257 -0.3840 -0.7995
 8822TIP3   OH250660   2.879   5.197   0.942  0.0810  0.7437 -0.4530
 8822TIP3    H150661   2.966   5.196   0.982  0.3656  1.6864 -1.0173
 8822TIP3    H250662   2.887   5.141   0.865 -0.0025  0.3111 -0.1560
 8823TIP3   OH250663   6.465   3.883   0.037  0.1316  0.0731 -0.2684
 8823TIP3    H150664   6.466   3.979   0.038 -2.4864  0.1787  1.1234
 8823TIP3    H250665   6.495   3.859  -0.050 -0.2410  2.2164 -1.0426
 8824TIP3   OH250666   5.518   4.747   8.498 -0.0022  0.8583 -0.0796
 8824TIP3    H150667   5.522   4.841   8.479  0.3774  0.9479  0.4422
 8824TIP3    H250668   5.605   4.725   8.531  0.0847  0.2084 -0.7008
 8825TIP3   OH250669   4.717   0.877   8.778 -0.2904 -0.1176  0.4423
 8825TIP3    H150670   4.804   0.873   8.738 -0.2743  0.7604  0.3659
 8825TIP3    H250671   4.729   0.926   8.859 -0.7151  0.0231  0.4242
 8826TIP3   OH250672   1.430   6.672   2.525 -0.2026  0.0070  0.0392
 8826TIP3    H150673   1.387   6.757   2.514  1.4868  0.9379  0.2891
 8826TIP3    H250674   1.512   6.680   2.476 -0.7413 -2.0863 -1.3263
 8827TIP3   OH250675   5.873   2.579   8.543 -0.0155  0.2169 -0.2978
 8827TIP3    H150676   5.837   2.643   8.605  1.0979  0.4318  0.1531
 8827TIP3    H250677   5.960   2.559   8.578 -0.8825 -2.6999  0.4111
 8828TIP3   OH250678   2.388   0.794   9.848 -0.6622  0.1249  0.0833
 8828TIP3    H150679   2.433   0.820   9.767 -2.0713  0.4776 -0.6377
 8828TIP3    H250680   2.435   0.717   9.878 -0.3031 -0.2179 -1.2645
 8829TIP3   OH250681   6.375   7.337   9.091  0.5210  0.4238  0.8395
 8829TIP3    H150682   6.328   7.262   9.055  1.0528  0.0799  0.8576
 8829TIP3    H250683   6.346   7.341   9.183  1.2133 -0.3506  1.1058
 8830TIP3   OH250684   4.507   2.417   9.025  0.3911  0.0941 -0.4959
 8830TIP3    H150685   4.546   2.427   9.111 -3.1266 -0.2110  1.3336
 8830TIP3    H250686   4.452   2.339   9.033 -1.0165  0.7832 -2.5851
 8831TIP3   OH250687   3.990   1.861   8.350  0.2546  0.2597  0.0681
 8831TIP3    H150688   4.012   1.811   8.272 -0.7369  1.9204 -1.3627
 8831TIP3    H250689   3.911   1.909   8.325  0.2854  1.3295  1.8820
 8832TIP3   OH250690   4.816   0.210   0.892  0.3721 -0.4640 -0.2176
 8832TIP3    H150691   4.850   0.136   0.943  0.8619 -0.3173 -0.3257
 8832TIP3    H250692   4.885   0.228   0.827  0.4114  0.2988  0.0212
 8833TIP3   OH250693   4.447   2.341   9.705  0.7307  0.1036  0.1462
 8833TIP3    H150694   4.455   2.305   9.617  0.0198  1.7592 -0.6465
 8833TIP3    H250695   4.502   2.419   9.705 -0.4614  0.9885  0.6485
 8834TIP3   OH250696   3.869   3.748   7.892 -0.1727 -0.1598 -0.1516
 8834TIP3    H150697   3.952   3.707   7.918  1.6868  3.4687  0.2630
 8834TIP3    H250698   3.811   3.734   7.967  1.2308  0.1033  1.0342
 8835TIP3   OH250699   6.927   7.345   7.499  0.6431 -0.3831 -0.5299
 8835TIP3    H150700   6.990   7.323   7.430  0.8683 -2.5033  0.2951
 8835TIP3    H250701   6.972   7.410   7.553  1.7224 -1.1078 -0.5409
 8836TIP3   OH250702   5.975   1.210   0.452 -0.2626 -0.1156 -0.8378
 8836TIP3    H150703   5.977   1.283   0.514 -2.2447  0.6467 -1.5737
 8836TIP3    H250704   6.064   1.204   0.418  0.2341  1.1358  0.1789
 8837TIP3   OH250705   4.952   4.101   0.263 -0.2097  0.0545  0.0506
 8837TIP3    H150706   4.936   4.180   0.315 -0.4327  0.3036 -0.3875
 8837TIP3    H250707   5.027   4.059   0.306  0.0895  0.6523  0.1311
 8838TIP3   OH250708   3.320   7.524   8.131  0.2251 -0.0887 -0.3613
 8838TIP3    H150709   3.292   7.584   8.063 -1.0293 -0.7534 -0.4703
 8838TIP3    H250710   3.241   7.509   8.184  0.8609 -0.5499  0.4913
 8839TIP3   OH250711   5.252   7.515   9.938 -0.1802 -0.1252  0.4229
 8839TIP3    H150712   5.341   7.533   9.909 -0.5715  1.6621  0.2084
 8839TIP3    H250713   5.200   7.518   9.858 -0.4800 -0.8873  0.5833
 8840TIP3   OH250714   2.106   5.543   0.988  0.3292  0.4477  0.5825
 8840TIP3    H150715   2.155   5.584   0.917  0.6610  2.8548  2.0914
 8840TIP3    H250716   2.172   5.496   1.039 -0.0885 -2.5131 -1.3064
 8841TIP3   OH250717   6.754   4.388   0.304 -0.0275 -0.6356 -0.4362
 8841TIP3    H150718   6.784   4.408   0.215 -0.5215  0.7671 -0.3138
 8841TIP3    H250719   6.673   4.438   0.314  1.4642  1.6106  1.7632
 8842TIP3   OH250720   4.738   0.727   9.066  0.0351  0.0772  0.2758
 8842TIP3    H150721   4.676   0.667   9.025 -0.6870  0.7363  0.3787
 8842TIP3    H250722   4.683   0.797   9.102  0.6290 -0.4203  2.2788
 8843TIP3   OH250723   0.155   7.462   1.014 -0.1470  0.3841 -0.3368
 8843TIP3    H150724   0.178   7.373   0.985  1.6654  0.7192 -0.0438
 8843TIP3    H250725   0.200   7.472   1.098 -3.0870  0.4239  1.3511
 8844TIP3   OH250726   3.709   3.456   1.623  0.0669 -0.1944  0.2342
 8844TIP3    H150727   3.712   3.461   1.527  0.8340 -0.4878  0.2374
 8844TIP3    H250728   3.616   3.464   1.644  0.0724  2.3745 -0.3921
 8845TIP3   OH250729   7.536   7.485   1.514 -0.3956 -0.4679  0.0311
 8845TIP3    H150730   7.479   7.540   1.568 -2.4548 -2.0635 -0.3821
 8845TIP3    H250731   7.478   7.418   1.478  1.6733 -1.9041 -0.8643
 8846TIP3   OH250732   5.321   0.281   1.823 -0.0168  1.0665 -0.7645
 8846TIP3    H150733   5.243   0.318   1.781 -1.4693 -1.5344 -0.5421
 8846TIP3    H250734   5.314   0.308   1.914 -0.6682  0.8695 -0.7484
 8847TIP3   OH250735   0.128   3.777   1.044 -0.1682  0.6055  0.1008
 8847TIP3    H150736   0.188   3.771   1.118 -1.4034 -0.3197  1.0686
 8847TIP3    H250737   0.055   3.829   1.076 -0.1418  1.3204 -0.9196
 8848TIP3   OH250738   2.372   5.102   8.206 -0.5534  0.6317  0.6285
 8848TIP3    H150739   2.446   5.095   8.266 -0.8684  0.4692  1.0033
 8848TIP3    H250740   2.362   5.015   8.169 -2.2409 -0.1008  2.6168
 8849TIP3   OH250741   1.099   0.567   0.427 -0.1082 -0.4651  0.7043
 8849TIP3    H150742   1.033   0.557   0.495  0.3893 -0.8048  1.1367
 8849TIP3    H250743   1.154   0.640   0.457 -1.0376  0.7050 -0.2766
 8850TIP3   OH250744   2.831   6.435   2.232 -0.5970  0.4595 -0.2913
 8850TIP3    H150745   2.800   6.345   2.218 -1.3176  0.7677 -0.7511
 8850TIP3    H250746   2.839   6.442   2.327  0.3790 -0.3791 -0.2972
 8851TIP3   OH250747   7.211   6.975   7.455  0.2269 -0.1400 -0.5436
 8851TIP3    H150748   7.251   6.911   7.514  0.9911  1.8413  1.1857
 8851TIP3    H250749   7.123   6.941   7.440  0.2200 -1.0292  1.2796
 8852TIP3   OH250750   0.317   0.954   7.167  0.3848 -0.8061  0.6468
 8852TIP3    H150751   0.396   0.914   7.205  1.0098 -1.0856 -0.8825
 8852TIP3    H250752   0.328   0.945   7.073 -0.3010  1.3917  0.2939
 8853TIP3   OH250753   4.497   0.231   1.962  0.4591 -0.4403  0.3347
 8853TIP3    H150754   4.423   0.187   1.919  0.6198  1.6167 -2.2491
 8853TIP3    H250755   4.470   0.237   2.054 -3.0605  0.9662 -0.6091
 8854TIP3   OH250756   0.145   1.961   0.283 -0.6040  0.2888  0.4382
 8854TIP3    H150757   0.212   1.968   0.351  1.6465 -1.3394 -1.4274
 8854TIP3    H250758   0.079   2.026   0.307  0.5109  0.4219  3.6215
 8855TIP3   OH250759   6.889   3.942   9.547  0.2726  0.2516 -0.2457
 8855TIP3    H150760   6.820   3.876   9.551  2.0606 -1.8298 -1.4539
 8855TIP3    H250761   6.892   3.968   9.455  2.1918 -1.0330 -0.6065
 8856TIP3   OH250762   0.224   3.785   9.981  0.0178 -0.1716 -0.1629
 8856TIP3    H150763   0.289   3.827   9.924  1.2356  0.5231  1.6550
 8856TIP3    H250764   0.229   3.692   9.957  1.4771 -0.0938 -0.2887
 8857TIP3   OH250765   0.985   2.825   1.678  0.7603  0.3443  0.2447
 8857TIP3    H150766   1.043   2.779   1.739  0.6029 -1.3813 -0.8376
 8857TIP3    H250767   1.044   2.862   1.612  0.8751  1.6677  1.0428
 8858TIP3   OH250768   7.633   6.747   7.519  0.0804  0.2192 -0.0185
 8858TIP3    H150769   7.554   6.740   7.574  0.9257 -1.5254  1.0605
 8858TIP3    H250770   7.683   6.669   7.540  1.4368  0.5652 -1.7788
 8859TIP3   OH250771   3.839   5.591   9.251  0.0665  0.9579  0.0372
 8859TIP3    H150772   3.800   5.504   9.243  2.7331 -0.1896 -2.2448
 8859TIP3    H250773   3.811   5.622   9.337 -0.8348 -2.2300  1.0380
 8860TIP3   OH250774   3.366   4.728   9.503 -0.2073 -0.6903  0.1211
 8860TIP3    H150775   3.440   4.703   9.448 -1.4680 -3.5374 -0.4457
 8860TIP3    H250776   3.289   4.710   9.450 -1.3963 -0.4108  1.6615
 8861TIP3   OH250777   4.297   6.131   1.261 -0.0993  0.7877 -0.3679
 8861TIP3    H150778   4.366   6.180   1.307 -0.4805 -1.5161  3.0124
 8861TIP3    H250779   4.216   6.177   1.282 -0.1766  0.2345  0.5769
 8862TIP3   OH250780   3.958   2.822   1.832  0.3526 -0.7071 -0.1217
 8862TIP3    H150781   4.030   2.779   1.877  0.8540 -0.6155 -0.8255
 8862TIP3    H250782   3.974   2.916   1.846 -1.0116 -0.7057  1.8395
 8863TIP3   OH250783   6.177   1.874   0.823 -0.2179 -0.6122  0.2830
 8863TIP3    H150784   6.256   1.921   0.797  0.5078 -1.2637  1.2419
 8863TIP3    H250785   6.208   1.806   0.883 -1.7425  0.7239  2.7505
 8864TIP3   OH250786   0.856   6.319   0.421  0.0900  0.1891  0.0978
 8864TIP3    H150787   0.782   6.259   0.415  1.8274 -2.4872  2.5673
 8864TIP3    H250788   0.852   6.353   0.511  2.3059 -0.8208  0.6558
 8865TIP3   OH250789   4.703   2.888   0.367  0.0508 -0.1985  0.0566
 8865TIP3    H150790   4.634   2.954   0.367  0.1354 -0.0318 -2.2431
 8865TIP3    H250791   4.744   2.896   0.281  1.8967 -1.3923  0.7600
 8866TIP3   OH250792   7.268   3.540   0.960 -0.3101  0.2802 -0.0921
 8866TIP3    H150793   7.209   3.579   1.025  0.4342  0.9091  0.2240
 8866TIP3    H250794   7.328   3.611   0.937  0.1457 -0.2691 -0.6215
 8867TIP3   OH250795   6.126   6.136   9.078 -0.0117  0.4818 -0.4568
 8867TIP3    H150796   6.088   6.220   9.105  0.5140  0.8405 -0.8012
 8867TIP3    H250797   6.056   6.091   9.032 -0.9322 -0.1364  1.4479
 8868TIP3   OH250798   0.715   5.142   7.388 -0.3288  0.0730 -0.6936
 8868TIP3    H150799   0.631   5.121   7.428 -1.0767  1.8567 -1.2313
 8868TIP3    H250800   0.775   5.151   7.461 -0.7871 -0.4327 -0.2465
 8869TIP3   OH250801   7.567   1.256   8.534  0.6133 -0.0432 -0.3300
 8869TIP3    H150802   7.597   1.254   8.625  0.6826  0.6713 -0.3323
 8869TIP3    H250803   7.575   1.165   8.504  2.4057  0.0392 -0.2184
 8870TIP3   OH250804   4.402   6.443   0.357  0.3433 -0.0676  0.0066
 8870TIP3    H150805   4.479   6.488   0.392  0.0644  0.4806 -0.0704
 8870TIP3    H250806   4.333   6.460   0.422  0.2414 -0.4187 -0.0066
 8871TIP3   OH250807   5.782   7.385   0.813 -0.0148 -0.1701  0.4198
 8871TIP3    H150808   5.845   7.401   0.883  0.5439 -0.8262  0.0826
 8871TIP3    H250809   5.696   7.388   0.856  0.2629  0.4071  0.9428
 8872TIP3   OH250810   3.645   2.882   9.286  0.1085  0.0392 -0.0488
 8872TIP3    H150811   3.625   2.912   9.374 -0.4231  0.1532 -0.2038
 8872TIP3    H250812   3.688   2.797   9.298  1.4092  0.7381  0.3790
 8873TIP3   OH250813   0.296   1.978   0.537 -0.9588  0.1451  0.0429
 8873TIP3    H150814   0.244   2.041   0.587 -0.1304  1.0252 -0.1612
 8873TIP3    H250815   0.336   1.921   0.603  0.1694  1.3266  0.4324
 8874TIP3   OH250816   4.912   5.483   8.806  0.5202  0.3049  0.7638
 8874TIP3    H150817   4.869   5.496   8.890 -0.6920  2.4801 -0.1138
 8874TIP3    H250818   5.003   5.507   8.822  0.1826  1.2483  1.3306
 8875TIP3   OH250819   3.534   1.426   0.249 -0.1743 -0.1735  0.1504
 8875TIP3    H150820   3.551   1.335   0.225  0.6870 -0.0911  0.4051
 8875TIP3    H250821   3.511   1.469   0.166 -1.6399 -0.8403  0.1975
 8876TIP3   OH250822   1.844   0.418   9.664 -0.1158 -0.3565  0.4702
 8876TIP3    H150823   1.890   0.336   9.682  1.1766  0.8217  3.0495
 8876TIP3    H250824   1.756   0.404   9.698 -0.1359 -0.9361  0.1869
 8877TIP3   OH250825   4.332   5.421   8.033 -0.2431  0.2368  0.4640
 8877TIP3    H150826   4.247   5.402   8.073 -0.6362 -1.2075 -0.9138
 8877TIP3    H250827   4.380   5.338   8.041  0.0006  0.1903 -1.1372
 8878TIP3   OH250828   1.370   5.303   8.513  0.4411 -0.3438  0.2625
 8878TIP3    H150829   1.357   5.325   8.605  0.0583  2.3094 -0.3482
 8878TIP3    H250830   1.465   5.300   8.503  0.4853 -1.4943  0.8962
 8879TIP3   OH250831   7.110   5.599   7.385  0.0423  0.1772  0.0950
 8879TIP3    H150832   7.055   5.645   7.321  0.7968 -1.2382 -1.6690
 8879TIP3    H250833   7.194   5.587   7.340  0.4672 -1.2162  1.1907
 8880TIP3   OH250834   6.358   7.554   8.796 -0.1932  0.2473  0.3054
 8880TIP3    H150835   6.399   7.468   8.802 -1.0745 -0.1781  0.3670
 8880TIP3    H250836   6.395   7.603   8.870  0.8293  0.1648 -0.1312
 8881TIP3   OH250837   6.148   1.923   1.132 -0.6794 -0.0811 -0.6484
 8881TIP3    H150838   6.119   1.886   1.215 -0.0633 -0.2548 -0.5071
 8881TIP3    H250839   6.234   1.883   1.116 -0.5581  0.3486 -1.1056
 8882TIP3   OH250840   4.599   0.137   0.382  0.0409  0.3313  0.1900
 8882TIP3    H150841   4.619   0.160   0.472  2.4069 -1.3141  0.1643
 8882TIP3    H250842   4.503   0.128   0.380  0.0473 -1.4641  3.0409
 8883TIP3   OH250843   5.645   1.069   9.734  0.0139 -0.2014  0.4679
 8883TIP3    H150844   5.652   1.101   9.823  1.2674  0.6508  0.0783
 8883TIP3    H250845   5.681   1.139   9.679 -1.3738 -0.3989 -0.7812
 8884TIP3   OH250846   4.112   7.322   9.202  0.5596  0.1144 -0.0143
 8884TIP3    H150847   4.053   7.391   9.233  0.9468  0.8412 -0.8591
 8884TIP3    H250848   4.095   7.317   9.108  1.5811  0.0808 -0.2086
 8885TIP3   OH250849   6.679   1.312   9.713 -0.0807  0.2040 -0.5601
 8885TIP3    H150850   6.652   1.330   9.623  1.5953  0.7148 -1.0127
 8885TIP3    H250851   6.766   1.273   9.704  0.1174  0.2669  0.8323
 8886TIP3   OH250852   1.993   1.023   7.144 -0.0639 -0.4602  0.2200
 8886TIP3    H150853   2.008   0.963   7.071 -1.4605  0.7316 -1.1258
 8886TIP3    H250854   1.901   1.049   7.135  0.1591  0.9056  1.4808
 8887TIP3   OH250855   2.022   4.115   7.337 -0.2736 -0.2378 -0.5097
 8887TIP3    H150856   2.060   4.032   7.366 -1.3989 -0.8788 -0.8047
 8887TIP3    H250857   1.927   4.103   7.347 -0.4504  1.0875 -0.3753
 8888TIP3   OH250858   3.687   4.007   8.911 -0.3722  0.0223 -0.6952
 8888TIP3    H150859   3.605   4.055   8.903 -0.5541  0.1603  1.4356
 8888TIP3    H250860   3.751   4.061   8.864 -1.0700  1.0653 -0.4699
 8889TIP3   OH250861   3.710   2.569   0.649  0.5025  0.0956  0.4236
 8889TIP3    H150862   3.683   2.479   0.668  0.6310  0.0532  0.4076
 8889TIP3    H250863   3.683   2.583   0.558  0.3122  0.1382  0.4867
 8890TIP3   OH250864   2.754   1.804   9.806 -0.3790  0.2263 -0.4246
 8890TIP3    H150865   2.825   1.864   9.828 -0.1269 -0.1404 -0.2164
 8890TIP3    H250866   2.723   1.834   9.720  0.0416  0.3790 -0.5264
 8891TIP3   OH250867   3.672   0.606   2.380 -0.4076  0.2305 -0.5594
 8891TIP3    H150868   3.664   0.690   2.426  0.4216 -0.7708  1.5558
 8891TIP3    H250869   3.756   0.612   2.336 -0.2950  0.4791 -0.3204
 8892TIP3   OH250870   2.323   7.217   0.757 -0.4605  0.4733 -0.8110
 8892TIP3    H150871   2.244   7.174   0.724 -1.7735  2.4913 -0.4534
 8892TIP3    H250872   2.325   7.195   0.850  0.2183 -0.7143 -1.0785
 8893TIP3   OH250873   1.430   5.553   9.461  0.5295  0.2687  0.1372
 8893TIP3    H150874   1.508   5.541   9.514 -0.0493 -1.3841  0.6839
 8893TIP3    H250875   1.358   5.525   9.517 -0.3969  1.1746 -0.5607
 8894TIP3   OH250876   2.886   1.672   7.305 -0.2065 -0.2273  0.0544
 8894TIP3    H150877   2.851   1.601   7.251  0.2047  0.4632 -1.1569
 8894TIP3    H250878   2.971   1.640   7.334 -0.0620 -0.2682 -0.4087
 8895TIP3   OH250879   1.945   4.961   8.388  0.5229  0.6769  0.3567
 8895TIP3    H150880   1.882   5.034   8.390  1.0499  1.1520  0.1328
 8895TIP3    H250881   2.031   5.004   8.389  0.8458  0.1057 -0.9388
 8896TIP3   OH250882   1.455   0.759   9.145  0.0057 -0.0834 -0.0446
 8896TIP3    H150883   1.506   0.821   9.095 -0.7346 -0.1817 -0.9460
 8896TIP3    H250884   1.365   0.793   9.142 -0.5356 -1.5114 -1.1217
 8897TIP3   OH250885   0.910   7.165   1.611 -0.2817  0.2161 -0.1315
 8897TIP3    H150886   0.920   7.181   1.518 -0.7589  1.7996  0.0608
 8897TIP3    H250887   0.921   7.251   1.652 -2.1690 -0.0634  1.0966
 8898TIP3   OH250888   4.534   0.595   8.935 -0.4453  0.2423  0.1138
 8898TIP3    H150889   4.448   0.566   8.906  0.4960 -1.3121 -1.3383
 8898TIP3    H250890   4.586   0.599   8.854  0.7453  1.5777  0.8966
 8899TIP3   OH250891   0.134   7.120   0.533  0.2333 -0.0370  0.3788
 8899TIP3    H150892   0.206   7.183   0.532  0.0087  0.2259 -0.6027
 8899TIP3    H250893   0.172   7.042   0.574  0.8837  0.3129  0.4685
 8900TIP3   OH250894   6.597   4.578   1.037  0.3600 -0.5080  0.1868
 8900TIP3    H150895   6.586   4.521   0.961  0.1170  0.9690 -0.9295
 8900TIP3    H250896   6.654   4.648   1.006 -1.0831  1.0166  0.8364
 8901TIP3   OH250897   5.880   1.162   9.109 -0.2353  0.5651 -0.4390
 8901TIP3    H150898   5.883   1.257   9.093  2.0721  0.7032  0.5590
 8901TIP3    H250899   5.892   1.153   9.203 -1.3735 -0.7182 -0.3924
 8902TIP3   OH250900   0.126   3.494   0.171  1.0451 -0.4573  0.3176
 8902TIP3    H150901   0.095   3.408   0.143  1.0658 -0.0765 -0.9188
 8902TIP3    H250902   0.218   3.497   0.145  0.9454  0.0787  0.0087
 8903TIP3   OH250903   5.200   7.382   1.003 -0.3091  0.5994 -0.5585
 8903TIP3    H150904   5.248   7.460   0.975  0.6729  0.3877  0.4462
 8903TIP3    H250905   5.222   7.373   1.095 -1.4913 -0.1090 -0.3379
 8904TIP3   OH250906   1.111   1.081   0.797  0.2414 -0.3720 -0.1501
 8904TIP3    H150907   1.154   1.115   0.875  0.8595  1.0365 -1.0774
 8904TIP3    H250908   1.035   1.034   0.831  0.3359  0.4484  1.2857
 8905TIP3   OH250909   5.733   1.544   9.694 -0.3033 -0.7295  0.0280
 8905TIP3    H150910   5.660   1.557   9.633  0.7063 -3.4139 -1.9437
 8905TIP3    H250911   5.795   1.614   9.673 -1.2945  0.2141  0.1652
 8906TIP3   OH250912   3.335   7.224   7.728  0.8105  0.0538 -0.3511
 8906TIP3    H150913   3.411   7.190   7.774 -1.0595 -1.5645  1.8236
 8906TIP3    H250914   3.313   7.157   7.664 -0.6518 -1.2020  1.3455
 8907TIP3   OH250915   1.448   7.398   3.182 -0.2387 -0.1101 -0.2142
 8907TIP3    H150916   1.404   7.476   3.217  0.0334  0.8372 -1.8757
 8907TIP3    H250917   1.377   7.340   3.156 -0.4760 -1.3304  2.7421
 8908TIP3   OH250918   0.803   6.486   0.953 -0.1492 -0.1539 -0.2344
 8908TIP3    H150919   0.826   6.468   1.045 -1.0354 -1.9859 -0.3358
 8908TIP3    H250920   0.780   6.579   0.953  2.1311  0.5036  0.8894
 8909TIP3   OH250921   0.607   0.005   1.095 -0.2755 -0.2428  0.2573
 8909TIP3    H150922   0.598  -0.089   1.084 -0.1358 -0.3633  1.0563
 8909TIP3    H250923   0.668   0.032   1.027 -1.2719 -0.5174 -0.7887
 8910TIP3   OH250924   4.342   0.527   9.507  0.2574 -0.6392  0.0595
 8910TIP3    H150925   4.415   0.550   9.450 -0.8033  0.1157 -1.0475
 8910TIP3    H250926   4.306   0.610   9.536 -1.0007 -0.9334 -0.5496
 8911TIP3   OH250927   4.440   0.541   2.522 -0.7562 -0.3139 -0.0355
 8911TIP3    H150928   4.483   0.457   2.504 -1.0355 -0.8207  1.5177
 8911TIP3    H250929   4.363   0.541   2.465  0.0413 -0.4356 -1.1322
 8912TIP3   OH250930   0.271   6.235   0.677 -0.8393  0.3906  0.5185
 8912TIP3    H150931   0.227   6.185   0.745 -1.0015 -2.8533 -1.7422
 8912TIP3    H250932   0.216   6.225   0.599  1.9157 -0.7216 -1.4642
 8913TIP3   OH250933   5.133   0.933   7.344  0.7704  0.0239  0.2312
 8913TIP3    H150934   5.141   0.893   7.431 -0.6370  0.4293  0.5780
 8913TIP3    H250935   5.086   1.015   7.360 -1.0709 -0.6941 -1.0948
 8914TIP3   OH250936   4.466   4.156   1.524 -0.3633 -0.3163  0.4152
 8914TIP3    H150937   4.465   4.106   1.442 -0.9430  1.9095 -1.0073
 8914TIP3    H250938   4.384   4.132   1.568 -0.5876 -0.6890 -0.1997
 8915TIP3   OH250939   0.530   5.968   8.198  0.0476 -0.2570 -0.1451
 8915TIP3    H150940   0.445   5.937   8.228 -0.3135  0.6353 -0.2080
 8915TIP3    H250941   0.515   5.993   8.107  0.7737 -1.5632 -0.6516
 8916TIP3   OH250942   0.326   4.652   9.320  0.3871 -0.5407  0.1907
 8916TIP3    H150943   0.420   4.652   9.336  0.4408 -0.8212 -0.1211
 8916TIP3    H250944   0.314   4.591   9.248  0.2599  1.2898 -1.4270
 8917TIP3   OH250945   4.099   4.685   8.412  0.3400 -0.4014 -0.2373
 8917TIP3    H150946   4.164   4.656   8.476  0.3313  0.6910  0.2911
 8917TIP3    H250947   4.151   4.709   8.335  0.7420  1.6792  0.6160
 8918TIP3   OH250948   3.292   2.194   1.365  0.3332 -0.1364 -0.0284
 8918TIP3    H150949   3.387   2.189   1.361  0.2975 -0.5060 -0.5508
 8918TIP3    H250950   3.268   2.251   1.292  0.1250 -0.5112 -0.2593
 8919TIP3   OH250951   4.286   1.930   9.536  0.0044  0.5945  0.0292
 8919TIP3    H150952   4.209   1.982   9.558  0.0569  0.2122  1.1546
 8919TIP3    H250953   4.265   1.892   9.450 -0.7179  1.1248 -0.0402
 8920TIP3   OH250954   3.578   2.250   1.625 -0.1562  0.0209  0.5261
 8920TIP3    H150955   3.632   2.172   1.614  1.2536  0.9107  0.8546
 8920TIP3    H250956   3.583   2.294   1.540 -0.4209  0.0803  0.5400
 8921TIP3   OH250957   6.743   0.986   1.575 -0.5049 -0.0243 -0.2962
 8921TIP3    H150958   6.808   0.917   1.558 -0.4799 -0.1696  0.3791
 8921TIP3    H250959   6.668   0.961   1.521 -1.1909 -1.5955  1.2783
 8922TIP3   OH250960   1.366   0.903   1.035 -0.5061  0.5608 -0.5025
 8922TIP3    H150961   1.446   0.856   1.060 -0.6098 -0.2123 -1.5677
 8922TIP3    H250962   1.346   0.958   1.111 -1.1886 -2.1495  1.4242
 8923TIP3   OH250963   2.106   5.860   2.057  0.5616  0.1949  0.0585
 8923TIP3    H150964   2.193   5.820   2.054  0.8566  0.6566  1.3560
 8923TIP3    H250965   2.045   5.787   2.053  1.0157 -0.1483 -0.6741
 8924TIP3   OH250966   2.981   7.051   2.114  0.6104 -0.2340 -0.0314
 8924TIP3    H150967   3.076   7.051   2.129  0.6424 -0.6713 -0.2024
 8924TIP3    H250968   2.958   7.143   2.107  1.5085 -0.1156 -2.8479
 8925TIP3   OH250969   4.698   6.021   1.251 -0.4862  0.0457  0.3454
 8925TIP3    H150970   4.769   5.981   1.301 -1.5120 -2.6105 -0.1798
 8925TIP3    H250971   4.693   6.110   1.286  2.0639 -0.1424  1.4501
 8926TIP3   OH250972   6.207   2.547   8.622  0.2944  0.7896  0.0270
 8926TIP3    H150973   6.204   2.473   8.562  2.3846 -0.6169  1.4975
 8926TIP3    H250974   6.280   2.601   8.591  0.6653  0.6511  0.6421
 8927TIP3   OH250975   3.473   4.967   0.015  0.3388 -0.2501  0.0540
 8927TIP3    H150976   3.480   5.015  -0.067  0.1490  0.8970  0.6727
 8927TIP3    H250977   3.408   4.899  -0.001  0.6632 -0.3437 -0.8756
 8928TIP3   OH250978   5.289   1.185   0.140 -0.0124 -0.8961 -0.1636
 8928TIP3    H150979   5.245   1.126   0.079 -0.5292 -0.1648 -0.5085
 8928TIP3    H250980   5.308   1.131   0.217 -2.0526 -1.1070  0.2435
 8929TIP3   OH250981   0.787   6.950   0.583 -0.1067  0.2089 -0.0618
 8929TIP3    H150982   0.783   6.857   0.561 -1.1019  0.2329 -0.0181
 8929TIP3    H250983   0.850   6.986   0.520 -0.9103 -0.2068 -1.1295
 8930TIP3   OH250984   1.757   0.741   1.685  0.0538  0.1021  0.0686
 8930TIP3    H150985   1.784   0.655   1.653 -0.3674 -0.4031  1.0460
 8930TIP3    H250986   1.803   0.751   1.768 -0.9360  0.2399  0.6049
 8931TIP3   OH250987   2.595   1.648   6.842 -0.7969  0.1509  0.4755
 8931TIP3    H150988   2.648   1.673   6.767 -1.2879  1.2664  0.4917
 8931TIP3    H250989   2.658   1.611   6.904  0.3251  3.1104  1.2518
 8932TIP3   OH250990   6.335   0.645   8.199 -0.3559 -0.6786  0.0793
 8932TIP3    H150991   6.303   0.555   8.205  0.3408 -0.9194  0.2525
 8932TIP3    H250992   6.334   0.665   8.105  0.9088 -1.3978 -0.0990
 8933TIP3   OH250993   4.580   4.085   1.912  0.3604 -0.0833 -0.7185
 8933TIP3    H150994   4.551   4.088   2.003  0.0845 -0.0368 -0.8058
 8933TIP3    H250995   4.675   4.094   1.916  0.2735  0.7229 -0.4833
 8934TIP3   OH250996   2.957   2.468   7.372  0.1577  0.1738 -0.1112
 8934TIP3    H150997   2.939   2.395   7.313 -0.4886  0.8146 -0.7217
 8934TIP3    H250998   2.893   2.535   7.348  0.8293  0.9983  0.3361
 8935TIP3   OH250999   3.024   4.299   2.555  0.0814 -0.0271 -0.7727
 8935TIP3    H151000   3.074   4.354   2.495  1.0902  1.8930  1.6805
 8935TIP3    H251001   2.943   4.347   2.570 -0.1212 -0.4384 -0.5392
 8936TIP3   OH251002   3.135   5.020   9.335 -0.1537  0.1148 -0.1640
 8936TIP3    H151003   3.118   4.939   9.288 -1.7252  0.0067  0.5413
 8936TIP3    H251004   3.176   5.077   9.271  2.1001 -1.6012 -0.3684
 8937TIP3   OH251005   4.321   3.519   0.690  1.1414 -0.3107 -0.0035
 8937TIP3    H151006   4.302   3.511   0.597  0.5730  0.0435  0.0780
 8937TIP3    H251007   4.381   3.446   0.709  1.4706 -0.2239 -0.6958
 8938TIP3   OH251008   0.301   2.633   1.504 -0.0217 -0.1253 -0.1339
 8938TIP3    H151009   0.277   2.723   1.527  0.2236 -0.2399  0.6053
 8938TIP3    H251010   0.396   2.635   1.495 -0.0620 -0.2070 -0.6212
 8939TIP3   OH251011   5.598   1.958   9.840  0.3324  0.2379 -0.2416
 8939TIP3    H151012   5.588   2.001   9.925  0.1863  3.0339 -1.5506
 8939TIP3    H251013   5.682   1.988   9.808  1.0330 -1.9190 -0.5580
 8940TIP3   OH251014   3.297   5.369   0.443 -0.6649  0.0176  0.1381
 8940TIP3    H151015   3.215   5.344   0.486 -0.9648 -3.9046 -2.2583
 8940TIP3    H251016   3.318   5.295   0.385  2.9937  2.1662 -1.6596
 8941TIP3   OH251017   2.176   3.628   2.639  0.8448  0.3291  0.0966
 8941TIP3    H151018   2.114   3.612   2.568  0.8506  1.8086 -0.2729
 8941TIP3    H251019   2.131   3.688   2.697  0.9087 -0.7321  1.2900
 8942TIP3   OH251020   1.824   2.087   0.147  0.2980  0.0371  0.7509
 8942TIP3    H151021   1.749   2.102   0.089  0.8198 -1.9049 -0.5175
 8942TIP3    H251022   1.900   2.118   0.096  0.7938 -1.9702  0.1900
 8943TIP3   OH251023   0.755   4.424   7.938 -0.5299  0.0041  0.1390
 8943TIP3    H151024   0.795   4.390   8.019  0.2014  0.9247  0.1848
 8943TIP3    H251025   0.662   4.434   7.959 -0.1289  1.6121  1.3887
 8944TIP3   OH251026   7.305   7.498   8.142 -0.1421 -0.5296  0.5493
 8944TIP3    H151027   7.264   7.474   8.059  2.5738 -1.5221 -0.6001
 8944TIP3    H251028   7.343   7.417   8.175  2.8209  0.6612  0.3597
 8945TIP3   OH251029   7.073   3.420   9.585  0.0844  0.3630  0.7604
 8945TIP3    H151030   7.137   3.449   9.520 -1.1886 -1.6784 -1.5875
 8945TIP3    H251031   7.126   3.392   9.660  1.7386  1.1565 -0.0569
 8946TIP3   OH251032   3.332   6.454   1.251  0.0446 -0.2464  0.0731
 8946TIP3    H151033   3.299   6.365   1.237 -0.1087 -0.3828  1.2359
 8946TIP3    H251034   3.255   6.509   1.249 -0.0046 -0.2929  0.5572
 8947TIP3   OH251035   1.255   7.591   2.340 -1.3440 -0.2194 -0.3822
 8947TIP3    H151036   1.288   7.627   2.257 -2.5277  0.6289 -0.5036
 8947TIP3    H251037   1.321   7.616   2.405  0.7106 -2.6994 -1.3206
 8948TIP3   OH251038   3.569   6.611   8.805  0.6824  0.1948  0.2621
 8948TIP3    H151039   3.635   6.568   8.751 -0.2886 -0.8339 -0.1373
 8948TIP3    H251040   3.614   6.630   8.888  1.1504 -1.5975  0.4552
 8949TIP3   OH251041   0.342   7.588   9.009  0.1077  0.0596  0.0231
 8949TIP3    H151042   0.431   7.593   8.974 -0.2475  1.5254 -0.7764
 8949TIP3    H251043   0.307   7.676   8.996 -1.2000 -0.2862  1.0433
 8950TIP3   OH251044   3.400   6.782   7.266  0.1667  0.6034  0.0841
 8950TIP3    H151045   3.386   6.688   7.279 -1.0882  0.7078 -0.3720
 8950TIP3    H251046   3.450   6.788   7.185 -1.2639  0.3681 -0.8580
 8951TIP3   OH251047   7.023   2.988   9.930 -0.4105 -0.2097 -0.1024
 8951TIP3    H151048   6.955   3.046   9.895 -0.8407 -0.9306 -0.4785
 8951TIP3    H251049   6.976   2.929   9.989 -0.1453 -0.8546 -0.5313
 8952TIP3   OH251050   4.137   2.132   8.055 -0.6972 -0.2161  0.5683
 8952TIP3    H151051   4.171   2.044   8.039  1.0471  0.5039 -0.0354
 8952TIP3    H251052   4.130   2.170   7.967 -1.4470  0.2401  0.8230
 8953TIP3   OH251053   4.406   5.248   2.471  0.2357  0.6779 -0.3991
 8953TIP3    H151054   4.459   5.170   2.489  2.5858  1.9653 -1.2667
 8953TIP3    H251055   4.425   5.306   2.545 -2.4110  0.0959  0.8593
 8954TIP3   OH251056   1.958   1.931   2.416 -0.4891 -0.0627  0.2583
 8954TIP3    H151057   1.973   2.018   2.451 -1.0700  0.4935 -0.8123
 8954TIP3    H251058   1.896   1.891   2.477  1.0910 -0.3918  1.7038
 8955TIP3   OH251059   4.217   7.486   1.726 -0.3516  0.1362  0.2098
 8955TIP3    H151060   4.143   7.438   1.691 -0.7099  0.7560  0.0940
 8955TIP3    H251061   4.185   7.524   1.808  0.3695 -1.0029  1.0414
 8956TIP3   OH251062   7.023   1.332   2.865  0.5762 -0.1373  0.4426
 8956TIP3    H151063   7.116   1.320   2.883  0.8759  1.6177  0.2975
 8956TIP3    H251064   6.994   1.249   2.827  2.5395 -0.0800 -1.3405
 8957TIP3   OH251065   2.282   3.597   7.559  0.5422  0.0746 -0.1922
 8957TIP3    H151066   2.275   3.545   7.639  0.2367  0.4580  0.0349
 8957TIP3    H251067   2.327   3.677   7.586 -0.9888  0.9218 -0.0358
 8958TIP3   OH251068   5.121   2.223   8.649  0.2821  0.3959  0.5302
 8958TIP3    H151069   5.027   2.224   8.630  0.1505  1.1675  1.1427
 8958TIP3    H251070   5.150   2.136   8.622 -0.7254 -0.0705  0.8709
 8959TIP3   OH251071   4.097   0.912   1.674 -0.5814  0.2512  0.1465
 8959TIP3    H151072   4.030   0.888   1.738 -1.3611 -2.6147 -1.5610
 8959TIP3    H251073   4.051   0.914   1.590  0.7059  2.3499 -0.5874
 8960TIP3   OH251074   6.260   4.048   8.989 -0.0936  0.0483 -0.5992
 8960TIP3    H151075   6.257   4.115   9.057  0.6801  0.9733 -1.4546
 8960TIP3    H251076   6.189   3.988   9.011 -0.6523  1.0169  0.3112
 8961TIP3   OH251077   2.733   7.425   9.030 -0.4645  0.4594 -0.4244
 8961TIP3    H151078   2.667   7.381   9.083  2.0351 -0.8361  1.8315
 8961TIP3    H251079   2.782   7.479   9.093 -1.5728  4.4300 -2.6076
 8962TIP3   OH251080   4.448   4.480   7.478  0.1805  0.1802  0.0996
 8962TIP3    H151081   4.371   4.527   7.447 -0.1932 -1.2572 -1.2849
 8962TIP3    H251082   4.497   4.545   7.530 -1.2669  1.4912 -0.1089
 8963TIP3   OH251083   1.682   6.522   7.175 -0.3462 -0.3977 -0.4860
 8963TIP3    H151084   1.660   6.487   7.089 -1.1887  1.3882 -1.0458
 8963TIP3    H251085   1.739   6.596   7.157  0.6077 -0.8405  0.5941
 8964TIP3   OH251086   5.600   3.640   7.761 -0.6152 -0.2272  0.0792
 8964TIP3    H151087   5.557   3.565   7.721 -0.2783 -0.1399 -0.4594
 8964TIP3    H251088   5.586   3.711   7.699 -0.5854  0.0561  0.3940
 8965TIP3   OH251089   3.002   6.938   9.758  0.1188 -0.4638  0.4775
 8965TIP3    H151090   2.966   7.011   9.707 -0.1768 -0.2178  1.0171
 8965TIP3    H251091   3.089   6.968   9.786  0.2726 -0.5913  0.1346
 8966TIP3   OH251092   1.288   2.390   7.654  0.4988  0.0608  0.4281
 8966TIP3    H151093   1.266   2.400   7.562  0.8219  0.1743  0.3604
 8966TIP3    H251094   1.273   2.476   7.693  1.8245  0.4469  0.1579
 8967TIP3   OH251095   1.632   1.018   1.053 -0.2088  0.4601 -0.1305
 8967TIP3    H151096   1.570   1.079   1.013 -1.4363 -0.8070 -0.2601
 8967TIP3    H251097   1.611   1.020   1.146  0.5307  1.0729  0.0331
 8968TIP3   OH251098   1.016   0.719   2.227 -0.2995  0.2103 -0.1599
 8968TIP3    H151099   1.055   0.741   2.311 -1.5661 -1.5442  0.9395
 8968TIP3    H251100   1.059   0.638   2.200  0.5202  1.0519 -1.5437
 8969TIP3   OH251101   1.631   3.036   1.465  0.4064 -0.3304 -0.3596
 8969TIP3    H151102   1.588   3.002   1.544  0.2331  0.4040 -0.1297
 8969TIP3    H251103   1.724   3.029   1.484  0.3886 -1.0805 -0.4968
 8970TIP3   OH251104   1.225   0.895   6.882  0.5095 -0.1006  0.5019
 8970TIP3    H151105   1.318   0.886   6.900  0.8064 -0.2459 -0.9483
 8970TIP3    H251106   1.221   0.958   6.810 -0.7074  1.8848  2.1931
 8971TIP3   OH251107   5.088   5.582   8.583 -0.0946 -0.3282 -0.1752
 8971TIP3    H151108   5.094   5.660   8.639  1.9619 -0.6046  0.0798
 8971TIP3    H251109   5.010   5.536   8.615 -1.7676  1.9192 -0.7997
 8972TIP3   OH251110   4.813   6.109   8.802  0.3571 -0.3273  0.0798
 8972TIP3    H151111   4.814   6.059   8.883  1.5766 -0.9079 -0.2705
 8972TIP3    H251112   4.838   6.197   8.828 -0.0956 -0.3025  0.4488
 8973TIP3   OH251113   7.677   0.286   9.109 -0.3006  0.1789  0.3378
 8973TIP3    H151114   7.671   0.212   9.170  0.6786  3.4206  4.8836
 8973TIP3    H251115   7.608   0.346   9.137 -0.0448  1.7299 -2.0953
 8974TIP3   OH251116   1.568   0.970   7.495 -0.1423  0.1687  0.0008
 8974TIP3    H151117   1.575   0.930   7.408 -0.3757  0.4507 -0.1496
 8974TIP3    H251118   1.633   1.040   7.494 -0.0093  0.0452  0.1214
 8975TIP3   OH251119   4.632   3.051   0.802  0.5273  0.1679 -0.0745
 8975TIP3    H151120   4.553   3.033   0.853  0.8927  1.0109  0.8177
 8975TIP3    H251121   4.618   3.138   0.765 -0.3655 -0.9898 -2.6900
 8976TIP3   OH251122   4.830   5.771   8.671 -0.2559  0.0375  0.1976
 8976TIP3    H151123   4.737   5.771   8.693 -0.6479  0.7892 -1.3287
 8976TIP3    H251124   4.838   5.834   8.600  1.3409 -0.4290 -0.0787
 8977TIP3   OH251125   3.843   4.280   0.461  0.1655  0.5033  0.6831
 8977TIP3    H151126   3.906   4.210   0.448  1.2567  1.7182 -0.9164
 8977TIP3    H251127   3.820   4.275   0.554  0.3715 -1.7982  0.6611
 8978TIP3   OH251128   4.504   6.972   2.142  0.2433  0.3559 -0.7172
 8978TIP3    H151129   4.521   6.890   2.188  3.0540  0.8336 -0.7581
 8978TIP3    H251130   4.502   6.947   2.049  0.6963  0.2703 -0.7059
 8979TIP3   OH251131   3.926   4.307   1.618  0.0251  0.0567 -0.3969
 8979TIP3    H151132   4.018   4.282   1.627  0.5733  2.2024  0.7538
 8979TIP3    H251133   3.878   4.237   1.663  1.1384 -0.7352 -0.3898
 8980TIP3   OH251134   7.524   2.109   8.411 -0.1958  0.0693 -0.3330
 8980TIP3    H151135   7.618   2.126   8.410 -0.1251 -0.3146 -0.8647
 8980TIP3    H251136   7.516   2.023   8.454 -0.3281  0.2298 -0.0342
 8981TIP3   OH251137   5.703   6.385   1.094 -0.5850 -0.0472  0.0616
 8981TIP3    H151138   5.654   6.413   1.171 -2.2649  0.6012 -1.1795
 8981TIP3    H251139   5.683   6.451   1.028 -1.4420 -1.9865 -1.7433
 8982TIP3   OH251140   1.088   6.777   1.584 -0.3039 -0.4875 -0.4067
 8982TIP3    H151141   1.076   6.724   1.663 -1.8584  0.9576  0.3785
 8982TIP3    H251142   1.113   6.864   1.617 -0.5943  0.0317 -1.5283
 8983TIP3   OH251143   7.471   5.434   1.399 -0.3926 -0.5434  0.5390
 8983TIP3    H151144   7.376   5.435   1.390 -0.2696 -1.9009 -1.8324
 8983TIP3    H251145   7.502   5.488   1.325  0.7014 -1.1732  0.5177
 8984TIP3   OH251146   2.227   1.130   6.519  0.0449 -0.1867  0.1058
 8984TIP3    H151147   2.199   1.050   6.563  2.5613 -1.0373  0.3267
 8984TIP3    H251148   2.322   1.123   6.515  0.1469  1.4292 -2.5352
 8985TIP3   OH251149   5.462   4.145   9.995  0.1836  0.2707 -0.4077
 8985TIP3    H151150   5.502   4.083   9.933 -0.8346 -1.0158  0.1614
 8985TIP3    H251151   5.369   4.124   9.993 -0.4128  2.7145 -1.1594
 8986TIP3   OH251152   1.204   4.681   2.463 -0.5215  0.2723  0.1972
 8986TIP3    H151153   1.244   4.754   2.512 -1.6481  0.2628  1.1749
 8986TIP3    H251154   1.246   4.603   2.498  0.3259  0.4048 -0.4956
 8987TIP3   OH251155   0.976   0.827   2.698  0.2578  0.3172 -0.4545
 8987TIP3    H151156   0.964   0.921   2.685 -1.5242 -0.0023 -1.4770
 8987TIP3    H251157   0.909   0.786   2.642  0.8170 -1.5526  0.1620
 8988TIP3   OH251158   2.940   2.260   0.480  0.5113 -0.2736  0.2292
 8988TIP3    H151159   2.988   2.192   0.527 -0.0215  0.8082  2.4769
 8988TIP3    H251160   2.863   2.215   0.445  2.2957 -1.7002 -2.1302
 8989TIP3   OH251161   3.731   1.800   2.352 -0.4709  0.3124  0.4577
 8989TIP3    H151162   3.820   1.823   2.327 -0.4502  0.1288  0.3625
 8989TIP3    H251163   3.683   1.883   2.352 -0.6213  0.2359 -0.7731
 8990TIP3   OH251164   6.798   4.813   9.883  0.3355  0.2050  0.0170
 8990TIP3    H151165   6.777   4.828   9.976 -2.1200 -2.0586 -0.0636
 8990TIP3    H251166   6.724   4.852   9.836 -1.1656 -3.1065 -0.6268
 8991TIP3   OH251167   4.371   0.232   8.408  0.5401 -0.1629  0.3625
 8991TIP3    H151168   4.375   0.303   8.472 -1.0262  0.6996 -0.4407
 8991TIP3    H251169   4.371   0.152   8.462  1.3796  0.4548  1.3186
 8992TIP3   OH251170   3.512   1.876   9.607  0.1904  0.0844 -0.8273
 8992TIP3    H151171   3.554   1.961   9.593  0.4339 -0.1065 -1.2867
 8992TIP3    H251172   3.572   1.813   9.568  1.2199 -0.5661  1.6397
 8993TIP3   OH251173   6.890   4.119   8.472 -0.3845  0.1655 -0.4806
 8993TIP3    H151174   6.892   4.194   8.412  0.1386  0.0769 -0.5781
 8993TIP3    H251175   6.981   4.109   8.501 -0.4813 -0.3291 -0.3379
 8994TIP3   OH251176   0.237   6.287   1.177  0.6314  0.1865 -0.0985
 8994TIP3    H151177   0.239   6.229   1.101  1.5371  0.8237 -0.5875
 8994TIP3    H251178   0.163   6.345   1.162 -0.0159 -0.5465  0.1822
 8995TIP3   OH251179   1.792   5.075   0.037 -0.7861 -0.4656  0.2695
 8995TIP3    H151180   1.774   5.057  -0.056 -1.5735 -1.9473  0.6761
 8995TIP3    H251181   1.708   5.060   0.081 -0.3710  0.0109  1.2527
 8996TIP3   OH251182   7.330   6.805   8.714 -0.3632 -0.0702  0.4921
 8996TIP3    H151183   7.333   6.720   8.759 -0.0405  0.8210  2.2555
 8996TIP3    H251184   7.237   6.827   8.711 -0.3963 -0.1796  0.6836
 8997TIP3   OH251185   5.241   3.157   9.436 -0.5591 -0.0913 -0.2065
 8997TIP3    H151186   5.191   3.099   9.379  1.6304 -1.3585 -0.9615
 8997TIP3    H251187   5.291   3.212   9.376  0.8166 -0.5690  0.4513
 8998TIP3   OH251188   4.488   2.612   8.622 -0.1683  0.1526 -0.4458
 8998TIP3    H151189   4.540   2.661   8.684 -1.7787 -0.9028  1.8889
 8998TIP3    H251190   4.489   2.665   8.542  2.2471  1.4050  0.3337
 8999TIP3   OH251191   3.029   2.588   2.298 -0.0636  0.6084  0.4840
 8999TIP3    H151192   3.097   2.522   2.309  0.6293  0.9054 -1.5854
 8999TIP3    H251193   3.072   2.660   2.251 -2.0667  0.1588 -2.3327
 9000TIP3   OH251194   1.913   0.482   9.090  0.0385  0.1451  0.2751
 9000TIP3    H151195   1.825   0.516   9.073 -0.0485 -0.0165  0.3976
 9000TIP3    H251196   1.971   0.544   9.046 -0.0543  0.9816  1.2959
 9001TIP3   OH251197   7.463   7.604   0.697 -0.3624  0.3878  0.0533
 9001TIP3    H151198   7.537   7.583   0.754  0.4255 -0.1851 -1.1269
 9001TIP3    H251199   7.391   7.623   0.756  0.7334  0.9559  1.2429
 9002TIP3   OH251200   2.590   3.458   9.619  0.4980 -0.0480 -0.4547
 9002TIP3    H151201   2.633   3.373   9.633  2.2446  1.0078  1.0294
 9002TIP3    H251202   2.529   3.467   9.691  0.5444  0.0786 -0.4297
 9003TIP3   OH251203   2.867   6.482   7.473  0.2119  0.1349 -0.5762
 9003TIP3    H151204   2.854   6.408   7.533 -1.3737 -0.1844 -1.2682
 9003TIP3    H251205   2.800   6.545   7.497 -0.4850 -0.0189 -2.0068
 9004TIP3   OH251206   4.462   2.052   9.676  0.2926 -0.1938 -0.5163
 9004TIP3    H151207   4.409   2.012   9.607  0.4781 -2.4797  0.5597
 9004TIP3    H251208   4.405   2.051   9.753  0.8944  0.0834 -0.0568
 9005TIP3   OH251209   1.804   2.886   9.902  0.3172  0.0379  0.0303
 9005TIP3    H151210   1.820   2.948   9.973 -1.3736  1.6281 -0.9043
 9005TIP3    H251211   1.743   2.931   9.843 -1.9160 -2.9117 -0.1428
 9006TIP3   OH251212   1.895   3.505   9.304  0.3542 -0.1110 -0.3684
 9006TIP3    H151213   1.909   3.581   9.361  0.3611  0.0261 -0.5535
 9006TIP3    H251214   1.854   3.440   9.361 -0.6583  0.4138 -0.4664
 9007TIP3   OH251215   6.517   6.258   9.062 -0.2745 -0.6141 -0.2614
 9007TIP3    H151216   6.460   6.219   8.996 -1.4333  2.3022 -1.1509
 9007TIP3    H251217   6.587   6.300   9.011 -0.3332  0.3738  0.4540
 9008TIP3   OH251218   4.485   4.056   1.075 -0.3802 -0.0967  0.2102
 9008TIP3    H151219   4.493   4.001   0.997  0.2077 -0.1255  0.2882
 9008TIP3    H251220   4.396   4.090   1.071 -0.3605 -0.1141 -0.4636
 9009TIP3   OH251221   4.385   5.724   1.872 -0.7796  1.0203  0.2411
 9009TIP3    H151222   4.367   5.650   1.814  0.2745 -0.3075  1.5112
 9009TIP3    H251223   4.469   5.759   1.841 -0.4799  0.6425  0.6002
 9010TIP3   OH251224   2.918   6.209   3.298 -0.1597 -0.4303  0.3870
 9010TIP3    H151225   2.858   6.283   3.286 -1.3498 -1.2054  1.2687
 9010TIP3    H251226   2.867   6.145   3.348  1.4638 -1.0655  1.3174
 9011TIP3   OH251227   2.726   1.714   1.610 -0.5097  0.4068  0.1763
 9011TIP3    H151228   2.633   1.697   1.594 -0.6529  1.3979 -0.1512
 9011TIP3    H251229   2.729   1.744   1.701 -0.6070  0.9881 -0.0081
 9012TIP3   OH251230   6.825   7.230   0.789 -0.8432 -0.7507  0.4072
 9012TIP3    H151231   6.835   7.144   0.830 -4.0373 -0.7715  1.3626
 9012TIP3    H251232   6.876   7.224   0.708 -0.0929 -3.1277  0.9748
 9013TIP3   OH251233   4.647   0.479   7.406  0.1027  0.4855  0.0122
 9013TIP3    H151234   4.565   0.471   7.456  1.0710  1.8369  1.9236
 9013TIP3    H251235   4.712   0.436   7.461  1.3576  2.6953  0.3682
 9014TIP3   OH251236   4.047   7.670   8.150  0.8687 -0.3807 -0.0169
 9014TIP3    H151237   3.977   7.734   8.152  1.6436  0.4813  0.4058
 9014TIP3    H251238   4.127   7.722   8.146  1.5445 -1.2982  0.9450
 9015TIP3   OH251239   3.933   0.983   7.993 -0.0565 -0.0803 -0.3087
 9015TIP3    H151240   3.893   0.949   7.913  0.0524 -0.5121 -0.1822
 9015TIP3    H251241   4.005   1.038   7.962  0.9291 -1.4235 -0.4960
 9016TIP3   OH251242   5.649   5.734   1.408  0.0087  0.1364  0.3944
 9016TIP3    H151243   5.668   5.686   1.489  0.1790 -1.6053 -0.6314
 9016TIP3    H251244   5.598   5.672   1.355 -0.2659  1.3113 -0.7563
 9017TIP3   OH251245   4.762   5.160   1.684 -0.6095  0.2571  0.4146
 9017TIP3    H151246   4.717   5.080   1.712  0.6807 -0.7964 -0.4425
 9017TIP3    H251247   4.851   5.151   1.718 -0.3166  1.0989 -0.1165
 9018TIP3   OH251248   6.807   1.538   8.369  0.1179 -0.2291  0.1150
 9018TIP3    H151249   6.738   1.597   8.339 -0.9372 -1.6435 -0.3885
 9018TIP3    H251250   6.846   1.582   8.445 -0.2420  1.3322 -0.5707
 9019TIP3   OH251251   0.131   3.029   9.742  0.4758 -0.4145 -0.1329
 9019TIP3    H151252   0.113   3.005   9.651 -0.2478 -1.6131  0.2976
 9019TIP3    H251253   0.189   3.104   9.736  0.0532 -0.1731 -1.5870
 9020TIP3   OH251254   1.419   7.281   1.776 -0.1127 -0.1820 -0.7810
 9020TIP3    H151255   1.350   7.295   1.711 -1.0254 -0.7308  0.0484
 9020TIP3    H251256   1.455   7.196   1.755 -0.2673 -0.2676 -0.7040
 9021TIP3   OH251257   2.096   0.980   7.397 -0.0901  0.2280 -0.7612
 9021TIP3    H151258   2.079   1.006   7.307 -1.5188 -1.0000 -0.8828
 9021TIP3    H251259   2.154   0.904   7.390  1.5873  1.4472 -0.5304
 9022TIP3   OH251260   0.008   2.390   1.700  0.0339 -0.2472 -0.1242
 9022TIP3    H151261  -0.029   2.477   1.717  0.2318  0.2616 -2.1043
 9022TIP3    H251262   0.080   2.405   1.639 -1.0213 -1.9285 -1.9310
 9023TIP3   OH251263   7.280   3.976   8.705  0.0893  0.4347 -0.8183
 9023TIP3    H151264   7.268   3.887   8.674  0.1138 -0.7889  2.3231
 9023TIP3    H251265   7.344   4.014   8.646 -1.6728 -0.7489 -3.6926
 9024TIP3   OH251266   1.824   3.170   7.260 -0.2592  0.0659 -0.0390
 9024TIP3    H151267   1.836   3.171   7.165  2.0489  0.4547  0.1931
 9024TIP3    H251268   1.829   3.078   7.285  3.2339  0.1412  0.0280
 9025TIP3   OH251269   4.095   6.481   0.287 -1.1364  0.3224 -0.3877
 9025TIP3    H151270   4.011   6.467   0.243 -1.3565  1.0831 -0.2263
 9025TIP3    H251271   4.102   6.576   0.295  1.2399  0.5632 -3.3866
 9026TIP3   OH251272   2.371   1.315   0.459  0.3496  0.0714  0.3032
 9026TIP3    H151273   2.281   1.331   0.433  0.2471 -1.7477 -0.6010
 9026TIP3    H251274   2.419   1.306   0.377  1.6525  2.2635  0.7455
 9027TIP3   OH251275   2.835   1.749   1.123 -0.4032  0.5097  0.0530
 9027TIP3    H151276   2.743   1.735   1.101 -0.3197  0.7314 -0.4418
 9027TIP3    H251277   2.841   1.726   1.216 -1.4644  2.8007  0.7575
 9028TIP3   OH251278   5.021   5.752   8.884  0.2214  0.1483 -0.0083
 9028TIP3    H151279   4.956   5.752   8.814 -1.1480 -0.2831  1.1997
 9028TIP3    H251280   5.082   5.683   8.860  0.1989  0.4965 -1.1281
 9029TIP3   OH251281   2.698   7.017   1.664 -0.1622  0.2757  0.0386
 9029TIP3    H151282   2.728   6.999   1.753 -0.0026  1.2109  0.1825
 9029TIP3    H251283   2.752   7.090   1.634 -0.0211 -0.2096 -0.9341
 9030TIP3   OH251284   0.766   4.013   0.680 -0.3840  0.2058 -0.5161
 9030TIP3    H151285   0.752   4.047   0.768 -0.8722  1.5538 -1.0809
 9030TIP3    H251286   0.683   3.971   0.657  0.1214 -1.1835  0.0692
 9031TIP3   OH251287   5.661   7.547   1.059  0.3074 -0.9006  0.2830
 9031TIP3    H151288   5.610   7.519   1.135  1.0102 -0.3664  0.9714
 9031TIP3    H251289   5.749   7.512   1.075  0.4702 -0.7509 -0.2656
 9032TIP3   OH251290   7.309   0.668   1.545  0.4860 -0.1322 -0.0138
 9032TIP3    H151291   7.289   0.761   1.555  0.4273 -0.1732  0.2799
 9032TIP3    H251292   7.275   0.645   1.459  0.4300  0.1012 -0.0551
 9033TIP3   OH251293   3.302   7.457   0.611  0.3691 -0.2213 -0.1806
 9033TIP3    H151294   3.271   7.394   0.676  0.8261 -0.9675 -0.6733
 9033TIP3    H251295   3.397   7.448   0.612  0.4111  0.1549 -0.5618
 9034TIP3   OH251296   6.567   1.060   7.680 -0.3473  0.1846  0.0937
 9034TIP3    H151297   6.658   1.029   7.684  0.0364  1.0575 -1.1115
 9034TIP3    H251298   6.515   0.987   7.713  0.6983 -0.8422 -0.4617
 9035TIP3   OH251299   0.897   3.092   9.381 -0.4923 -0.1230 -0.2881
 9035TIP3    H151300   0.841   3.145   9.438 -0.6630 -1.1354  0.5214
 9035TIP3    H251301   0.846   3.011   9.367  0.3040 -0.6120 -0.4194
 9036TIP3   OH251302   3.162   1.925   7.336  0.3129  0.3952  0.1160
 9036TIP3    H151303   3.148   1.996   7.273 -2.2265  0.3133  0.5008
 9036TIP3    H251304   3.100   1.942   7.406  1.0767 -1.1220  1.2202
 9037TIP3   OH251305   4.225   5.137   9.459  0.2200 -0.6143 -0.2645
 9037TIP3    H151306   4.252   5.229   9.452 -1.5593  0.1314  1.6923
 9037TIP3    H251307   4.201   5.112   9.370  2.3695  0.2242 -1.1501
 9038TIP3   OH251308   1.249   0.520   9.231  0.3445  0.1112 -0.4116
 9038TIP3    H151309   1.215   0.517   9.320  1.0436 -0.4217 -0.1532
 9038TIP3    H251310   1.298   0.602   9.226  0.4698  0.0471 -0.2403
 9039TIP3   OH251311   0.863   6.860   6.534 -0.3788  0.4058 -0.4111
 9039TIP3    H151312   0.772   6.888   6.546 -0.6151 -0.9053  1.1674
 9039TIP3    H251313   0.870   6.779   6.585  1.1147 -0.6968 -2.2586
 9040TIP3   OH251314   2.195   6.765   2.841  0.3472 -0.2702  0.3353
 9040TIP3    H151315   2.210   6.720   2.925 -0.2526  0.2318  0.7188
 9040TIP3    H251316   2.184   6.857   2.865  1.3393  0.0579 -0.4249
 9041TIP3   OH251317   2.834   0.949   9.617  0.1602 -0.4847  0.3438
 9041TIP3    H151318   2.863   0.963   9.527  0.5914  0.0022  0.5517
 9041TIP3    H251319   2.889   0.878   9.650  1.1524  0.4285  0.7337
 9042TIP3   OH251320   4.383   2.478   7.695 -0.0595  0.4966  0.0106
 9042TIP3    H151321   4.296   2.457   7.661 -0.5775 -0.0256  1.5635
 9042TIP3    H251322   4.374   2.469   7.790  2.2130 -1.6985  0.1220
 9043TIP3   OH251323   5.310   6.791   9.659 -0.2680  0.2809 -0.2798
 9043TIP3    H151324   5.303   6.764   9.751 -0.5866 -2.2641 -0.9709
 9043TIP3    H251325   5.345   6.880   9.663  1.8204 -0.5187  2.2558
 9044TIP3   OH251326   3.493   1.698   9.188  0.3840  0.4981  0.5414
 9044TIP3    H151327   3.457   1.786   9.176 -0.2086  0.1707 -0.1987
 9044TIP3    H251328   3.587   1.708   9.177  0.2198  0.8630 -0.7703
 9045TIP3   OH251329   1.130   4.528   1.827  0.1686  0.0429  0.8912
 9045TIP3    H151330   1.098   4.451   1.872  0.3960 -0.1882  0.6627
 9045TIP3    H251331   1.101   4.518   1.737  1.1065 -0.3159  0.6107
 9046TIP3   OH251332   0.703   0.567   9.750 -0.0750 -0.1840  0.1913
 9046TIP3    H151333   0.619   0.603   9.777  0.2944 -0.5776  1.9476
 9046TIP3    H251334   0.732   0.626   9.680 -0.2317  2.0393  1.8679
 9047TIP3   OH251335   0.237   0.248   1.849 -0.1960 -0.1943  0.4521
 9047TIP3    H151336   0.177   0.293   1.910 -0.9073 -1.5642  0.7930
 9047TIP3    H251337   0.276   0.319   1.797  1.5168  1.1839  3.3931
 9048TIP3   OH251338   5.711   2.684   9.197 -0.4959 -0.1179  0.2137
 9048TIP3    H151339   5.662   2.687   9.279 -0.1390  1.0007  0.4052
 9048TIP3    H251340   5.770   2.610   9.207 -0.1948  0.2304  1.1406
 9049TIP3   OH251341   3.892   5.161   9.503  0.1141  0.6616 -0.2412
 9049TIP3    H151342   3.938   5.169   9.587  0.8854 -3.0299 -0.1617
 9049TIP3    H251343   3.943   5.216   9.443 -0.5411  3.5198  1.5986
 9050TIP3   OH251344   1.726   5.565   2.021  0.5866 -0.2402 -0.7910
 9050TIP3    H151345   1.736   5.655   2.052 -1.4470 -0.6526  1.3667
 9050TIP3    H251346   1.634   5.558   1.997  1.2854 -1.0531 -3.5936
 9051TIP3   OH251347   4.846   5.970   0.166  0.4421 -0.5432  0.6256
 9051TIP3    H151348   4.862   5.936   0.254 -0.6617 -3.3796 -0.1475
 9051TIP3    H251349   4.920   5.940   0.114  0.2726 -0.3159  0.2412
 9052TIP3   OH251350   2.949   7.547   7.993 -0.1600 -0.1255  0.2228
 9052TIP3    H151351   2.981   7.495   8.066  0.3203 -2.1092 -1.3204
 9052TIP3    H251352   3.026   7.591   7.958 -0.1701 -0.1719  0.1411
 9053TIP3   OH251353   6.843   7.156   1.218 -0.1988 -0.5735 -0.2243
 9053TIP3    H151354   6.861   7.184   1.307  0.1020 -2.3323  0.3062
 9053TIP3    H251355   6.899   7.211   1.163 -2.1426  2.2147  0.4050
 9054TIP3   OH251356   3.672   3.984   8.235  0.8666 -0.1637  0.3280
 9054TIP3    H151357   3.604   4.007   8.172  1.7991  0.5512 -0.4623
 9054TIP3    H251358   3.634   4.003   8.320 -0.1721 -0.4630 -0.0616
 9055TIP3   OH251359   2.316   0.995   0.041 -0.2293 -0.3339 -0.4447
 9055TIP3    H151360   2.228   0.959   0.044 -0.1069 -0.6224 -0.2097
 9055TIP3    H251361   2.366   0.934  -0.012 -0.0277 -0.5035 -0.0679
 9056TIP3   OH251362   4.856   2.991   0.581 -0.4712 -0.2384  0.1393
 9056TIP3    H151363   4.807   2.970   0.502 -0.4881  0.0900  0.0623
 9056TIP3    H251364   4.829   2.925   0.645 -0.3662 -0.5798 -0.1648
 9057TIP3   OH251365   4.517   3.846   8.231  0.4110  0.4057 -0.0186
 9057TIP3    H151366   4.430   3.862   8.267 -0.0805  0.3951 -1.1549
 9057TIP3    H251367   4.529   3.752   8.238 -0.4853  0.1406 -1.5843
 9058TIP3   OH251368   3.979   1.848   9.454 -0.3488 -0.0721 -0.2283
 9058TIP3    H151369   3.962   1.891   9.371 -0.4069  1.3232  0.4653
 9058TIP3    H251370   3.952   1.913   9.520 -0.3783 -1.1671  0.8696
 9059TIP3   OH251371   4.228   6.396   8.379  0.2476 -0.6271 -0.1041
 9059TIP3    H151372   4.146   6.420   8.422 -0.2580  0.5459 -1.6391
 9059TIP3    H251373   4.201   6.346   8.302  1.0002 -0.6077 -0.3913
 9060TIP3   OH251374   7.115   2.493   0.054 -0.0831  0.3449 -0.0631
 9060TIP3    H151375   7.035   2.471   0.006 -0.1088 -0.2679  0.2520
 9060TIP3    H251376   7.146   2.574   0.013 -1.2808  1.0241  0.3132
 9061TIP3   OH251377   3.536   4.484   1.836 -0.0855 -0.3023 -0.2180
 9061TIP3    H151378   3.631   4.492   1.838  0.1095 -2.2087 -0.4581
 9061TIP3    H251379   3.505   4.559   1.888  1.5093  0.4931 -0.3386
 9062TIP3   OH251380   1.860   4.214   6.519 -0.6658 -0.1175 -0.2676
 9062TIP3    H151381   1.800   4.287   6.503  0.3630  0.5690 -1.1544
 9062TIP3    H251382   1.892   4.189   6.432  1.8568  0.8917  0.2819
 9063TIP3   OH251383   5.040   5.124   1.515 -0.4464  0.5568 -0.5950
 9063TIP3    H151384   5.036   5.145   1.609  0.6197  1.5712 -0.7553
 9063TIP3    H251385   5.005   5.035   1.509  0.4694  0.0569  0.9127
 9064TIP3   OH251386   1.832   5.907   9.260  0.3655 -0.0248  0.2307
 9064TIP3    H151387   1.875   5.967   9.321  0.6811  0.1077 -0.1099
 9064TIP3    H251388   1.864   5.935   9.174 -1.3730  0.8772 -0.1640
 9065TIP3   OH251389   1.145   5.370   7.137  0.3042  0.5103  0.0513
 9065TIP3    H151390   1.082   5.319   7.188 -1.9603  3.2879  0.2538
 9065TIP3    H251391   1.125   5.347   7.046 -0.1286  0.4230  0.1674
 9066TIP3   OH251392   6.634   1.525   8.915 -0.7252  0.1723 -0.2880
 9066TIP3    H151393   6.634   1.476   8.833 -3.0075 -1.6524  0.7186
 9066TIP3    H251394   6.686   1.472   8.976 -0.4286  0.6903 -0.0742
 9067TIP3   OH251395   3.879   6.437   0.122  0.2542  0.7962 -0.3597
 9067TIP3    H151396   3.861   6.360   0.069  0.6576 -0.1288  0.8169
 9067TIP3    H251397   3.905   6.504   0.059 -1.2452  0.3512 -1.5261
 9068TIP3   OH251398   0.681   2.285   8.986  0.6265  0.2289  0.3655
 9068TIP3    H151399   0.633   2.367   8.979 -0.0027 -0.2515 -1.7699
 9068TIP3    H251400   0.753   2.293   8.923  0.4161 -0.9115 -0.0628
 9069TIP3   OH251401   4.288   2.322   8.174  0.1883  0.0996  0.3923
 9069TIP3    H151402   4.236   2.250   8.141  0.1329  0.0648  0.5585
 9069TIP3    H251403   4.228   2.373   8.228 -0.0755  0.8805 -0.5948
 9070TIP3   OH251404   5.216   5.465   1.199  0.1280 -0.8193 -0.0723
 9070TIP3    H151405   5.265   5.388   1.227  0.0095 -0.6782  0.5234
 9070TIP3    H251406   5.156   5.432   1.132 -2.2353 -1.9053  2.4208
 9071TIP3   OH251407   1.647   1.543   9.635  0.2628 -0.3932  0.2837
 9071TIP3    H151408   1.557   1.539   9.670  1.0582  0.9527  2.7365
 9071TIP3    H251409   1.682   1.455   9.649 -0.0676 -0.3966  1.1811
 9072TIP3   OH251410   2.897   1.728   8.249 -0.0278  0.7364  0.4931
 9072TIP3    H151411   2.928   1.647   8.291  0.8566 -0.0911 -1.6005
 9072TIP3    H251412   2.976   1.768   8.213 -0.6521  1.8012  0.2649
 9073TIP3   OH251413   6.474   4.595   1.304 -0.5228 -0.3891 -0.9341
 9073TIP3    H151414   6.540   4.543   1.348 -1.6111 -1.4997 -0.5572
 9073TIP3    H251415   6.500   4.596   1.212  1.2362  1.1314 -0.4772
 9074TIP3   OH251416   4.649   3.268   1.416  0.2082  0.1885  0.1886
 9074TIP3    H151417   4.702   3.218   1.354  0.0746  0.4137 -0.1158
 9074TIP3    H251418   4.624   3.347   1.367  0.1200  0.3811  0.5399
 9075TIP3   OH251419   6.461   0.988   9.761 -0.0868 -0.3933  0.0477
 9075TIP3    H151420   6.368   0.970   9.774 -0.2026 -0.3710 -0.6763
 9075TIP3    H251421   6.464   1.076   9.725  0.1469 -0.6714 -0.6475
 9076TIP3   OH251422   6.995   6.356   0.079  0.1742 -0.3209 -0.0674
 9076TIP3    H151423   7.028   6.440   0.049 -0.1148 -0.5504 -1.0834
 9076TIP3    H251424   7.049   6.291   0.033 -2.5364 -0.7414 -3.0104
 9077TIP3   OH251425   6.144   5.577   1.761  0.2885 -0.3707 -0.0808
 9077TIP3    H151426   6.081   5.646   1.782  0.3250 -0.1533 -0.6796
 9077TIP3    H251427   6.203   5.576   1.836  0.2543  0.2097 -0.0398
 9078TIP3   OH251428   0.469   5.716   1.725 -0.0757 -0.1479  0.0512
 9078TIP3    H151429   0.511   5.794   1.689  0.5404 -0.3742  0.2613
 9078TIP3    H251430   0.382   5.715   1.686 -0.1319  0.7064  0.1446
 9079TIP3   OH251431   4.338   6.902   8.600  0.5328 -0.8075 -0.1191
 9079TIP3    H151432   4.282   6.832   8.566  0.1642 -0.6488  0.1627
 9079TIP3    H251433   4.416   6.899   8.544  0.4967 -1.4092 -0.1386
 9080TIP3   OH251434   4.373   7.551   8.552 -0.4617  0.1089 -0.0447
 9080TIP3    H151435   4.312   7.479   8.535 -0.1519 -0.1100 -0.2161
 9080TIP3    H251436   4.337   7.593   8.631 -1.5786  0.7920 -0.8922
 9081TIP3   OH251437   5.732   4.209   8.277 -0.2991 -0.2618  0.0931
 9081TIP3    H151438   5.653   4.173   8.317 -1.9594 -0.2314 -2.8204
 9081TIP3    H251439   5.703   4.240   8.191  2.4803  1.7361 -0.2769
 9082TIP3   OH251440   0.725   3.325   8.882 -0.1525 -0.6747 -0.1225
 9082TIP3    H151441   0.761   3.401   8.836 -0.8529  0.0496  0.5027
 9082TIP3    H251442   0.801   3.269   8.899  0.7471  0.9132  1.3459
 9083TIP3   OH251443   3.338   5.513   8.300 -0.5454  0.3774  0.0903
 9083TIP3    H151444   3.425   5.525   8.263  1.1516 -0.8053  3.3548
 9083TIP3    H251445   3.295   5.450   8.242  1.7059 -0.8908 -0.3006
 9084TIP3   OH251446   5.918   2.310   1.102  0.7263 -0.3779 -0.1661
 9084TIP3    H151447   5.927   2.394   1.058 -0.3019 -0.5174 -0.6573
 9084TIP3    H251448   5.828   2.283   1.087  1.0331 -1.5782 -0.0185
 9085TIP3   OH251449   0.086   0.917   0.611  0.1229 -0.0437  0.2767
 9085TIP3    H151450   0.000   0.943   0.577 -0.1629 -0.6064  0.5539
 9085TIP3    H251451   0.111   0.988   0.670 -1.3663 -1.0851  2.2765
 9086TIP3   OH251452   1.178   1.352   1.521 -0.7429  0.2812 -0.1769
 9086TIP3    H151453   1.216   1.353   1.609 -1.5484  0.5791  0.1735
 9086TIP3    H251454   1.254   1.348   1.463 -0.2097 -0.3033  0.5343
 9087TIP3   OH251455   1.196   5.854   9.580 -0.4603  0.5644  0.4931
 9087TIP3    H151456   1.127   5.902   9.626 -1.8525 -0.0895 -0.8142
 9087TIP3    H251457   1.150   5.808   9.509  0.8681 -2.2936  1.3428
 9088TIP3   OH251458   5.718   5.087   7.832  0.2196  0.0522  0.2909
 9088TIP3    H151459   5.740   5.153   7.766 -0.8699 -0.8372 -1.0305
 9088TIP3    H251460   5.791   5.025   7.829 -1.5689 -2.2496 -3.2171
 9089TIP3   OH251461   3.120   6.906   9.458 -0.1616 -0.0852  0.7344
 9089TIP3    H151462   3.204   6.904   9.503 -0.5961 -0.7446  1.5329
 9089TIP3    H251463   3.068   6.970   9.507  0.3611  1.5088 -0.6911
 9090TIP3   OH251464   6.357   0.365   0.507  0.2953 -0.0186  0.2127
 9090TIP3    H151465   6.348   0.432   0.574  1.0181  2.1836 -1.7344
 9090TIP3    H251466   6.451   0.348   0.503  0.1574 -0.8627  0.4154
 9091TIP3   OH251467   2.856   0.469   8.842 -0.1387 -0.0926  0.4542
 9091TIP3    H151468   2.887   0.382   8.819 -1.4144  0.0210 -2.1563
 9091TIP3    H251469   2.774   0.478   8.793  0.1578  2.6863  0.3128
 9092TIP3   OH251470   6.905   0.750   1.793 -0.3616 -0.0503 -0.6014
 9092TIP3    H151471   6.931   0.667   1.833 -0.1555 -0.6007 -1.8620
 9092TIP3    H251472   6.823   0.774   1.838 -0.3833 -0.8785 -0.1832
 9093TIP3   OH251473   5.103   4.347   9.287  0.4039  0.0692 -0.3524
 9093TIP3    H151474   5.020   4.383   9.319 -0.5229 -1.8898 -0.3948
 9093TIP3    H251475   5.090   4.252   9.288  3.7966 -0.6095  2.8801
 9094TIP3   OH251476   0.496   3.299   1.149 -0.2405  0.0549  0.0783
 9094TIP3    H151477   0.463   3.273   1.235  1.5022 -2.6200  0.0706
 9094TIP3    H251478   0.529   3.218   1.110  0.6266  1.4740 -2.4037
 9095TIP3   OH251479   0.919   6.863   7.258  0.7429 -0.0795  0.1536
 9095TIP3    H151480   0.973   6.866   7.337 -1.5195  0.3671  1.7602
 9095TIP3    H251481   0.930   6.950   7.218 -2.1849  1.8458  2.9929
 9096TIP3   OH251482   4.579   4.035   8.430  0.0013  0.2063  0.4885
 9096TIP3    H151483   4.665   4.077   8.427  1.1872 -2.0590 -0.9078
 9096TIP3    H251484   4.581   3.973   8.357 -2.3541 -0.8089  1.1992
 9097TIP3   OH251485   5.414   5.156   8.028 -0.1747 -0.4032 -0.0991
 9097TIP3    H151486   5.481   5.224   8.021 -0.1216 -0.4540 -0.0820
 9097TIP3    H251487   5.332   5.205   8.041 -0.1764 -0.3346 -0.3768
 9098TIP3   OH251488   0.711   4.877   7.246  0.6067  0.3481 -0.7159
 9098TIP3    H151489   0.769   4.880   7.322  0.3646 -0.5993 -0.4817
 9098TIP3    H251490   0.623   4.886   7.283  0.4805 -0.2573 -0.8655
 9099TIP3   OH251491   7.276   2.288   0.133  0.3847  0.0800 -0.0126
 9099TIP3    H151492   7.359   2.333   0.150 -0.5499  1.4793  1.0544
 9099TIP3    H251493   7.210   2.357   0.138 -0.9506 -1.1753  0.2187
 9100TIP3   OH251494   3.722   3.312   8.773  0.0851 -0.8499 -0.0535
 9100TIP3    H151495   3.692   3.250   8.707  0.3870  0.2081 -1.2386
 9100TIP3    H251496   3.755   3.387   8.722 -1.6533  0.9496  1.3022
 9101TIP3   OH251497   7.563   0.738   8.352 -0.2171  0.2891 -0.2784
 9101TIP3    H151498   7.580   0.663   8.410  1.7637  0.2697 -0.8024
 9101TIP3    H251499   7.649   0.778   8.340 -1.0643  1.9913 -0.9295
 9102TIP3   OH251500   7.670   1.342   1.726  0.7312  0.3873  0.3144
 9102TIP3    H151501   7.751   1.291   1.728 -0.0895 -1.1896 -2.2725
 9102TIP3    H251502   7.613   1.299   1.789  0.7393 -0.6972 -0.3907
 9103TIP3   OH251503   2.454   1.417   7.556  0.3039  0.2370 -0.2091
 9103TIP3    H151504   2.527   1.386   7.504  0.8424 -0.0431  0.6854
 9103TIP3    H251505   2.405   1.338   7.579 -1.4965  0.5830 -2.5029
 9104TIP3   OH251506   1.904   6.567   1.237 -0.5119 -0.1191  0.2901
 9104TIP3    H151507   1.918   6.582   1.143  1.2081 -0.8461  0.4050
 9104TIP3    H251508   1.812   6.541   1.243 -1.0807  1.4058 -0.9920
 9105TIP3   OH251509   3.901   1.346   1.361  0.0890  0.7448 -0.0370
 9105TIP3    H151510   3.811   1.369   1.384  0.2507  3.3400 -1.6151
 9105TIP3    H251511   3.955   1.411   1.406  0.8789  1.3573 -1.7792
 9106TIP3   OH251512   3.657   2.931   8.391  0.7069 -0.3607 -0.5597
 9106TIP3    H151513   3.685   2.889   8.310  1.9304  0.5076 -0.6051
 9106TIP3    H251514   3.571   2.969   8.370 -0.0042 -2.0005 -0.7790
 9107TIP3   OH251515   0.822   2.556   6.994 -0.3663  0.0265 -0.2174
 9107TIP3    H151516   0.852   2.478   6.948  0.3107 -0.0588  0.3559
 9107TIP3    H251517   0.811   2.622   6.926 -0.8592 -0.5380 -0.6962
 9108TIP3   OH251518   6.700   1.289   8.309  0.0734 -0.2405 -0.1213
 9108TIP3    H151519   6.736   1.374   8.333  0.3472 -0.4538  0.2386
 9108TIP3    H251520   6.739   1.269   8.224  0.4378 -0.2488  0.0442
 9109TIP3   OH251521   0.698   3.323   9.454 -0.0226  0.4704  0.1371
 9109TIP3    H151522   0.781   3.362   9.430 -0.1624  0.1566 -0.8977
 9109TIP3    H251523   0.721   3.258   9.521  0.9126 -1.2049 -1.6995
 9110TIP3   OH251524   6.871   7.379   0.028 -0.7937 -0.0619 -0.4606
 9110TIP3    H151525   6.795   7.351   0.080 -1.8096  2.3919 -0.4610
 9110TIP3    H251526   6.835   7.393  -0.060 -0.3131  0.9223 -0.5084
 9111TIP3   OH251527   5.866   6.866   1.456  0.6495  0.3942 -0.1733
 9111TIP3    H151528   5.891   6.948   1.498  1.7099  0.4809 -0.9640
 9111TIP3    H251529   5.849   6.807   1.530  1.3400  0.8819  0.3899
 9112TIP3   OH251530   6.122   5.589   7.778  0.4551  0.4015  0.2632
 9112TIP3    H151531   6.062   5.522   7.745 -2.7413  2.0234  2.3026
 9112TIP3    H251532   6.208   5.547   7.777 -0.9285 -2.6871 -1.2373
 9113TIP3   OH251533   1.034   3.394   2.631  0.8171  0.1030  0.0113
 9113TIP3    H151534   0.985   3.328   2.679  1.0353  1.0168  1.5479
 9113TIP3    H251535   0.976   3.419   2.559 -0.6451  0.5534  1.2996
 9114TIP3   OH251536   0.826   6.506   1.228  0.8123 -0.5898  0.3383
 9114TIP3    H151537   0.876   6.584   1.249 -0.4395  0.9488 -2.0259
 9114TIP3    H251538   0.763   6.497   1.300  0.9276  0.5979  0.5937
 9115TIP3   OH251539   4.282   4.748   0.458 -0.3426 -0.2103 -0.3318
 9115TIP3    H151540   4.242   4.685   0.518  1.9911 -0.9859  0.5591
 9115TIP3    H251541   4.210   4.802   0.427 -2.0788 -1.7958  0.7620
 9116TIP3   OH251542   6.802   6.344   9.050 -0.6996 -0.6554 -0.4732
 9116TIP3    H151543   6.751   6.274   9.089 -0.2123 -0.8944 -0.2553
 9116TIP3    H251544   6.886   6.342   9.096 -0.6228 -0.0303 -0.5699
 9117TIP3   OH251545   7.442   3.237   1.472 -0.4854 -0.6710  0.0044
 9117TIP3    H151546   7.359   3.197   1.448 -0.6424 -0.1389 -0.3704
 9117TIP3    H251547   7.502   3.214   1.400 -0.5270 -0.3988 -0.1212
 9118TIP3   OH251548   0.965   0.459   2.696 -0.3098 -0.1551 -0.2048
 9118TIP3    H151549   0.890   0.473   2.639  0.8559 -0.5641 -1.9086
 9118TIP3    H251550   0.999   0.374   2.670  1.1001  0.2933  0.0921
 9119TIP3   OH251551   3.267   1.041   1.912 -0.1767 -0.4484 -0.0298
 9119TIP3    H151552   3.295   1.104   1.979  1.4192 -1.0506 -0.0889
 9119TIP3    H251553   3.172   1.045   1.914 -0.1393  0.4168  1.4498
 9120TIP3   OH251554   7.337   0.648   8.115  1.0591  0.0132 -0.1290
 9120TIP3    H151555   7.318   0.641   8.021  3.2913 -1.0315 -0.5653
 9120TIP3    H251556   7.432   0.638   8.121  1.0336  0.6292  2.2184
 9121TIP3   OH251557   7.279   3.969   9.089  0.2153 -0.7445 -0.5698
 9121TIP3    H151558   7.320   4.050   9.059 -0.8701  0.6606  1.5146
 9121TIP3    H251559   7.314   3.956   9.177 -3.4700  0.4343  1.2631
 9122TIP3   OH251560   0.329   6.890   8.797 -0.6713  0.0975  0.3533
 9122TIP3    H151561   0.242   6.925   8.818  0.1303  0.6173  3.1220
 9122TIP3    H251562   0.354   6.839   8.874  1.0282 -1.0360 -0.8785
 9123TIP3   OH251563   5.511   7.235   0.952 -0.1811 -0.0718 -0.2361
 9123TIP3    H151564   5.421   7.264   0.937  0.0437  0.5542 -0.3967
 9123TIP3    H251565   5.521   7.160   0.893 -0.4884  0.0657 -0.4706
 9124TIP3   OH251566   2.258   5.337   8.115 -0.2091 -0.3651 -0.0868
 9124TIP3    H151567   2.335   5.388   8.091 -0.5708  0.2535  0.0412
 9124TIP3    H251568   2.292   5.251   8.137  0.1161 -1.1798 -3.3191
 9125TIP3   OH251569   5.091   5.058   1.252 -0.6755  0.0952 -0.3264
 9125TIP3    H151570   5.009   5.019   1.220 -0.0603  0.5021 -2.5276
 9125TIP3    H251571   5.063   5.112   1.326 -2.0722 -1.4599  0.3637
 9126TIP3   OH251572   3.056   5.491   9.038  0.1160 -0.7691  0.3708
 9126TIP3    H151573   3.071   5.561   8.975 -0.4544 -0.1078  0.9540
 9126TIP3    H251574   3.136   5.489   9.090  0.2134 -0.6850  0.2262
 9127TIP3   OH251575   0.556   0.914   6.985 -0.2726 -0.1573 -0.9147
 9127TIP3    H151576   0.637   0.863   6.982  0.1051  0.2818  0.7676
 9127TIP3    H251577   0.583   1.003   6.961 -0.4426 -0.2177 -1.3270
 9128TIP3   OH251578   1.402   1.360   7.465  0.1488 -0.2418 -0.3571
 9128TIP3    H151579   1.439   1.316   7.388 -1.9754 -0.8343 -1.0894
 9128TIP3    H251580   1.385   1.289   7.527  1.8303  0.2309  0.7181
 9129TIP3   OH251581   4.163   1.800   7.277  0.0419 -0.2292  0.0691
 9129TIP3    H151582   4.100   1.862   7.241  0.5173  0.0993 -0.2060
 9129TIP3    H251583   4.158   1.724   7.218  1.0033  0.4075 -0.8861
 9130TIP3   OH251584   6.341   7.528   0.433  0.2917 -0.1960  0.6109
 9130TIP3    H151585   6.308   7.613   0.465 -1.3256 -0.8606  0.8381
 9130TIP3    H251586   6.325   7.530   0.339  1.8322  0.3901  0.3343
 9131TIP3   OH251587   1.325   2.916   2.256  0.4158  0.5659 -0.4085
 9131TIP3    H151588   1.314   2.997   2.206  0.7292  1.2930  0.6744
 9131TIP3    H251589   1.254   2.916   2.320  2.6840  2.1123  2.3552
 9132TIP3   OH251590   3.867   6.464   3.016  0.0699  0.2285 -0.2940
 9132TIP3    H151591   3.930   6.394   3.032 -0.5621 -0.8069 -2.0364
 9132TIP3    H251592   3.921   6.543   3.011  1.0854 -0.4549 -0.5495
 9133TIP3   OH251593   5.429   1.505   2.697 -0.5361 -0.6901  0.1038
 9133TIP3    H151594   5.414   1.575   2.634 -1.0979 -0.6557  0.2687
 9133TIP3    H251595   5.447   1.550   2.779 -3.2338 -0.6869  0.7716
 9134TIP3   OH251596   6.488   4.752   1.587  0.0067  0.5300 -0.0942
 9134TIP3    H151597   6.523   4.664   1.570  0.7720  0.6879  0.5907
 9134TIP3    H251598   6.404   4.737   1.630  0.3634  0.1299  0.4726
 9135TIP3   OH251599   2.040   1.664   0.856  0.0888  0.7725  0.1115
 9135TIP3    H151600   2.021   1.654   0.949 -1.7904  1.9916 -0.0910
 9135TIP3    H251601   2.023   1.578   0.819 -0.7715  0.6864  0.6629
 9136TIP3   OH251602   6.531   5.836   9.099 -0.1071 -0.0171 -0.8901
 9136TIP3    H151603   6.550   5.764   9.159  1.2816 -0.2234 -1.5304
 9136TIP3    H251604   6.443   5.863   9.121 -0.0239 -0.8024  0.5095
 9137TIP3   OH251605   2.385   2.607   2.010  0.9083  0.3328  0.5681
 9137TIP3    H151606   2.409   2.635   1.921  0.5256 -1.6908 -0.2044
 9137TIP3    H251607   2.466   2.618   2.061  1.4344  0.4857 -0.2870
 9138TIP3   OH251608   6.392   2.786   8.084 -0.2401  0.1874  0.2772
 9138TIP3    H151609   6.485   2.790   8.108 -0.2918  1.6540  0.3015
 9138TIP3    H251610   6.381   2.698   8.047  0.9616 -0.3107  1.0302
 9139TIP3   OH251611   6.111   2.709   7.657 -0.3343 -0.2113 -0.2935
 9139TIP3    H151612   6.075   2.638   7.604 -1.3937  0.2105 -0.1699
 9139TIP3    H251613   6.129   2.779   7.594 -2.2643  0.5559 -0.0620
 9140TIP3   OH251614   7.470   2.072   7.553  0.0399 -0.6359  0.3943
 9140TIP3    H151615   7.410   2.074   7.479  0.1961  0.6771  0.2815
 9140TIP3    H251616   7.424   2.119   7.623 -0.0760 -1.7877  1.1230
 9141TIP3   OH251617   0.086   0.042   8.807 -0.2173  0.0655 -0.7512
 9141TIP3    H151618   0.139   0.009   8.734  0.4639 -0.1147 -0.1927
 9141TIP3    H251619   0.063  -0.036   8.857 -0.6328  0.1947 -0.7390
 9142TIP3   OH251620   4.064   0.117   0.808 -0.3710  0.0427  0.3400
 9142TIP3    H151621   4.095   0.184   0.747  0.3130 -1.1667 -0.6759
 9142TIP3    H251622   4.102   0.142   0.892 -0.2861  1.0258  0.0199
 9143TIP3   OH251623   4.055   4.673   8.862 -0.4269  0.4119  0.2101
 9143TIP3    H151624   4.030   4.706   8.949  0.2702  1.6644 -0.0362
 9143TIP3    H251625   3.990   4.606   8.842 -2.1617  1.8787  0.6011
 9144TIP3   OH251626   7.236   2.423   2.691 -0.0584 -0.2381  0.4407
 9144TIP3    H151627   7.315   2.423   2.745  0.5075 -0.7076 -0.3761
 9144TIP3    H251628   7.239   2.506   2.644  0.0137 -0.3105  0.3172
 9145TIP3   OH251629   4.580   3.017   9.545  0.4542 -0.1296 -0.2481
 9145TIP3    H151630   4.510   2.958   9.574  2.3098 -1.3187  2.1794
 9145TIP3    H251631   4.643   2.960   9.501  0.0668  0.8884 -2.2268
 9146TIP3   OH251632   1.622   6.322   6.958  0.2679  0.4418 -0.9756
 9146TIP3    H151633   1.556   6.287   7.019  1.3639 -1.3618 -0.7654
 9146TIP3    H251634   1.595   6.288   6.873  1.5634 -1.3909 -0.7131
 9147TIP3   OH251635   2.218   3.439   7.962 -0.0123  0.4976 -0.1424
 9147TIP3    H151636   2.132   3.473   7.938  0.0977  1.6028  0.9232
 9147TIP3    H251637   2.264   3.514   7.998  0.9740 -0.3474  0.4142
 9148TIP3   OH251638   4.617   1.912   0.474 -0.0436  0.1707 -0.7306
 9148TIP3    H151639   4.634   1.838   0.415 -2.8174  0.1459 -1.6327
 9148TIP3    H251640   4.546   1.881   0.531 -1.0888  2.0093 -0.9601
 9149TIP3   OH251641   3.633   5.260   8.826  0.0545  0.1859  0.5717
 9149TIP3    H151642   3.592   5.265   8.740  2.5508 -0.0876 -0.7391
 9149TIP3    H251643   3.637   5.350   8.857 -2.4331  0.1131  1.2668
 9150TIP3   OH251644   3.733   6.493   9.732 -0.4509  0.2585  0.2937
 9150TIP3    H151645   3.783   6.522   9.656 -1.4935 -2.2922 -1.5214
 9150TIP3    H251646   3.689   6.572   9.763 -1.6667  1.1084 -3.1314
 9151TIP3   OH251647   3.408   5.498   1.618  0.5236  0.7864  0.5588
 9151TIP3    H151648   3.499   5.466   1.615  1.1747  2.3474  2.0131
 9151TIP3    H251649   3.358   5.425   1.654  1.5401  0.5331  1.5043
 9152TIP3   OH251650   0.990   2.566   1.053  0.0775 -0.1426  0.6029
 9152TIP3    H151651   0.903   2.536   1.027 -0.9192  2.8963 -0.0103
 9152TIP3    H251652   0.975   2.622   1.129  1.1536  1.9376 -0.6090
 9153TIP3   OH251653   3.875   3.099   9.922  0.0873  0.1704  0.3777
 9153TIP3    H151654   3.846   3.115   9.832  1.0890  0.4743  0.0889
 9153TIP3    H251655   3.851   3.178   9.969 -0.9920 -0.2370  0.5301
 9154TIP3   OH251656   0.273   3.121   8.319  0.1194 -0.3270 -0.4756
 9154TIP3    H151657   0.357   3.090   8.353  0.0815  0.2058  0.1207
 9154TIP3    H251658   0.282   3.114   8.224  1.3359  0.9742 -0.4898
 9155TIP3   OH251659   3.209   1.540   9.540 -0.1027  0.3094 -0.4308
 9155TIP3    H151660   3.156   1.525   9.462  0.3596  1.5609 -1.0202
 9155TIP3    H251661   3.203   1.635   9.555  0.6232  0.2283  0.4551
 9156TIP3   OH251662   4.833   2.323   8.177  0.3123  0.0528 -0.1166
 9156TIP3    H151663   4.835   2.284   8.089  1.9509  1.4057 -0.7318
 9156TIP3    H251664   4.857   2.252   8.236 -2.1648 -1.2407 -0.5602
 9157TIP3   OH251665   1.206   3.123   1.892 -0.2336  0.0509  0.3733
 9157TIP3    H151666   1.268   3.122   1.819 -0.0589  0.7660  0.5055
 9157TIP3    H251667   1.134   3.177   1.862 -0.0754  0.5037  0.7946
 9158TIP3   OH251668   2.263   4.814   7.376  0.7044 -0.1968  0.0198
 9158TIP3    H151669   2.223   4.863   7.447 -0.6606  1.5132 -1.8195
 9158TIP3    H251670   2.190   4.768   7.333  1.5135 -1.2999 -0.2365
 9159TIP3   OH251671   3.770   1.450   7.342 -0.2043  0.4345 -0.0092
 9159TIP3    H151672   3.739   1.524   7.394  0.3529  0.6075  0.0737
 9159TIP3    H251673   3.711   1.378   7.367  0.9524  0.1097  1.9951
 9160TIP3   OH251674   2.636   4.278   7.558  0.1862  0.1369 -0.0036
 9160TIP3    H151675   2.682   4.248   7.637 -0.9066 -0.6935  0.3491
 9160TIP3    H251676   2.554   4.315   7.591 -0.1517  0.0555 -0.7313
 9161TIP3   OH251677   6.260   0.763   9.526 -0.1882 -0.5783  0.1230
 9161TIP3    H151678   6.223   0.837   9.575  2.2743  0.8369  0.0445
 9161TIP3    H251679   6.319   0.721   9.589  1.1225 -0.2464 -0.8325
 9162TIP3   OH251680   6.402   6.326   0.381  0.0450 -0.2704  0.2567
 9162TIP3    H151681   6.337   6.396   0.390 -1.2657 -1.4769  0.5593
 9162TIP3    H251682   6.403   6.283   0.466 -1.1646 -2.2573 -0.6575
 9163TIP3   OH251683   3.539   0.091   1.833  0.4361 -0.1074 -0.1971
 9163TIP3    H151684   3.446   0.070   1.846  0.2355  0.3778 -0.7974
 9163TIP3    H251685   3.578   0.009   1.802  0.2572 -0.3706  0.2575
 9164TIP3   OH251686   0.738   1.487   1.793 -0.0612 -0.2598 -0.3384
 9164TIP3    H151687   0.768   1.577   1.779 -0.2667 -0.1431 -0.0449
 9164TIP3    H251688   0.772   1.464   1.880 -2.0248  0.4004  0.6784
 9165TIP3   OH251689   4.230   1.628   0.720 -0.0758 -0.4178 -0.0771
 9165TIP3    H151690   4.149   1.589   0.753 -0.5024  1.1634  0.8498
 9165TIP3    H251691   4.216   1.635   0.625 -0.3103 -1.6956 -0.1605
 9166TIP3   OH251692   0.658   7.509   1.813 -0.2984 -0.1593  0.3612
 9166TIP3    H151693   0.611   7.455   1.877  0.6247 -0.6370  0.6531
 9166TIP3    H251694   0.591   7.566   1.775 -0.8232  0.2757  1.9002
 9167TIP3   OH251695   0.050   4.942   9.449  0.7702  0.4037  0.7552
 9167TIP3    H151696   0.012   4.854   9.445  0.1150  0.7070 -0.1982
 9167TIP3    H251697   0.000   4.986   9.518 -0.4906  0.7065 -0.2923
 9168TIP3   OH251698   2.765   5.864   2.249  0.2568 -0.2611 -0.2005
 9168TIP3    H151699   2.829   5.793   2.259  0.7055  0.0855 -0.5616
 9168TIP3    H251700   2.756   5.902   2.336 -0.2683 -0.9990  0.0747
 9169TIP3   OH251701   0.392   6.052   2.105 -0.1698  0.1000  0.1743
 9169TIP3    H151702   0.412   6.098   2.024 -0.0794 -1.9174 -1.0022
 9169TIP3    H251703   0.331   6.111   2.151 -0.3948  1.1868 -1.4286
 9170TIP3   OH251704   2.781   6.372   7.218  0.3258 -0.7096 -0.3114
 9170TIP3    H151705   2.770   6.286   7.259 -0.0989  0.1588  1.5181
 9170TIP3    H251706   2.812   6.428   7.289  0.1921  0.7569 -1.3653
 9171TIP3   OH251707   2.533   1.028   1.544 -0.2838 -0.5482 -0.0948
 9171TIP3    H151708   2.519   1.083   1.621  1.1525 -0.2539 -0.0320
 9171TIP3    H251709   2.446   1.020   1.504 -0.6706  1.0082  0.3910
 9172TIP3   OH251710   5.543   3.376   1.188 -0.2802  0.2520  0.2301
 9172TIP3    H151711   5.539   3.457   1.239 -1.8498  1.6573 -1.9325
 9172TIP3    H251712   5.630   3.376   1.149 -0.5532  1.3813 -0.4140
 9173TIP3   OH251713   0.710   7.317   1.402 -0.0562 -0.1137 -0.0585
 9173TIP3    H151714   0.616   7.323   1.386 -0.1000  2.0036  0.7378
 9173TIP3    H251715   0.730   7.224   1.390 -1.9289 -0.3525 -1.8357
 9174TIP3   OH251716   4.613   6.176   8.637 -0.3360  0.2940  0.6942
 9174TIP3    H151717   4.683   6.165   8.701  1.3030  0.7765 -0.9599
 9174TIP3    H251718   4.657   6.195   8.554 -2.3337 -1.2948 -0.8465
 9175TIP3   OH251719   1.430   1.679   8.044  0.4858  0.0573 -0.6404
 9175TIP3    H151720   1.395   1.641   7.963 -0.0179 -0.7451 -0.0556
 9175TIP3    H251721   1.380   1.638   8.114 -0.4027  2.1147  0.0243
 9176TIP3   OH251722   2.731   0.632   7.817 -0.3252  0.3006 -0.4623
 9176TIP3    H151723   2.705   0.705   7.760  0.4201  0.5768 -0.4530
 9176TIP3    H251724   2.689   0.556   7.777 -1.2718  0.7520 -0.3621
 9177TIP3   OH251725   4.582   3.028   7.194  0.7699 -0.3142 -0.1719
 9177TIP3    H151726   4.544   3.104   7.151 -0.3430  0.5901  2.2423
 9177TIP3    H251727   4.605   3.059   7.282  2.1740 -2.2586  0.2199
 9178TIP3   OH251728   0.185   3.205   7.816  0.0423 -0.6221 -0.5437
 9178TIP3    H151729   0.131   3.249   7.882  0.9873 -1.1321  0.5844
 9178TIP3    H251730   0.169   3.255   7.736 -2.1820 -0.8271 -0.2844
 9179TIP3   OH251731   4.214   0.388   1.193  0.8932 -0.3931 -0.4244
 9179TIP3    H151732   4.225   0.454   1.124  2.1774 -1.2630 -1.0910
 9179TIP3    H251733   4.272   0.416   1.263  0.5910 -0.2247 -0.2388
 9180TIP3   OH251734   2.481   4.719   1.203 -0.2846  0.1573  0.4877
 9180TIP3    H151735   2.545   4.756   1.264  0.7570 -0.6801 -0.0603
 9180TIP3    H251736   2.468   4.787   1.137  0.9827 -0.1043 -0.0592
 9181TIP3   OH251737   5.458   5.952   0.270 -0.4492 -0.0717  0.4032
 9181TIP3    H151738   5.455   5.965   0.365 -1.0427 -0.3238  0.4208
 9181TIP3    H251739   5.482   5.859   0.260 -0.9286 -0.1858  0.3114
 9182TIP3   OH251740   3.997   2.095   9.614  0.4089 -0.2489 -0.6064
 9182TIP3    H151741   3.998   2.056   9.701  0.6100  0.0449 -0.4719
 9182TIP3    H251742   4.057   2.170   9.621  1.5440 -1.0479 -1.3840
 9183TIP3   OH251743   3.630   1.698   8.632 -0.2137 -0.2263 -0.5071
 9183TIP3    H151744   3.561   1.648   8.676 -1.0625  0.1992 -1.3198
 9183TIP3    H251745   3.651   1.646   8.555  1.0965 -0.8446  0.2203
 9184TIP3   OH251746   1.283   2.567   0.502 -0.4883  0.8758 -0.1987
 9184TIP3    H151747   1.271   2.524   0.587 -2.2259  0.6833 -0.4883
 9184TIP3    H251748   1.233   2.648   0.510 -0.7744  0.7933 -1.0708
 9185TIP3   OH251749   0.453   6.688   1.702  0.6951 -0.5706 -0.0423
 9185TIP3    H151750   0.429   6.637   1.779  0.2305 -0.0562  0.1583
 9185TIP3    H251751   0.369   6.713   1.662  0.9157  0.1413 -0.0648
 9186TIP3   OH251752   5.479   3.672   8.055  0.3742 -0.7605  0.1915
 9186TIP3    H151753   5.561   3.669   8.005  0.1643  1.9048 -0.4298
 9186TIP3    H251754   5.506   3.675   8.146  0.9950  0.0406 -0.0072
 9187TIP3   OH251755   6.099   7.636   1.230  0.3885 -0.3781 -0.0944
 9187TIP3    H151756   6.173   7.584   1.260  0.4883  0.5402  1.4141
 9187TIP3    H251757   6.138   7.704   1.175  0.7019  0.1352  0.7391
 9188TIP3   OH251758   0.780   3.813   1.082  0.0167 -0.3470  0.3647
 9188TIP3    H151759   0.725   3.736   1.099 -0.9083  0.1544 -0.2366
 9188TIP3    H251760   0.869   3.785   1.104  0.0666 -2.3097 -1.8399
 9189TIP3   OH251761   3.910   1.707   1.235  0.5052  0.3470 -0.5203
 9189TIP3    H151762   3.912   1.793   1.193  1.3770  1.9182  2.4518
 9189TIP3    H251763   4.000   1.694   1.267  0.2213 -1.3875 -0.3225
 9190TIP3   OH251764   5.139   3.059   0.580  0.3663 -0.0317  0.2275
 9190TIP3    H151765   5.103   3.099   0.659  0.2317 -1.0622  0.6979
 9190TIP3    H251766   5.067   3.006   0.545 -0.2405  1.8555 -1.6667
 9191TIP3   OH251767   5.476   7.195   8.172 -0.0383  0.1736 -0.8631
 9191TIP3    H151768   5.525   7.227   8.096  1.6310  0.0768  0.1422
 9191TIP3    H251769   5.502   7.103   8.180  2.0409  0.8709  1.4604
 9192TIP3   OH251770   7.195   7.137   7.865 -0.2216 -0.6547 -0.3414
 9192TIP3    H151771   7.231   7.224   7.883  0.9274 -1.2771  0.5105
 9192TIP3    H251772   7.158   7.108   7.948 -1.5954 -0.5597 -0.8894
 9193TIP3   OH251773   4.966   5.235   0.698  0.2340 -0.3334 -0.0478
 9193TIP3    H151774   5.020   5.311   0.678 -3.4582  2.3403 -0.8058
 9193TIP3    H251775   4.985   5.172   0.628  1.4515  0.9860 -0.9454
 9194TIP3   OH251776   1.993   1.413   9.678 -0.6507  0.1287 -0.0001
 9194TIP3    H151777   1.971   1.346   9.614  1.9453 -1.0997  0.2684
 9194TIP3    H251778   2.088   1.423   9.671 -0.5324  1.3653  2.3191
 9195TIP3   OH251779   1.696   4.649   2.288 -0.4524  0.1727 -0.5983
 9195TIP3    H151780   1.776   4.599   2.303 -1.7466 -1.3673  1.6364
 9195TIP3    H251781   1.672   4.682   2.374 -2.1288  0.7854 -1.2660
 9196TIP3   OH251782   3.451   6.570   9.711  0.0812 -0.8346  0.1639
 9196TIP3    H151783   3.459   6.538   9.621 -1.9379 -1.3874  0.1453
 9196TIP3    H251784   3.463   6.492   9.765 -0.6862 -0.8757  0.2831
 9197TIP3   OH251785   4.778   5.826   2.099 -0.1747  0.8168 -0.0640
 9197TIP3    H151786   4.764   5.764   2.171  0.9681  0.4735 -0.1161
 9197TIP3    H251787   4.695   5.828   2.053  0.1345 -1.8369 -0.9259
 9198TIP3   OH251788   5.104   6.042   8.792 -0.1592  0.2243 -0.0427
 9198TIP3    H151789   5.112   5.958   8.837 -0.3770  1.3423  2.1874
 9198TIP3    H251790   5.013   6.046   8.764 -0.3584  0.0644  0.5745
 9199TIP3   OH251791   2.498   5.248   1.766 -0.2660  0.1363 -0.1597
 9199TIP3    H151792   2.508   5.270   1.674 -0.6685  0.7461 -0.0681
 9199TIP3    H251793   2.423   5.187   1.768  0.2826 -0.5546 -0.3193
 9200TIP3   OH251794   2.004   4.571   8.429  0.4547  0.6229 -0.3220
 9200TIP3    H151795   1.971   4.555   8.517  0.7989  0.6264 -0.1922
 9200TIP3    H251796   2.015   4.483   8.391  0.4861  0.6149 -0.2941
 9201TIP3   OH251797   2.079   0.774   9.607 -0.1026  0.3315  0.0530
 9201TIP3    H151798   2.085   0.749   9.699 -2.3206 -3.2242 -0.5618
 9201TIP3    H251799   2.133   0.710   9.561  0.3683  1.5864 -1.2136
 9202TIP3   OH251800   4.822   4.599   0.198 -0.1811  0.5513  0.2444
 9202TIP3    H151801   4.756   4.534   0.175 -1.0926  1.4050  0.3928
 9202TIP3    H251802   4.806   4.673   0.138  2.3154 -0.2071 -1.5477
 9203TIP3   OH251803   4.562   1.890   7.640  0.5560 -0.3527 -0.2495
 9203TIP3    H151804   4.496   1.885   7.571  0.7950  1.4492 -0.6573
 9203TIP3    H251805   4.545   1.973   7.684  2.7115  0.3195 -0.5582
 9204TIP3   OH251806   4.761   1.263   0.322 -0.1994 -0.3165  0.4885
 9204TIP3    H151807   4.830   1.226   0.267 -1.5179 -0.7918 -0.8951
 9204TIP3    H251808   4.766   1.214   0.404  0.2818 -1.1980 -0.0649
 9205TIP3   OH251809   6.736   3.918   8.031  0.0543  0.4319  0.3980
 9205TIP3    H151810   6.817   3.931   8.081 -0.6641 -0.6266  1.9322
 9205TIP3    H251811   6.677   3.986   8.064 -0.0892  0.4038  0.1998
 9206TIP3   OH251812   2.203   4.585   1.022 -0.3320 -0.6578  0.0179
 9206TIP3    H151813   2.142   4.658   1.031 -1.0416 -1.2561  0.1582
 9206TIP3    H251814   2.217   4.576   0.928  2.0028  1.4540  0.0552
 9207TIP3   OH251815   0.318   3.757   2.135  0.6321  0.2489  0.3471
 9207TIP3    H151816   0.287   3.765   2.225 -0.3591  0.5895 -0.0183
 9207TIP3    H251817   0.244   3.783   2.081  0.8246 -1.0560 -0.6083
 9208TIP3   OH251818   5.555   0.170   8.579  0.8201  0.4667  0.0523
 9208TIP3    H151819   5.477   0.215   8.548 -0.5509  0.2965  2.8900
 9208TIP3    H251820   5.572   0.208   8.665  1.4806 -2.1802  1.2017
 9209TIP3   OH251821   3.033   3.089   7.392 -0.2656 -0.2394  0.2135
 9209TIP3    H151822   3.009   3.012   7.444  1.2682  0.0980  1.4954
 9209TIP3    H251823   3.126   3.077   7.374 -0.3268  0.6423 -0.7657
 9210TIP3   OH251824   3.566   0.689   0.092 -0.6237  0.0952 -0.1309
 9210TIP3    H151825   3.608   0.603   0.085 -4.4447 -1.9945  0.1127
 9210TIP3    H251826   3.549   0.700   0.185 -2.4381 -0.1726 -0.3974
 9211TIP3   OH251827   4.532   0.091   8.689 -0.8532  0.0367  0.3969
 9211TIP3    H151828   4.624   0.067   8.676 -0.3638  0.6629  2.3216
 9211TIP3    H251829   4.531   0.136   8.774 -2.8322  0.6853  0.0766
 9212TIP3   OH251830   7.330   1.224   7.587 -0.0264  0.1912  0.5020
 9212TIP3    H151831   7.345   1.164   7.660  0.5536 -0.2696  0.0142
 9212TIP3    H251832   7.405   1.283   7.589  1.1778 -1.1980 -1.0434
 9213TIP3   OH251833   5.008   6.582   0.608 -0.0173 -0.2156  0.6256
 9213TIP3    H151834   5.052   6.497   0.599 -1.3343 -0.7194 -2.9212
 9213TIP3    H251835   4.937   6.566   0.670 -0.6654 -1.9762 -0.4951
 9214TIP3   OH251836   1.859   3.778   9.763  0.4422  0.3715 -0.0703
 9214TIP3    H151837   1.782   3.740   9.807  1.7797 -0.6709  1.5020
 9214TIP3    H251838   1.845   3.872   9.768 -0.9625  0.1927 -0.2513
 9215TIP3   OH251839   0.359   5.825   1.315 -0.5292 -0.0607  0.3999
 9215TIP3    H151840   0.419   5.864   1.252 -0.8388  1.1707  0.8434
 9215TIP3    H251841   0.280   5.805   1.265 -0.4796  0.1780  0.2247
 9216TIP3   OH251842   1.693   2.061   0.645  0.2672 -0.2498 -0.4090
 9216TIP3    H151843   1.676   2.144   0.600 -0.6016  0.1586  0.6196
 9216TIP3    H251844   1.623   2.056   0.711  0.3970 -1.7285 -0.3668
 9217TIP3   OH251845   2.686   3.420   9.148  0.0860 -0.8850  0.5132
 9217TIP3    H151846   2.722   3.452   9.230  0.4496 -1.5563  0.6253
 9217TIP3    H251847   2.734   3.468   9.080 -0.9469  0.4403  0.6844
 9218TIP3   OH251848   4.514   3.139   0.359 -0.0881  0.5770  0.1119
 9218TIP3    H151849   4.446   3.189   0.403  0.8333  1.2787  0.7739
 9218TIP3    H251850   4.564   3.204   0.309 -0.3428 -0.0314 -0.9671
 9219TIP3   OH251851   0.545   6.242   0.764 -0.3325  0.0173  0.0102
 9219TIP3    H151852   0.544   6.162   0.816 -0.4444  0.6868  1.0702
 9219TIP3    H251853   0.474   6.232   0.701  0.4980 -1.2737 -0.7672
 9220TIP3   OH251854   2.931   3.947   1.028  0.3192 -0.3400  0.1011
 9220TIP3    H151855   2.920   3.937   0.933  1.5048  1.0400 -0.2169
 9220TIP3    H251856   2.881   4.026   1.050 -0.9916 -1.3349  0.8858
 9221TIP3   OH251857   2.266   1.634   8.682  0.0094  0.1066  0.4486
 9221TIP3    H151858   2.214   1.608   8.606  1.3463 -0.5042 -0.2991
 9221TIP3    H251859   2.254   1.563   8.745 -1.8313  1.0395  1.2389
 9222TIP3   OH251860   4.976   5.972   7.381  0.1321 -0.1783  0.4721
 9222TIP3    H151861   4.902   5.988   7.322 -0.3174 -1.5779  0.6366
 9222TIP3    H251862   4.976   5.878   7.395 -0.5477  0.1887  3.6979
 9223TIP3   OH251863   6.732   6.837   1.437 -0.6687 -0.2133 -0.7499
 9223TIP3    H151864   6.730   6.932   1.429  1.4971 -0.0722 -0.3172
 9223TIP3    H251865   6.670   6.817   1.507  0.9619  1.2024  1.2120
 9224TIP3   OH251866   5.815   6.471   0.189  0.3222 -0.3819 -0.4699
 9224TIP3    H151867   5.839   6.478   0.281 -2.3201  0.2647  0.2524
 9224TIP3    H251868   5.819   6.377   0.170  1.3554 -0.4729  0.1351
 9225TIP3   OH251869   0.219   7.346   2.044  0.3083 -0.1463  0.4689
 9225TIP3    H151870   0.244   7.373   2.133 -0.4999  0.9484  0.3934
 9225TIP3    H251871   0.200   7.253   2.051  0.3092 -0.0845  1.4456
 9226TIP3   OH251872   2.964   5.753   7.826  0.3190 -0.1668 -0.1467
 9226TIP3    H151873   3.003   5.673   7.861 -0.9544 -1.4147 -1.4188
 9226TIP3    H251874   3.038   5.806   7.798  1.2629 -0.1002  2.2532
 9227TIP3   OH251875   1.896   2.416   0.725 -0.0410  0.5375  0.0090
 9227TIP3    H151876   1.924   2.507   0.712  0.5341  0.1227 -2.0268
 9227TIP3    H251877   1.804   2.415   0.701 -0.2202  0.6781  0.6541
 9228TIP3   OH251878   4.233   5.662   0.754  0.1980 -0.3900  0.4358
 9228TIP3    H151879   4.196   5.735   0.704 -1.2387 -0.5823  1.1742
 9228TIP3    H251880   4.305   5.630   0.700 -2.3079 -1.7149 -2.4459
 9229TIP3   OH251881   6.533   3.030   9.917 -0.0285  0.4730 -0.2267
 9229TIP3    H151882   6.620   3.070   9.922 -0.0669  0.4579  0.7075
 9229TIP3    H251883   6.507   3.017  10.008 -0.6944 -0.2167 -0.5019
 9230TIP3   OH251884   2.990   3.856   9.402 -0.5348  0.2058 -0.2253
 9230TIP3    H151885   2.956   3.800   9.332  1.2306 -0.4696 -0.5875
 9230TIP3    H251886   2.974   3.945   9.371 -0.4127 -0.0952 -1.1759
 9231TIP3   OH251887   1.335   2.728   8.731 -0.0601 -0.2096  0.2521
 9231TIP3    H151888   1.386   2.806   8.752  0.8095 -0.6272 -0.2268
 9231TIP3    H251889   1.362   2.664   8.797 -0.6409 -0.1636  0.5385
 9232TIP3   OH251890   0.293   6.557   1.893 -0.3395  0.3351  0.5527
 9232TIP3    H151891   0.217   6.615   1.885  0.7453  1.6339 -1.1428
 9232TIP3    H251892   0.282   6.494   1.821 -0.4746 -0.3089  1.1306
 9233TIP3   OH251893   2.826   3.327   0.651  0.3923  0.3417  0.3405
 9233TIP3    H151894   2.874   3.310   0.732  1.7886  0.1149 -0.4824
 9233TIP3    H251895   2.890   3.373   0.595  0.1953 -1.3643 -1.3855
 9234TIP3   OH251896   5.706   3.864   9.619 -0.4379 -0.3521  0.4701
 9234TIP3    H151897   5.786   3.831   9.661  1.3822  1.7656 -1.1288
 9234TIP3    H251898   5.680   3.795   9.559  0.3244 -0.9732  0.8361
 9235TIP3   OH251899   6.780   6.648   8.103 -0.3460  0.5281  0.3000
 9235TIP3    H151900   6.721   6.694   8.043 -1.3704  1.5543  1.9891
 9235TIP3    H251901   6.745   6.559   8.107 -0.4175  0.5185 -0.4045
 9236TIP3   OH251902   0.437   2.084   1.447  0.5881 -0.2983  0.2277
 9236TIP3    H151903   0.362   2.133   1.481  0.7579  0.3634 -0.3253
 9236TIP3    H251904   0.510   2.111   1.502  0.2680 -1.7100  1.4363
 9237TIP3   OH251905   0.774   2.323   9.848 -0.4063  0.4518 -0.3713
 9237TIP3    H151906   0.791   2.338   9.941 -1.3821  1.6442 -0.3621
 9237TIP3    H251907   0.836   2.381   9.803 -1.1089  1.1891 -0.4158
 9238TIP3   OH251908   5.203   0.713   0.786 -0.4203  0.2533  0.8356
 9238TIP3    H151909   5.180   0.691   0.876 -0.4326 -0.8935  0.5655
 9238TIP3    H251910   5.269   0.648   0.762 -1.6155 -0.5111 -0.5331
 9239TIP3   OH251911   6.468   2.999   9.545  0.2868  0.1481  0.4023
 9239TIP3    H151912   6.394   3.030   9.493  0.3549  1.5915  1.1143
 9239TIP3    H251913   6.429   2.965   9.626  0.3316 -0.1464  0.3031
 9240TIP3   OH251914   7.576   3.987   0.358 -0.0236  0.3861  0.0744
 9240TIP3    H151915   7.569   3.999   0.264  1.5615  2.8525  0.1686
 9240TIP3    H251916   7.494   3.946   0.384 -1.3336  1.4928 -2.1037
 9241TIP3   OH251917   2.415   0.691   1.155  0.7269  0.3480 -0.5779
 9241TIP3    H151918   2.334   0.714   1.109  0.0605 -0.2363  0.2813
 9241TIP3    H251919   2.440   0.771   1.202 -0.4962 -0.0455  0.8047
 9242TIP3   OH251920   1.270   2.749   1.136  0.0541  0.0831 -0.3230
 9242TIP3    H151921   1.308   2.793   1.212 -1.9971 -0.5272  1.1279
 9242TIP3    H251922   1.176   2.769   1.141 -1.3729 -5.3931  1.2587
 9243TIP3   OH251923   0.488   3.187   7.732  0.0118 -0.3549  0.2349
 9243TIP3    H151924   0.397   3.210   7.718  0.1491 -1.0218 -2.1591
 9243TIP3    H251925   0.523   3.172   7.645  2.2127 -0.9093  1.1372
 9244TIP3   OH251926   2.687   0.806   1.614  0.3130  0.6420  0.0868
 9244TIP3    H151927   2.654   0.865   1.547  0.9611  1.9198  0.8571
 9244TIP3    H251928   2.654   0.842   1.696 -0.4860 -0.9067  0.5015
 9245TIP3   OH251929   4.675   0.030   9.169 -0.1896 -0.6106  0.7141
 9245TIP3    H151930   4.699   0.113   9.210  0.7697  0.4529 -1.8137
 9245TIP3    H251931   4.611   0.054   9.102 -0.5164 -2.0567  0.4733
 9246TIP3   OH251932   3.476   4.540   1.560 -0.2670  0.4315 -0.1007
 9246TIP3    H151933   3.495   4.512   1.649 -1.2110  0.3531  0.0866
 9246TIP3    H251934   3.561   4.543   1.517 -0.1233 -3.8726 -0.4933
 9247TIP3   OH251935   4.578   6.708   2.213  0.3573 -0.0911  0.0957
 9247TIP3    H151936   4.661   6.693   2.257  0.1217 -0.9267  0.2647
 9247TIP3    H251937   4.589   6.669   2.126  0.3099  0.2332 -0.0569
 9248TIP3   OH251938   0.788   1.201   0.637  0.1326 -0.5035 -0.0910
 9248TIP3    H151939   0.847   1.248   0.578  0.6903 -0.3765  0.5509
 9248TIP3    H251940   0.785   1.112   0.602 -0.7796 -0.0569 -1.2061
 9249TIP3   OH251941   0.220   5.579   2.802  0.4955 -0.2996 -0.0678
 9249TIP3    H151942   0.277   5.531   2.743  0.0938 -0.6753 -0.1547
 9249TIP3    H251943   0.138   5.590   2.753 -0.0090 -1.0309  0.5897
 9250TIP3   OH251944   5.776   0.900   9.059 -0.2268  0.9879 -0.6860
 9250TIP3    H151945   5.842   0.886   8.992 -0.5408 -0.6132 -0.7074
 9250TIP3    H251946   5.809   0.972   9.111  0.8482  1.1340 -1.5329
 9251TIP3   OH251947   7.208   4.954   9.043 -0.0154 -0.0422 -0.3652
 9251TIP3    H151948   7.231   4.941   8.951  1.1755  0.2362 -0.1264
 9251TIP3    H251949   7.193   4.866   9.077 -0.2067 -0.1654 -0.7669
 9252TIP3   OH251950   4.759   1.490   0.462 -0.0424 -0.5972  0.9367
 9252TIP3    H151951   4.666   1.499   0.483 -0.2344  0.7887 -0.3114
 9252TIP3    H251952   4.769   1.399   0.436 -1.1712 -0.6407  0.6022
 9253TIP3   OH251953   0.233   5.080   1.008  0.1539  0.4413  0.1913
 9253TIP3    H151954   0.217   5.114   0.920 -1.8308  0.5379  0.5487
 9253TIP3    H251955   0.309   5.023   0.998  2.1051  3.0359 -0.9000
 9254TIP3   OH251956   1.959   3.516   0.675 -1.1525  0.5734 -0.3714
 9254TIP3    H151957   1.967   3.611   0.686 -2.6644  0.6239  0.5907
 9254TIP3    H251958   1.927   3.505   0.585 -3.0843  1.1413  0.2076
 9255TIP3   OH251959   1.150   2.405   0.715 -0.3009  0.5761  0.5358
 9255TIP3    H151960   1.198   2.322   0.713 -1.6181 -0.2415  1.4125
 9255TIP3    H251961   1.187   2.452   0.790  0.4503  0.8081  0.0360
 9256TIP3   OH251962   2.438   1.109   9.488 -0.4145 -0.1414 -0.0557
 9256TIP3    H151963   2.365   1.146   9.439  0.2463 -0.2662 -1.1854
 9256TIP3    H251964   2.510   1.106   9.424  0.9451  1.1012  1.3391
 9257TIP3   OH251965   5.062   7.566   0.429  0.3336 -0.1682  0.4867
 9257TIP3    H151966   5.091   7.556   0.338 -1.4785  0.6283 -0.2396
 9257TIP3    H251967   5.121   7.630   0.467  1.3633 -0.8084  0.0059
 9258TIP3   OH251968   3.098   1.041   8.061  0.2328  0.5357 -0.5179
 9258TIP3    H151969   3.175   1.071   8.109  0.0256  0.5776 -0.2074
 9258TIP3    H251970   3.069   0.963   8.108 -0.5073  1.0924 -0.0154
 9259TIP3   OH251971   5.079   1.528   9.264  0.2532 -0.0617  0.4855
 9259TIP3    H151972   5.021   1.453   9.254 -0.5145  0.1263  2.8775
 9259TIP3    H251973   5.046   1.593   9.201 -0.1383 -1.0724 -0.3883
 9260TIP3   OH251974   5.463   4.296   1.501 -0.1248  0.1055  0.2457
 9260TIP3    H151975   5.412   4.253   1.433  0.7672  1.6913 -1.5196
 9260TIP3    H251976   5.402   4.358   1.541 -0.3802 -0.1318  0.2305
 9261TIP3   OH251977   1.985   5.795   9.700 -0.4330 -0.1514 -0.4525
 9261TIP3    H151978   1.929   5.822   9.773  0.9683  0.7611  0.3553
 9261TIP3    H251979   2.062   5.757   9.743  1.0232  1.6123 -1.3519
 9262TIP3   OH251980   3.524   7.607   0.501 -0.3034 -0.3768  0.7805
 9262TIP3    H151981   3.544   7.517   0.525  0.9526  0.0679  1.4750
 9262TIP3    H251982   3.534   7.609   0.406  3.2544 -0.2141  1.0120
 9263TIP3   OH251983   4.434   7.468   7.232  0.1953 -0.2433  0.7125
 9263TIP3    H151984   4.384   7.548   7.249 -1.2206 -1.2137  1.3084
 9263TIP3    H251985   4.516   7.480   7.281  0.4926  1.2862 -0.0958
 9264TIP3   OH251986   0.222   1.956   2.657 -0.5044  0.4760  0.0204
 9264TIP3    H151987   0.235   1.943   2.563  0.1879  1.5274 -0.0560
 9264TIP3    H251988   0.198   1.870   2.691  1.7424 -0.5327 -0.7233
 9265TIP3   OH251989   5.126   6.902   1.833 -0.0222  0.3927 -0.1347
 9265TIP3    H151990   5.219   6.881   1.822  0.4116  2.1942 -0.2081
 9265TIP3    H251991   5.114   6.906   1.928 -0.6707 -2.2384 -0.0041
 9266TIP3   OH251992   6.290   6.845   8.901 -0.0985  0.0736 -0.1711
 9266TIP3    H151993   6.252   6.802   8.825  1.5738  0.2928 -1.1895
 9266TIP3    H251994   6.279   6.782   8.972  1.5995 -1.7865 -1.4439
 9267TIP3   OH251995   7.647   0.364   9.752 -0.5280  0.5611  0.6480
 9267TIP3    H151996   7.735   0.401   9.760 -0.0096 -0.3424 -0.5006
 9267TIP3    H251997   7.594   0.435   9.715  0.1382  0.5918 -0.2816
 9268TIP3   OH251998   4.756   5.890   0.657  0.1246  0.1671 -0.1561
 9268TIP3    H151999   4.758   5.832   0.580  0.4555 -0.3566  0.2445
 9268TIP3    H252000   4.711   5.839   0.724 -0.3294  0.6957 -0.0543
 9269TIP3   OH252001   5.683   2.202   8.544  0.0402 -0.1026 -0.1996
 9269TIP3    H152002   5.668   2.274   8.605  1.1026  0.3610 -0.4608
 9269TIP3    H252003   5.628   2.131   8.576 -0.7636  0.7178  0.2569
 9270TIP3   OH252004   0.425   3.077   0.685 -0.0050  0.0322  0.5726
 9270TIP3    H152005   0.372   3.111   0.613  0.6350  0.7086  0.4113
 9270TIP3    H252006   0.431   2.983   0.668  2.1607  0.4947 -1.6277
 9271TIP3   OH252007   6.861   2.467   1.961 -0.1718  0.0791  0.1319
 9271TIP3    H152008   6.945   2.481   1.918 -0.4178  0.3673 -0.2609
 9271TIP3    H252009   6.872   2.387   2.011 -0.2705 -0.9686 -1.4518
 9272TIP3   OH252010   6.864   5.856   8.701  0.6364  0.8945 -0.3602
 9272TIP3    H152011   6.803   5.901   8.642 -2.6913 -2.1264  0.4458
 9272TIP3    H252012   6.843   5.890   8.788 -0.2245 -0.3679 -0.0423
 9273TIP3   OH252013   7.626   4.356   9.958  0.5337  0.2086 -0.5897
 9273TIP3    H152014   7.709   4.314   9.937  0.1614 -0.1342 -1.4050
 9273TIP3    H252015   7.641   4.397  10.043  0.4077 -3.0645  1.1856
 9274TIP3   OH252016   3.451   5.101   9.780 -0.4051 -0.1604  0.3429
 9274TIP3    H152017   3.389   5.036   9.747  0.3189 -0.6402 -0.1154
 9274TIP3    H252018   3.523   5.099   9.717  0.2469  0.1244  1.0646
 9275TIP3   OH252019   0.893   3.378   7.894 -0.5066  0.3207  0.1313
 9275TIP3    H152020   0.965   3.441   7.895 -1.0067  1.0416  3.2972
 9275TIP3    H252021   0.919   3.310   7.956 -2.7427  1.0432  2.0624
 9276TIP3   OH252022   0.276   5.111   8.926 -0.4235  0.5265  0.0121
 9276TIP3    H152023   0.281   5.192   8.978 -1.4429  0.2351  0.5992
 9276TIP3    H252024   0.297   5.041   8.987 -0.1277  0.2913 -0.3525
 9277TIP3   OH252025   1.284   7.030   7.855 -0.0309 -0.1807 -0.2359
 9277TIP3    H152026   1.362   7.077   7.826  0.6486  0.6074  2.5888
 9277TIP3    H252027   1.317   6.945   7.884  0.2180  0.8973  2.9238
 9278TIP3   OH252028   2.407   6.803   2.637 -0.0103 -0.1035 -0.3066
 9278TIP3    H152029   2.334   6.784   2.696  0.1942 -1.4571 -0.4679
 9278TIP3    H252030   2.391   6.893   2.608 -0.1891  0.5617  1.6724
 9279TIP3   OH252031   1.905   5.535   9.898 -0.1938  0.2813 -0.5256
 9279TIP3    H152032   1.971   5.517   9.965  0.0019  2.6021 -0.0091
 9279TIP3    H252033   1.952   5.580   9.829 -1.1190  1.5796 -0.3520
 9280TIP3   OH252034   4.531   2.268   0.167 -0.2542 -0.8966 -0.1215
 9280TIP3    H152035   4.472   2.250   0.094 -0.4510 -2.0124  0.2955
 9280TIP3    H252036   4.478   2.320   0.228  0.2849  1.1307 -1.2809
 9281TIP3   OH252037   1.642   3.688   9.934 -0.0593 -0.5397  0.1589
 9281TIP3    H152038   1.638   3.668  10.028 -0.4923 -2.2513 -0.1838
 9281TIP3    H252039   1.562   3.735   9.916 -1.3419 -2.5845  0.1842
 9282TIP3   OH252040   2.870   7.029   0.774  0.3717 -0.1928  0.5147
 9282TIP3    H152041   2.817   6.949   0.775  0.9004 -0.5516  0.3559
 9282TIP3    H252042   2.816   7.095   0.818 -0.1698 -0.5736  0.4248
 9283TIP3   OH252043   2.917   4.072   1.862  0.5464  0.5022 -0.6659
 9283TIP3    H152044   2.893   4.060   1.770 -0.2910  3.1221 -0.8749
 9283TIP3    H252045   2.971   4.151   1.863  1.8139 -0.3245  0.9498
 9284TIP3   OH252046   6.944   7.675   0.159 -0.4801 -0.7102 -0.4195
 9284TIP3    H152047   6.946   7.667   0.254  1.6631 -2.4626 -0.5235
 9284TIP3    H252048   6.917   7.589   0.128  1.5258 -1.0480 -1.3945
 9285TIP3   OH252049   4.396   4.873   1.312  0.2618 -0.3171 -0.1556
 9285TIP3    H152050   4.384   4.779   1.300  1.0629 -0.6186  1.2047
 9285TIP3    H252051   4.308   4.909   1.302  0.2671 -0.8350 -3.2643
 9286TIP3   OH252052   6.792   4.270   9.685 -0.2213  0.0911  0.0657
 9286TIP3    H152053   6.755   4.331   9.750  1.3355  0.5632  0.5467
 9286TIP3    H252054   6.770   4.184   9.719 -0.7940  0.3513  0.3800
 9287TIP3   OH252055   0.036   7.648   0.529 -0.5413  0.1676  0.4227
 9287TIP3    H152056   0.108   7.595   0.564 -0.3865 -0.2195 -0.4746
 9287TIP3    H252057  -0.042   7.598   0.549 -0.3570 -0.6792 -0.8906
 9288TIP3   OH252058   6.814   5.627   9.100 -0.3600 -0.1700  0.0422
 9288TIP3    H152059   6.851   5.715   9.112  0.0254 -0.0641 -1.6263
 9288TIP3    H252060   6.786   5.626   9.009 -1.3889 -1.4168  0.3557
 9289TIP3   OH252061   6.811   4.330   8.048  0.3070 -0.4440  0.0949
 9289TIP3    H152062   6.806   4.362   7.957  1.4810 -0.9992 -0.1845
 9289TIP3    H252063   6.838   4.239   8.040 -0.3911 -0.7388  0.9848
 9290TIP3   OH252064   4.483   2.598   1.552  0.2860  0.8302 -0.2430
 9290TIP3    H152065   4.502   2.630   1.640  0.5488  0.0499 -0.0064
 9290TIP3    H252066   4.522   2.510   1.549  3.1170  2.0008 -2.1972
 9291TIP3   OH252067   3.712   2.136   1.961  0.3940 -0.7432 -0.3071
 9291TIP3    H152068   3.629   2.096   1.934  0.1834  0.6372 -1.8688
 9291TIP3    H252069   3.744   2.180   1.882  0.9352  1.5916  1.1176
 9292TIP3   OH252070   0.810   5.523   7.968 -0.5976 -0.3010  0.1901
 9292TIP3    H152071   0.905   5.526   7.981 -0.4728  1.4608 -0.7399
 9292TIP3    H252072   0.776   5.589   8.029 -0.6579  2.7733 -2.8205
 9293TIP3   OH252073   0.123   7.065   2.118  0.4828  0.4081  0.0906
 9293TIP3    H152074   0.044   7.041   2.167  0.2089 -1.5303 -1.1940
 9293TIP3    H252075   0.190   7.077   2.185 -0.5357  0.6182  1.1066
 9294TIP3   OH252076   1.992   0.213   8.314 -0.0978  0.2688  0.1265
 9294TIP3    H152077   2.015   0.139   8.258  0.5123  0.5547 -0.0086
 9294TIP3    H252078   1.912   0.249   8.275 -0.5938 -0.5157  0.3932
 9295TIP3   OH252079   4.118   4.760   1.481 -0.3972  0.1187  0.0925
 9295TIP3    H152080   4.118   4.727   1.570 -1.4160 -0.3138 -0.0535
 9295TIP3    H252081   4.147   4.686   1.427  0.8475  0.5709  0.1155
 9296TIP3   OH252082   4.741   2.097   0.228  0.1639  0.4512 -0.1544
 9296TIP3    H152083   4.661   2.145   0.251 -0.3323 -0.5936  0.3627
 9296TIP3    H252084   4.716   2.045   0.152  0.0887 -0.5378  0.5385
 9297TIP3   OH252085   1.132   5.673   9.845  0.3340 -0.4287 -0.1096
 9297TIP3    H152086   1.164   5.682   9.755  0.2330 -1.2252 -0.2335
 9297TIP3    H252087   1.038   5.659   9.836 -0.2120  2.4110  0.2790
 9298TIP3   OH252088   1.116   4.688   8.131  0.1276 -0.1538 -0.7793
 9298TIP3    H152089   1.023   4.670   8.148  0.1786  1.1109  1.1415
 9298TIP3    H252090   1.153   4.707   8.218  1.8895  0.6896 -1.6683
 9299TIP3   OH252091   5.345   3.957   9.025 -0.1027 -0.1473 -0.2000
 9299TIP3    H152092   5.413   4.024   9.025  0.0731 -0.3194 -1.1563
 9299TIP3    H252093   5.263   4.006   9.019 -0.0038  0.0095 -0.2742
 9300TIP3   OH252094   3.118   5.719   8.890 -0.3397  0.0290 -0.1891
 9300TIP3    H152095   3.027   5.740   8.869  0.0452  1.9048 -0.1192
 9300TIP3    H252096   3.170   5.771   8.830  0.7073 -0.1020  0.5619
 9301TIP3   OH252097   2.853   5.178   0.642  0.2811  0.1841 -0.2260
 9301TIP3    H152098   2.762   5.199   0.661  0.4642  0.8836 -0.0933
 9301TIP3    H252099   2.870   5.219   0.557  0.7135  0.7680  0.1404
 9302TIP3   OH252100   6.761   0.558   1.595  0.4084  0.2462  0.2380
 9302TIP3    H152101   6.725   0.494   1.657 -0.0365  0.0870 -0.1708
 9302TIP3    H252102   6.818   0.506   1.539 -1.4401 -0.2278 -1.3357
 9303TIP3   OH252103   1.953   6.834   0.150 -0.1368  0.2179  0.1681
 9303TIP3    H152104   1.961   6.860   0.058  1.8090 -0.2609  0.1557
 9303TIP3    H252105   2.028   6.875   0.193  1.4303 -2.8386  0.6952
 9304TIP3   OH252106   4.127   2.636   1.978  0.3347 -0.0791 -0.2801
 9304TIP3    H152107   4.090   2.685   2.052  0.8158 -0.3352  0.1421
 9304TIP3    H252108   4.222   2.649   1.986  0.7809 -3.4768  1.6614
 9305TIP3   OH252109   7.142   4.359   8.640 -0.4770  0.2380 -0.3697
 9305TIP3    H152110   7.048   4.357   8.657 -0.0488  0.7215  2.5149
 9305TIP3    H252111   7.162   4.272   8.604 -1.8651 -0.2242 -0.0615
 9306TIP3   OH252112   1.197   2.549   8.993  0.8395  0.2284  0.0126
 9306TIP3    H152113   1.157   2.524   8.910 -0.7097  2.1342  0.1042
 9306TIP3    H252114   1.182   2.475   9.051 -1.3227  0.2869 -0.4007
 9307TIP3   OH252115   1.631   5.757   9.063 -0.3851  0.2735  0.3787
 9307TIP3    H152116   1.581   5.676   9.061  0.9183 -0.5369 -0.2719
 9307TIP3    H252117   1.716   5.733   9.097 -0.2580  1.5590  1.0614
 9308TIP3   OH252118   1.277   4.154   6.599  0.3531 -0.1521 -0.3239
 9308TIP3    H152119   1.202   4.192   6.645  1.6053  1.4379  0.4718
 9308TIP3    H252120   1.317   4.095   6.663  1.4616  1.2373  0.3098
 9309TIP3   OH252121   3.338   4.764   1.553 -0.2512 -0.3202  0.1657
 9309TIP3    H152122   3.269   4.764   1.620 -0.1858  1.0387  0.2672
 9309TIP3    H252123   3.381   4.679   1.563 -0.9670 -0.5982  1.0915
 9310TIP3   OH252124   2.964   0.969   1.896 -0.3544 -0.3180 -0.4293
 9310TIP3    H152125   2.871   0.953   1.915 -1.1606  3.2511 -0.5770
 9310TIP3    H252126   2.963   1.040   1.832  2.5210 -0.4637 -0.7549
 9311TIP3   OH252127   5.025   6.250   1.806 -0.7712 -0.2329 -0.6311
 9311TIP3    H152128   5.099   6.212   1.855 -0.3360 -0.4826 -1.4662
 9311TIP3    H252129   4.978   6.301   1.871 -0.6569 -1.1978  0.2391
 9312TIP3   OH252130   3.753   7.190   8.490 -0.1560 -0.2112 -0.2571
 9312TIP3    H152131   3.752   7.213   8.397 -1.9052  0.9731  0.0007
 9312TIP3    H252132   3.717   7.101   8.493  1.2897 -0.8384 -0.8046
 9313TIP3   OH252133   1.973   3.222   1.988 -0.1309 -0.2601  0.0745
 9313TIP3    H152134   2.000   3.148   2.044 -0.3027  0.8645  1.7088
 9313TIP3    H252135   2.048   3.237   1.931  0.3064 -1.0405  0.4202
 9314TIP3   OH252136   0.598   0.962   7.845 -0.1002 -0.0621 -0.3255
 9314TIP3    H152137   0.598   0.933   7.936  1.4365 -1.3863 -0.7179
 9314TIP3    H252138   0.542   1.040   7.845  0.3829  0.3392  1.8563
 9315TIP3   OH252139   6.594   0.127   1.242  0.2168 -0.2142  0.2650
 9315TIP3    H152140   6.640   0.137   1.326  0.6030  0.2370  0.0069
 9315TIP3    H252141   6.641   0.185   1.183  0.1573 -0.7926 -0.3524
 9316TIP3   OH252142   7.441   1.133   9.598 -0.3478 -0.3036 -0.2393
 9316TIP3    H152143   7.465   1.108   9.687 -1.7058  0.5954  0.4327
 9316TIP3    H252144   7.378   1.204   9.610 -0.2908  0.0830 -1.9374
 9317TIP3   OH252145   2.447   6.122   7.918 -0.5471  0.4806 -0.1836
 9317TIP3    H152146   2.458   6.028   7.925  0.3342  0.5493 -0.3974
 9317TIP3    H252147   2.356   6.135   7.892 -0.7619 -0.2890  0.1696
 9318TIP3   OH252148   5.627   0.022   1.667 -0.2035  0.0083 -0.0970
 9318TIP3    H152149   5.565   0.084   1.628  0.2768  0.5207 -0.0452
 9318TIP3    H252150   5.617  -0.057   1.614 -1.6100 -0.2565  0.5118
 9319TIP3   OH252151   5.374   6.468   2.080 -0.2877  0.1749 -0.3211
 9319TIP3    H152152   5.386   6.494   2.172 -2.3807 -2.6463  0.8918
 9319TIP3    H252153   5.437   6.397   2.067 -0.7682 -0.1763 -0.7287
 9320TIP3   OH252154   2.862   0.364   7.800 -0.2345  0.0379  0.7862
 9320TIP3    H152155   2.923   0.326   7.864  1.4744 -1.7252 -1.7056
 9320TIP3    H252156   2.899   0.450   7.781  0.5558 -0.3451  0.5284
 9321TIP3   OH252157   0.011   0.354   1.691 -0.6204 -0.0332 -0.0323
 9321TIP3    H152158   0.081   0.420   1.689 -2.0484  1.7382  2.6963
 9321TIP3    H252159  -0.057   0.391   1.634 -0.8739  0.2013  0.4171
 9322TIP3   OH252160   6.984   3.468   0.039  0.1301 -0.3109  0.3785
 9322TIP3    H152161   6.890   3.469   0.059 -0.0278 -0.8715 -0.2921
 9322TIP3    H252162   7.019   3.545   0.083 -0.9405  0.8522 -0.7058
 9323TIP3   OH252163   0.039   3.046   9.024 -0.1535 -0.2638 -0.5628
 9323TIP3    H152164   0.003   3.038   8.935  0.5900 -0.0151 -0.8923
 9323TIP3    H252165   0.124   3.002   9.020  0.0393  0.0543 -0.0693
 9324TIP3   OH252166   1.361   7.630   7.389 -1.2455 -0.2411  0.4041
 9324TIP3    H152167   1.434   7.569   7.383 -1.6711 -0.6961 -0.3472
 9324TIP3    H252168   1.401   7.717   7.392 -0.6556 -0.5299  0.7842
 9325TIP3   OH252169   3.073   3.099   0.382 -0.1932  0.3324  0.1116
 9325TIP3    H152170   2.999   3.096   0.322 -0.1019  2.3281 -0.1921
 9325TIP3    H252171   3.061   3.023   0.439 -1.6618 -0.1994 -0.8333
 9326TIP3   OH252172   7.187   2.156   2.685 -0.5261  0.7326  0.5212
 9326TIP3    H152173   7.099   2.145   2.647  0.1404  0.8864 -1.1592
 9326TIP3    H252174   7.191   2.249   2.709 -0.8224  0.7212  0.6220
 9327TIP3   OH252175   6.768   6.118   8.617  0.1483  0.0456 -0.0298
 9327TIP3    H152176   6.697   6.132   8.679 -0.9588  1.5730 -1.5432
 9327TIP3    H252177   6.774   6.201   8.568  1.7840 -0.6657 -1.1181
 9328TIP3   OH252178   6.406   1.950   8.362  0.4440  0.2538 -0.1451
 9328TIP3    H152179   6.311   1.952   8.353  0.4729  0.9326 -0.3432
 9328TIP3    H252180   6.435   2.036   8.334  0.9036  1.0675  2.5155
 9329TIP3   OH252181   0.407   0.610   9.152 -0.1731 -0.4508  0.0677
 9329TIP3    H152182   0.363   0.535   9.112  0.0869 -0.5706  0.0044
 9329TIP3    H252183   0.454   0.652   9.080 -0.9908  0.2594 -0.0598
 9330TIP3   OH252184   2.175   4.147   0.448 -0.2547  0.0195  0.2961
 9330TIP3    H152185   2.105   4.212   0.457  0.1784  0.7152 -1.0806
 9330TIP3    H252186   2.206   4.157   0.358 -0.9935 -2.9204 -0.4075
 9331TIP3   OH252187   3.797   4.132   2.089 -0.9164  0.1414 -0.1020
 9331TIP3    H152188   3.811   4.122   1.995 -0.4946 -1.3909  0.0856
 9331TIP3    H252189   3.731   4.066   2.110 -1.4706  0.8982  0.5858
 9332TIP3   OH252190   5.803   0.418   0.819 -0.1098  0.5057  0.3151
 9332TIP3    H152191   5.868   0.472   0.774 -1.5121  0.3625 -2.0454
 9332TIP3    H252192   5.853   0.373   0.888  1.8478  1.9127 -0.0932
 9333TIP3   OH252193   2.640   7.652   9.386 -0.3446  0.6227 -0.4834
 9333TIP3    H152194   2.577   7.587   9.417 -0.8209  0.8523 -0.9723
 9333TIP3    H252195   2.620   7.664   9.294  0.3720  0.7510 -0.6295
 9334TIP3   OH252196   4.815   7.028   2.136 -0.0660  0.1777  0.6099
 9334TIP3    H152197   4.826   7.115   2.098  1.6743  0.1048  0.8724
 9334TIP3    H252198   4.721   7.012   2.132 -0.2483  1.3674 -0.9971
 9335TIP3   OH252199   1.054   6.613   1.775  0.5398  0.4695 -0.4313
 9335TIP3    H152200   1.091   6.631   1.862 -1.0142  1.4993  0.0745
 9335TIP3    H252201   0.977   6.560   1.793  0.3624  0.4587 -1.2115
 9336TIP3   OH252202   1.278   5.040   8.154 -0.0371 -0.1739  0.0563
 9336TIP3    H152203   1.197   4.988   8.153  0.3943 -0.8792 -1.4584
 9336TIP3    H252204   1.293   5.059   8.246 -0.0142 -3.1103  0.7622
 9337TIP3   OH252205   2.320   2.182   8.992  0.2915  0.0392  0.0389
 9337TIP3    H152206   2.235   2.216   9.020 -0.1679 -0.2175 -0.9933
 9337TIP3    H252207   2.360   2.254   8.944  0.6019  0.1032  0.3824
 9338TIP3   OH252208   2.811   1.331   7.923  0.1194 -0.1274 -0.2906
 9338TIP3    H152209   2.739   1.390   7.948 -0.9955 -1.6020  0.1160
 9338TIP3    H252210   2.856   1.312   8.005 -0.8463 -1.5009 -0.0504
 9339TIP3   OH252211   6.704   3.464   1.586 -0.1907 -0.0726 -0.8134
 9339TIP3    H152212   6.677   3.552   1.558  0.9058 -0.2478 -2.5576
 9339TIP3    H252213   6.799   3.470   1.595 -0.0691 -1.1600 -1.2460
 9340TIP3   OH252214   2.400   4.240   9.630  0.1906 -0.0968  0.0329
 9340TIP3    H152215   2.376   4.296   9.556  1.8451 -0.8548 -1.1334
 9340TIP3    H252216   2.339   4.167   9.625  0.1153 -0.0071 -0.4206
 9341TIP3   OH252217   4.289   1.999   9.887  0.0464 -0.5987  0.0472
 9341TIP3    H152218   4.265   1.917   9.844 -0.8108 -2.1176  3.1387
 9341TIP3    H252219   4.292   1.978   9.980  2.5145  2.2632  0.8085
 9342TIP3   OH252220   1.858   3.721   7.648 -0.3945 -0.1359  0.2955
 9342TIP3    H152221   1.848   3.801   7.700  0.5091  0.1613  0.0216
 9342TIP3    H252222   1.770   3.705   7.614 -0.7801  0.2376  1.0713
 9343TIP3   OH252223   0.188   2.800   2.850  0.2070  0.4158  0.4892
 9343TIP3    H152224   0.234   2.853   2.916  0.9903  1.8619 -1.1373
 9343TIP3    H252225   0.255   2.741   2.816 -0.8547 -2.4196  2.8978
 9344TIP3   OH252226   2.867   2.943   1.905  0.4888  0.3591  0.0676
 9344TIP3    H152227   2.838   2.933   1.814 -0.6310  1.4460  0.2699
 9344TIP3    H252228   2.794   2.908   1.957  1.3868 -0.8347  0.5518
 9345TIP3   OH252229   5.492   7.434   1.266  0.5145 -0.1130  0.1803
 9345TIP3    H152230   5.427   7.469   1.326 -0.4533  0.2764 -1.0691
 9345TIP3    H252231   5.487   7.339   1.277  0.2390 -0.0511  0.5865
 9346TIP3   OH252232   1.987   4.706   0.418 -0.7185 -0.1861  0.0830
 9346TIP3    H152233   1.896   4.692   0.389 -0.9233  2.0102 -0.5653
 9346TIP3    H252234   2.009   4.793   0.385  1.4765 -0.4560  0.6776
 9347TIP3   OH252235   5.704   2.791   9.501  0.0155  0.1467  0.8794
 9347TIP3    H152236   5.625   2.805   9.554  0.3013  1.3308  1.0179
 9347TIP3    H252237   5.742   2.878   9.491 -0.0803 -0.0139 -1.3840
 9348TIP3   OH252238   4.654   3.973   1.641 -0.2121  0.4295 -0.1586
 9348TIP3    H152239   4.603   4.045   1.604  0.5877  1.6174  0.9593
 9348TIP3    H252240   4.635   3.976   1.734  0.3757 -0.3678 -0.0039
 9349TIP3   OH252241   5.009   7.621   7.874 -0.3360 -0.0254 -0.2965
 9349TIP3    H152242   4.984   7.709   7.904 -4.0917 -1.4682  1.4904
 9349TIP3    H252243   5.069   7.589   7.941 -2.0868 -0.1451  1.3240
 9350TIP3   OH252244   5.672   7.404   0.437 -0.1803  0.1673  0.3756
 9350TIP3    H152245   5.646   7.431   0.349 -0.8635  0.7460  0.7533
 9350TIP3    H252246   5.768   7.404   0.434 -0.1753  1.3508 -0.0212
 9351TIP3   OH252247   7.554   5.440   9.645  0.4636  0.5934 -0.3627
 9351TIP3    H152248   7.470   5.477   9.673  0.3222 -0.8975  1.3846
 9351TIP3    H252249   7.536   5.403   9.559 -1.2838 -1.3765  0.7365
 9352TIP3   OH252250   7.013   0.434   0.306 -0.0906 -0.3225 -0.1074
 9352TIP3    H152251   6.939   0.380   0.276 -0.6744 -0.0177  0.7431
 9352TIP3    H252252   7.091   0.386   0.276 -0.6171 -0.9946 -0.4422
 9353TIP3   OH252253   6.327   2.240   1.251 -0.5244  0.1924 -0.1152
 9353TIP3    H152254   6.283   2.263   1.169 -0.5816  1.6285  0.2992
 9353TIP3    H252255   6.267   2.179   1.294 -0.9980  0.2701 -0.6486
 9354TIP3   OH252256   2.247   5.199   9.791  0.4470  0.1122 -0.1696
 9354TIP3    H152257   2.310   5.138   9.752 -0.7471 -1.1159 -0.2553
 9354TIP3    H252258   2.275   5.285   9.760  1.9318 -0.4166 -0.3961
 9355TIP3   OH252259   6.222   3.184   1.076  0.3628  0.1582 -0.7769
 9355TIP3    H152260   6.273   3.265   1.078 -0.6934  0.8511 -0.4678
 9355TIP3    H252261   6.215   3.158   1.168  0.7175 -0.2960 -0.8784
 9356TIP3   OH252262   6.562   6.374   9.335 -0.1893 -0.4380  0.0581
 9356TIP3    H152263   6.656   6.356   9.337  1.2181  4.7981 -1.7735
 9356TIP3    H252264   6.533   6.340   9.251  0.2860 -1.2433  0.2149
 9357TIP3   OH252265   4.744   1.314   1.808  0.0522 -0.1783 -0.0214
 9357TIP3    H152266   4.669   1.257   1.826 -0.1388  0.4362  1.2605
 9357TIP3    H252267   4.802   1.303   1.883  0.1829  1.0199  0.0794
 9358TIP3   OH252268   6.347   0.536   1.128  0.2639  0.0757 -0.1541
 9358TIP3    H152269   6.262   0.523   1.170  0.4872 -1.4753 -0.1364
 9358TIP3    H252270   6.411   0.501   1.190  0.5101 -3.4547 -2.1293
 9359TIP3   OH252271   2.895   6.068   8.574  0.3409 -0.3373  0.4870
 9359TIP3    H152272   2.988   6.055   8.559  0.2655 -3.8011  1.9620
 9359TIP3    H252273   2.852   6.016   8.507 -0.4367 -0.7346  1.2671
 9360TIP3   OH252274   0.211   4.856   9.037 -0.4810  0.1670  0.5572
 9360TIP3    H152275   0.125   4.857   9.079 -1.0239  0.6191 -0.5289
 9360TIP3    H252276   0.196   4.815   8.952  0.4353 -0.0023  0.4645
 9361TIP3   OH252277   5.760   7.246   1.510 -0.6150 -0.2345  0.0276
 9361TIP3    H152278   5.718   7.233   1.425 -1.1343 -0.7481  0.3530
 9361TIP3    H252279   5.714   7.185   1.568 -0.1335 -0.0244  0.6299
 9362TIP3   OH252280   4.953   1.294   0.763 -0.1419 -0.4095 -0.2311
 9362TIP3    H152281   5.016   1.366   0.754  0.1296 -0.6149 -0.0102
 9362TIP3    H252282   4.901   1.317   0.840  0.3654 -0.7553  0.2272
 9363TIP3   OH252283   2.684   5.233   9.425  0.6084 -0.6622  0.2847
 9363TIP3    H152284   2.778   5.245   9.412  0.4672 -0.3421 -0.4667
 9363TIP3    H252285   2.644   5.314   9.395  0.0454 -1.0199  0.0369
 9364TIP3   OH252286   1.143   4.171   1.030  0.4756  0.1252  0.5548
 9364TIP3    H152287   1.139   4.152   1.124  0.4753  0.5423  0.6420
 9364TIP3    H252288   1.216   4.232   1.021 -0.0658  0.7596  0.4045
 9365TIP3   OH252289   7.660   0.960   2.769 -0.3186  0.1923  0.3244
 9365TIP3    H152290   7.568   0.938   2.783 -0.2202 -1.6366 -1.4509
 9365TIP3    H252291   7.690   0.992   2.854 -2.7740  1.6908  0.7228
 9366TIP3   OH252292   5.653   3.572   8.894 -0.4716 -0.5307 -0.2904
 9366TIP3    H152293   5.592   3.498   8.900 -0.3582 -1.0359 -3.4998
 9366TIP3    H252294   5.600   3.644   8.862  0.0330 -0.0730 -0.1167
 9367TIP3   OH252295   1.269   0.390   7.717  0.6387  0.4664  0.3522
 9367TIP3    H152296   1.249   0.296   7.721  0.1092  0.6093  1.5983
 9367TIP3    H252297   1.298   0.412   7.806 -1.4846  1.9327  0.7587
 9368TIP3   OH252298   4.556   1.104   1.593  0.0519 -0.1168 -0.1792
 9368TIP3    H152299   4.623   1.109   1.662  2.2810 -0.5035 -2.2085
 9368TIP3    H252300   4.501   1.181   1.609  0.0536 -0.5371  2.3755
 9369TIP3   OH252301   7.321   5.033   8.454 -0.1262  0.4170  0.4134
 9369TIP3    H152302   7.299   5.030   8.360 -0.3530  0.2695  0.4691
 9369TIP3    H252303   7.248   5.080   8.494 -0.2058  0.1667  0.5637
 9370TIP3   OH252304   7.357   5.362   8.376 -0.4165 -0.0473  0.3415
 9370TIP3    H152305   7.324   5.404   8.296  0.6368 -1.7477 -1.0758
 9370TIP3    H252306   7.379   5.273   8.349  2.9743  0.2050  1.6836
 9371TIP3   OH252307   1.625   0.650   3.393  0.4071 -0.0887  0.0641
 9371TIP3    H152308   1.630   0.744   3.413 -0.4937 -0.0873  0.3141
 9371TIP3    H252309   1.629   0.646   3.298 -1.4597  0.3611 -0.0671
 9372TIP3   OH252310   0.527   4.528   1.826 -0.5782  0.1823  0.5393
 9372TIP3    H152311   0.587   4.594   1.860 -0.6832  0.2662  0.5620
 9372TIP3    H252312   0.547   4.449   1.876  0.8704 -0.3475 -0.7765
 9373TIP3   OH252313   0.655   7.609   8.695  0.4076 -0.5316 -0.5020
 9373TIP3    H152314   0.571   7.566   8.680  0.6441 -1.1419 -0.0945
 9373TIP3    H252315   0.719   7.538   8.692  0.8121 -0.1969  0.0936
 9374TIP3   OH252316   2.803   3.007   0.295  0.0905 -0.0020 -0.3669
 9374TIP3    H152317   2.800   3.060   0.215 -2.0112  1.6743  0.7135
 9374TIP3    H252318   2.816   2.917   0.263  0.3340  0.7242 -2.5029
 9375TIP3   OH252319   2.471   5.313   1.507  0.4065  0.2324  0.2166
 9375TIP3    H152320   2.508   5.254   1.441  0.7272  2.6731 -1.9629
 9375TIP3    H252321   2.522   5.394   1.498 -1.0178  1.4077  1.9397
 9376TIP3   OH252322   6.709   4.541   9.011  0.3094  0.6703 -0.4874
 9376TIP3    H152323   6.615   4.562   9.018  0.6164  2.1499 -0.3393
 9376TIP3    H252324   6.738   4.530   9.101  0.5697  1.7182 -0.4298
 9377TIP3   OH252325   1.450   0.407   2.012 -0.1812 -0.2680 -0.4106
 9377TIP3    H152326   1.465   0.374   1.923 -0.0634  0.0584 -0.5161
 9377TIP3    H252327   1.536   0.437   2.041 -0.5291  1.3733 -0.9195
 9378TIP3   OH252328   1.594   2.282   0.933  0.0912  0.2622 -0.0953
 9378TIP3    H152329   1.619   2.292   0.841 -0.6993 -0.8479 -0.4498
 9378TIP3    H252330   1.504   2.315   0.937  0.8341  2.3054  0.7438
 9379TIP3   OH252331   5.687   7.452   8.954  0.6295  1.0092  0.1672
 9379TIP3    H152332   5.727   7.402   8.882  2.0739  1.5095  0.5862
 9379TIP3    H252333   5.639   7.522   8.911 -0.1582  0.1572 -0.3731
 9380TIP3   OH252334   5.007   1.442   8.902 -0.5889 -0.0884  0.1198
 9380TIP3    H152335   5.034   1.529   8.873  0.1880  0.1737  1.5767
 9380TIP3    H252336   5.076   1.384   8.869  0.4515  0.2480  1.6187
 9381TIP3   OH252337   5.363   3.375   9.928  0.8022 -0.4666 -0.3434
 9381TIP3    H152338   5.454   3.373   9.956  0.8712 -3.3087 -0.4589
 9381TIP3    H252339   5.366   3.396   9.835  1.2919 -0.1430 -0.2562
 9382TIP3   OH252340   0.980   6.972   0.892 -0.1569 -0.2088  0.4012
 9382TIP3    H152341   0.990   7.066   0.879  0.2203 -0.2474  0.3921
 9382TIP3    H252342   1.031   6.933   0.821 -1.4671 -0.4236 -0.4522
 9383TIP3   OH252343   2.690   6.187   2.226  0.2383  0.1275  0.6141
 9383TIP3    H152344   2.610   6.144   2.196  0.4828 -0.0248  0.1585
 9383TIP3    H252345   2.719   6.135   2.301  0.6342 -0.6345 -0.0463
 9384TIP3   OH252346   2.780   4.560   8.576  0.0524 -0.2983  0.3510
 9384TIP3    H152347   2.767   4.475   8.619 -0.9070 -0.2505  0.1693
 9384TIP3    H252348   2.743   4.549   8.489 -1.4148  0.7347  0.8149
 9385TIP3   OH252349   3.719   1.435   9.392  0.3205  0.2907 -0.1409
 9385TIP3    H152350   3.746   1.422   9.483  0.0903 -1.5257 -0.2815
 9385TIP3    H252351   3.624   1.449   9.397  0.1156 -0.9439 -0.1404
 9386TIP3   OH252352   4.440   3.649   8.831  0.1714 -0.2367 -0.0661
 9386TIP3    H152353   4.445   3.707   8.755 -3.3234  0.3757 -0.0078
 9386TIP3    H252354   4.465   3.705   8.905 -0.6353  0.4705 -0.3122
 9387TIP3   OH252355   3.351   0.366   9.904  0.8692 -0.4655  0.8241
 9387TIP3    H152356   3.318   0.420   9.976  0.7811  1.3569 -0.5120
 9387TIP3    H252357   3.275   0.317   9.873  0.1700  1.0578  0.0403
 9388TIP3   OH252358   4.229   4.440   2.275 -0.9356  0.1637 -0.1924
 9388TIP3    H152359   4.212   4.416   2.366 -0.6186  1.4473  0.2300
 9388TIP3    H252360   4.156   4.403   2.226 -1.4302 -0.0217  0.6748
 9389TIP3   OH252361   6.513   0.576   9.277 -0.0127 -0.2669  0.4072
 9389TIP3    H152362   6.569   0.592   9.353 -1.0980  1.5064  0.8954
 9389TIP3    H252363   6.568   0.597   9.202  0.5122 -0.2735  0.7863
 9390TIP3   OH252364   3.377   0.823   2.558  0.3763  0.1868 -0.1471
 9390TIP3    H152365   3.320   0.899   2.569  0.6983  0.4661 -0.3864
 9390TIP3    H252366   3.350   0.762   2.626 -1.3523 -0.3899 -1.2784
 9391TIP3   OH252367   0.177   2.081   1.664  0.0496 -0.2161 -0.1790
 9391TIP3    H152368   0.127   2.018   1.717  0.9944 -0.6744  0.2023
 9391TIP3    H252369   0.112   2.126   1.611 -0.8351 -0.3388  0.7749
 9392TIP3   OH252370   2.309   0.552   2.807  0.8538 -0.1808 -0.1167
 9392TIP3    H152371   2.288   0.469   2.850  0.9790  0.9917  2.3283
 9392TIP3    H252372   2.316   0.529   2.714  2.9650 -3.3433  0.6515
 9393TIP3   OH252373   3.053   6.339   0.684  0.2995  0.1348  0.2980
 9393TIP3    H152374   3.115   6.269   0.666 -1.6387 -1.1523 -2.0082
 9393TIP3    H252375   3.066   6.401   0.612 -1.3704 -0.4587 -0.5851
 9394TIP3   OH252376   1.519   3.352   6.641  0.1699  0.2017  0.9450
 9394TIP3    H152377   1.431   3.368   6.606 -0.0665 -2.1610  0.2704
 9394TIP3    H252378   1.505   3.284   6.708  1.5120 -0.5169  0.5245
 9395TIP3   OH252379   7.205   5.046   0.979 -0.1475  0.1674 -0.4593
 9395TIP3    H152380   7.211   4.958   0.943  1.1879  0.0690 -0.0276
 9395TIP3    H252381   7.137   5.040   1.047 -0.5424 -0.3516 -0.8915
 9396TIP3   OH252382   6.786   5.892   9.926  0.7136 -0.2919 -0.3961
 9396TIP3    H152383   6.771   5.905   9.833 -1.5049  1.7908  0.1510
 9396TIP3    H252384   6.701   5.866   9.961  1.6942 -1.9372  0.9848
 9397TIP3   OH252385   0.805   1.970   2.642  0.4460  0.0036 -0.1391
 9397TIP3    H152386   0.760   2.037   2.693  0.8718  0.1759  0.0132
 9397TIP3    H252387   0.825   1.901   2.705  1.9791  0.7058  0.1942
 9398TIP3   OH252388   5.787   6.437   9.064 -0.2073 -0.2256 -0.4459
 9398TIP3    H152389   5.752   6.348   9.052 -0.2076 -0.2123 -0.5445
 9398TIP3    H252390   5.734   6.492   9.007 -0.9868  0.0315  0.4980
 9399TIP3   OH252391   5.574   1.240   0.530 -0.1709  1.2309  0.1650
 9399TIP3    H152392   5.608   1.193   0.454 -1.2621  1.8490 -0.7474
 9399TIP3    H252393   5.570   1.175   0.599  0.8774  0.6636 -0.2965
 9400TIP3   OH252394   3.320   7.284   8.338 -0.1215  0.3801  0.2532
 9400TIP3    H152395   3.338   7.194   8.363 -0.9430  0.0649 -0.2514
 9400TIP3    H252396   3.349   7.290   8.247  0.6085  0.8369  0.5085
 9401TIP3   OH252397   4.147   1.767   1.047  0.1847 -0.2354 -0.0199
 9401TIP3    H152398   4.187   1.842   1.091 -0.7180 -0.6619  1.5984
 9401TIP3    H252399   4.115   1.803   0.964  0.3351  1.0232  0.4427
 9402TIP3   OH252400   1.776   1.189   8.735  0.3371 -0.7689  0.3434
 9402TIP3    H152401   1.788   1.095   8.720  1.1710 -0.8046  1.1425
 9402TIP3    H252402   1.702   1.194   8.796  0.2185 -0.8980  0.2125
 9403TIP3   OH252403   3.159   6.483   0.404 -0.1369 -0.0624  0.0702
 9403TIP3    H152404   3.156   6.484   0.309 -0.3737 -0.2906  0.0735
 9403TIP3    H252405   3.115   6.564   0.431  0.2771  0.1952 -0.0192
 9404TIP3   OH252406   4.098   2.349   2.582 -0.1604 -0.1175 -0.3356
 9404TIP3    H152407   4.041   2.424   2.599 -0.6264 -0.8120  1.4222
 9404TIP3    H252408   4.039   2.278   2.560 -0.1644 -1.1073  2.4743
 9405TIP3   OH252409   1.901   4.289   7.751  0.4504 -0.5148  0.6445
 9405TIP3    H152410   1.919   4.379   7.726  0.5217 -0.5600  0.5328
 9405TIP3    H252411   1.962   4.237   7.699 -2.2880 -0.9733 -2.4555
 9406TIP3   OH252412   0.527   5.527   1.993 -0.1002 -0.2599 -0.8337
 9406TIP3    H152413   0.448   5.476   1.979 -0.4075 -0.7215  2.0132
 9406TIP3    H252414   0.550   5.560   1.907 -3.5833  0.1937 -1.7205
 9407TIP3   OH252415   6.903   5.891   9.100 -0.6797  0.2581 -0.2154
 9407TIP3    H152416   6.988   5.935   9.100 -0.5353  0.1472  2.4283
 9407TIP3    H252417   6.849   5.944   9.041  0.8333  1.0982 -0.9148
 9408TIP3   OH252418   0.315   3.487   1.534  0.2322  0.0828 -0.0588
 9408TIP3    H152419   0.256   3.436   1.589 -1.5598  0.4920 -1.4931
 9408TIP3    H252420   0.356   3.549   1.594 -1.3980  0.3073  0.8894
 9409TIP3   OH252421   3.497   7.541   0.887 -0.0224  0.6629 -0.0950
 9409TIP3    H152422   3.564   7.495   0.836 -0.0653 -0.3117  0.6974
 9409TIP3    H252423   3.546   7.608   0.935  0.4798 -0.2528  0.7326
 9410TIP3   OH252424   1.688   1.558   2.103 -0.5822 -0.4500 -0.2568
 9410TIP3    H152425   1.748   1.555   2.178 -0.8616  1.2601  0.0815
 9410TIP3    H252426   1.742   1.591   2.031 -0.8939  0.2587 -0.1717
 9411TIP3   OH252427   0.620   1.448   8.231  0.1369 -0.1390  0.3231
 9411TIP3    H152428   0.564   1.518   8.198 -0.2580 -0.1092  1.0285
 9411TIP3    H252429   0.644   1.476   8.320 -0.4505 -1.1203  0.8127
 9412TIP3   OH252430   7.676   2.696   9.083  0.2576  0.0242  0.2914
 9412TIP3    H152431   7.592   2.708   9.127 -0.2392  3.6623 -1.3250
 9412TIP3    H252432   7.741   2.726   9.147 -0.2077  2.2534 -0.1889
 9413TIP3   OH252433   6.468   3.342   8.952 -0.0776  0.2475 -0.2073
 9413TIP3    H152434   6.453   3.248   8.960 -0.8346  0.3586 -0.2803
 9413TIP3    H252435   6.402   3.372   8.890  0.0927  0.8466 -0.1047
 9414TIP3   OH252436   0.568   2.905   9.797 -0.2293 -0.5381 -0.0790
 9414TIP3    H152437   0.475   2.894   9.814  0.0227  1.6040  3.7678
 9414TIP3    H252438   0.610   2.829   9.837 -0.2105 -1.0323 -1.0012
 9415TIP3   OH252439   0.699   3.965   2.556  0.5076  0.1118  0.1805
 9415TIP3    H152440   0.779   3.999   2.516  0.1349 -0.8907 -1.5143
 9415TIP3    H252441   0.699   3.872   2.533 -2.0028  0.4350 -1.3655
 9416TIP3   OH252442   6.646   3.240   1.431  0.2627 -0.4159  0.1872
 9416TIP3    H152443   6.705   3.181   1.477 -0.0462 -0.0169  1.1067
 9416TIP3    H252444   6.648   3.321   1.481 -1.4843 -0.5702  0.5970
 9417TIP3   OH252445   0.701   4.311   0.816  0.3345  0.0284  0.3852
 9417TIP3    H152446   0.795   4.301   0.801  0.0229 -1.0788 -1.1082
 9417TIP3    H252447   0.679   4.237   0.874  0.2943 -0.0478  0.2737
 9418TIP3   OH252448   2.445   1.646   8.370  0.4537  0.5441  0.3536
 9418TIP3    H152449   2.374   1.703   8.399 -0.5375 -1.5460  2.4212
 9418TIP3    H252450   2.443   1.650   8.275 -1.4039  1.7660  0.4051
 9419TIP3   OH252451   2.734   6.335   6.783 -0.3815  0.3795  0.5347
 9419TIP3    H152452   2.693   6.261   6.827  0.2246  0.8363  1.9293
 9419TIP3    H252453   2.755   6.302   6.696 -0.8458 -0.8310  0.8563
 9420TIP3   OH252454   7.461   5.062   9.232 -0.3152  0.3778  0.3813
 9420TIP3    H152455   7.366   5.067   9.226 -0.3047 -0.4946 -1.1240
 9420TIP3    H252456   7.478   4.983   9.284 -0.3953  0.7714  1.0198
 9421TIP3   OH252457   0.555   3.337   9.219 -0.0633  0.6675  0.1113
 9421TIP3    H152458   0.639   3.331   9.266  0.0909 -1.1743 -0.3029
 9421TIP3    H252459   0.550   3.427   9.189  1.1685  1.1411  1.2443
 9422TIP3   OH252460   5.783   0.348   0.089  0.2720  0.2574 -0.0246
 9422TIP3    H152461   5.730   0.269   0.087  0.6094 -0.0021  0.7524
 9422TIP3    H252462   5.735   0.411   0.036 -1.1095  0.2233  1.1365
 9423TIP3   OH252463   6.035   6.826   8.732 -0.1768  0.0369 -0.3483
 9423TIP3    H152464   6.054   6.810   8.639  1.0169  1.2505 -0.3483
 9423TIP3    H252465   6.000   6.915   8.734 -0.9399 -0.2685  0.2961
 9424TIP3   OH252466   1.238   5.461   0.052  0.5096  0.2677 -0.0502
 9424TIP3    H152467   1.223   5.482   0.144  2.7923  0.3225  0.3641
 9424TIP3    H252468   1.192   5.530   0.004 -2.5812 -0.9462  0.9015
 9425TIP3   OH252469   1.710   0.142   7.954  0.0183 -0.1736  0.1040
 9425TIP3    H152470   1.614   0.133   7.957 -0.2800  2.3618 -0.2955
 9425TIP3    H252471   1.733   0.119   7.864 -0.4304  0.8456 -0.2803
 9426TIP3   OH252472   1.782   0.072   9.458 -0.3461 -0.0206  0.0360
 9426TIP3    H152473   1.864   0.069   9.409  0.5519 -2.0488  1.5213
 9426TIP3    H252474   1.717   0.100   9.394  1.1216 -0.5008 -1.7520
 9427TIP3   OH252475   5.775   4.697   0.249  0.2031 -0.2179 -0.3648
 9427TIP3    H152476   5.804   4.780   0.210  1.9431 -1.2922 -1.4809
 9427TIP3    H252477   5.827   4.688   0.329 -0.2125 -0.1008 -0.0763
 9428TIP3   OH252478   3.126   6.650   9.064 -0.4930 -0.5415 -0.3948
 9428TIP3    H152479   3.075   6.645   8.983 -0.3648 -0.5374 -0.4752
 9428TIP3    H252480   3.093   6.728   9.108  0.8447  0.6294 -1.4002
 9429TIP3   OH252481   3.430   7.657   9.932  0.1082  0.1101  0.0337
 9429TIP3    H152482   3.511   7.606   9.938 -0.8843 -1.6397 -0.6101
 9429TIP3    H252483   3.423   7.680   9.840 -1.5083 -2.2705 -0.5335
 9430TIP3   OH252484   4.347   1.948   7.922 -0.6648  0.0647 -0.3678
 9430TIP3    H152485   4.282   1.890   7.881 -0.0495 -0.3277 -0.8037
 9430TIP3    H252486   4.420   1.890   7.943  0.1714  0.7563 -1.2714
 9431TIP3   OH252487   1.059   7.628   0.638  0.5481  0.1797  0.0494
 9431TIP3    H152488   1.002   7.680   0.695  2.1818 -0.1609  2.1321
 9431TIP3    H252489   1.148   7.654   0.663  1.3577 -1.6287 -0.7763
 9432TIP3   OH252490   1.102   1.331   8.239 -0.0672 -0.3204 -0.2664
 9432TIP3    H152491   1.065   1.371   8.160  0.0704 -1.3143 -0.8521
 9432TIP3    H252492   1.112   1.239   8.217  0.3372 -0.5487  0.7902
 9433TIP3   OH252493   5.842   7.496   9.577  0.3939  0.0631  0.2210
 9433TIP3    H152494   5.863   7.405   9.557  1.2023  0.3456 -0.2966
 9433TIP3    H252495   5.849   7.541   9.492 -3.2901  0.0704 -0.2165
 9434TIP3   OH252496   2.464   4.654   7.321  0.3573  0.0454  0.2612
 9434TIP3    H152497   2.399   4.598   7.277 -0.7112  0.9642  0.6184
 9434TIP3    H252498   2.415   4.732   7.346  1.4627  0.4809  1.1460
 9435TIP3   OH252499   6.128   5.745   9.297  0.3119  0.4477 -0.3140
 9435TIP3    H152500   6.123   5.667   9.241  2.6300  0.5268 -0.7381
 9435TIP3    H252501   6.152   5.711   9.383  1.0863  0.6528 -0.4427
 9436TIP3   OH252502   0.247   6.461   0.483  0.2820 -0.3629 -0.1211
 9436TIP3    H152503   0.251   6.434   0.575 -0.2513  0.3126  0.1114
 9436TIP3    H252504   0.315   6.409   0.439  0.0902 -1.1678  0.5290
 9437TIP3   OH252505   1.898   3.448   9.048 -0.3183 -0.2066  0.1242
 9437TIP3    H152506   1.980   3.479   9.011 -0.6786  2.0262  1.0450
 9437TIP3    H252507   1.881   3.506   9.123 -3.1043 -0.0770 -0.4691
 9438TIP3   OH252508   7.238   3.266   1.047  0.1438  0.3173  0.5995
 9438TIP3    H152509   7.232   3.195   0.982 -2.8285  0.8531  0.1622
 9438TIP3    H252510   7.245   3.345   0.994 -1.2305  0.6733  0.9121
 9439TIP3   OH252511   1.948   6.099   8.456 -0.6278  0.4880 -0.5972
 9439TIP3    H152512   1.914   6.040   8.523 -0.1775 -0.3872 -1.1126
 9439TIP3    H252513   1.988   6.041   8.391 -0.3024  1.3579 -1.1998
 9440TIP3   OH252514   1.447   2.061   1.179 -0.0162  0.0305  0.4606
 9440TIP3    H152515   1.530   2.067   1.130 -0.5142 -0.4873 -0.4855
 9440TIP3    H252516   1.435   2.147   1.217  0.8167  0.1969  0.3708
 9441TIP3   OH252517   5.616   2.379   0.345 -0.4981 -0.1186 -0.0525
 9441TIP3    H152518   5.568   2.431   0.409 -0.0065 -0.2307  0.4121
 9441TIP3    H252519   5.705   2.412   0.350 -0.6586  0.5817 -1.4269
 9442TIP3   OH252520   6.060   6.426   9.007  0.2395  0.6088  0.6396
 9442TIP3    H152521   6.049   6.500   8.948 -0.8222 -0.2415 -0.2671
 9442TIP3    H252522   5.974   6.414   9.047  0.4639  0.0095  0.9482
 9443TIP3   OH252523   7.037   3.942   0.697 -0.3047 -0.0722  0.3294
 9443TIP3    H152524   6.949   3.946   0.661 -0.2590 -0.4953  0.1615
 9443TIP3    H252525   7.080   4.021   0.666 -0.7444  0.3334  0.7356
 9444TIP3   OH252526   7.251   6.352   1.433  0.2585 -0.4095  0.5903
 9444TIP3    H152527   7.251   6.273   1.380  0.9928 -0.0357 -0.0024
 9444TIP3    H252528   7.253   6.321   1.523  0.8488 -1.0749  0.3579
 9445TIP3   OH252529   0.766   4.903   1.333 -0.2186 -0.0149  0.3731
 9445TIP3    H152530   0.846   4.954   1.326 -0.3792  0.0767 -1.1426
 9445TIP3    H252531   0.785   4.837   1.399  2.3111 -2.0527 -2.1632
 9446TIP3   OH252532   0.934   3.521   9.695  0.0248 -0.2038  0.3144
 9446TIP3    H152533   0.884   3.485   9.768  0.0887 -1.8426 -0.4088
 9446TIP3    H252534   0.971   3.445   9.651 -0.3624  0.6972 -1.6763
 9447TIP3   OH252535   7.490   3.980   8.480 -0.0603 -0.0923 -0.1031
 9447TIP3    H152536   7.481   3.958   8.387  2.5649  0.2473 -0.5121
 9447TIP3    H252537   7.498   4.075   8.482 -1.7252  0.0882  0.7098
 9448TIP3   OH252538   2.763   7.012   9.369 -0.3454 -0.6371  0.4163
 9448TIP3    H152539   2.704   6.955   9.419 -0.7809  0.6742  1.4400
 9448TIP3    H252540   2.822   7.050   9.434  0.9119 -1.0223 -0.4425
 9449TIP3   OH252541   7.580   4.894   1.398 -0.9556 -0.7529  0.2734
 9449TIP3    H152542   7.511   4.829   1.408  0.5344 -2.2988  0.9348
 9449TIP3    H252543   7.585   4.937   1.484  0.8010 -2.6703  1.2077
 9450TIP3   OH252544   3.453   2.018   8.137 -0.6650  0.8334  0.0278
 9450TIP3    H152545   3.439   1.954   8.067  0.8682  0.8264 -0.3032
 9450TIP3    H252546   3.383   2.001   8.200 -0.7366 -0.6675 -0.4266
 9451TIP3   OH252547   1.655   4.317   7.259  0.9746  0.2680  0.6707
 9451TIP3    H152548   1.597   4.357   7.324  1.6325  0.6911  1.0204
 9451TIP3    H252549   1.714   4.262   7.311  1.4145  0.5002  0.4269
 9452TIP3   OH252550   3.843   6.359   1.490 -0.2504 -0.7712  0.9095
 9452TIP3    H152551   3.797   6.407   1.421  1.5258 -3.3286 -2.3120
 9452TIP3    H252552   3.781   6.291   1.517 -0.2796 -0.9219  0.4699
 9453TIP3   OH252553   0.330   1.550   9.463 -1.0171 -0.2041  0.1518
 9453TIP3    H152554   0.266   1.570   9.531  0.2389 -0.1771  1.3648
 9453TIP3    H252555   0.306   1.462   9.434 -0.7658 -0.7844  1.6158
 9454TIP3   OH252556   1.797   2.861   0.933 -0.2477 -0.0606 -0.0647
 9454TIP3    H152557   1.859   2.808   0.882 -0.5385  0.2521 -0.7607
 9454TIP3    H252558   1.846   2.889   1.010  1.5124  2.7556 -2.0634
 9455TIP3   OH252559   3.417   1.827   7.934 -0.5573 -0.1844  0.2824
 9455TIP3    H152560   3.473   1.752   7.954 -0.8838 -1.0158 -1.7429
 9455TIP3    H252561   3.328   1.795   7.948 -0.6739  0.0360  0.0455
 9456TIP3   OH252562   5.124   1.008   1.172  0.5255  0.6753 -0.3442
 9456TIP3    H152563   5.179   1.081   1.200  0.4749  0.5510  0.0939
 9456TIP3    H252564   5.135   0.942   1.242  2.0428 -0.5071 -1.6195
 9457TIP3   OH252565   5.604   3.516   1.917 -0.3074 -0.5170  0.1194
 9457TIP3    H152566   5.582   3.603   1.949 -0.7476 -1.3260  2.1755
 9457TIP3    H252567   5.522   3.482   1.882 -0.3010 -0.3758 -0.0353
 9458TIP3   OH252568   5.240   1.459   1.327  0.0907 -0.3779 -0.2872
 9458TIP3    H152569   5.316   1.452   1.269 -0.3759 -0.3662 -0.9173
 9458TIP3    H252570   5.219   1.553   1.327 -1.7392 -0.6771 -2.5720
 9459TIP3   OH252571   2.779   2.672   2.368  0.4462  0.6083  0.1772
 9459TIP3    H152572   2.761   2.651   2.460  0.7607  0.0628  0.1213
 9459TIP3    H252573   2.872   2.653   2.357  0.4426  0.8159 -0.2161
 9460TIP3   OH252574   6.243   2.423   1.008  0.0242  0.3542  0.2535
 9460TIP3    H152575   6.201   2.349   0.965 -1.2372  0.4863  1.2046
 9460TIP3    H252576   6.172   2.484   1.027  1.1523  2.3579 -1.4815
 9461TIP3   OH252577   0.752   5.729   7.012  0.0497  0.0834  0.0758
 9461TIP3    H152578   0.703   5.786   7.071 -2.4819 -0.1254 -1.7019
 9461TIP3    H252579   0.837   5.773   7.003 -1.4897  3.2281 -0.5892
 9462TIP3   OH252580   3.011   4.814   9.181  0.1239 -0.2299 -0.4622
 9462TIP3    H152581   2.957   4.843   9.107  0.0230 -2.5273 -1.3883
 9462TIP3    H252582   3.060   4.739   9.147 -0.3192 -1.7140  1.9300
 9463TIP3   OH252583   0.944   1.942   9.976 -0.1161 -0.4188 -0.7394
 9463TIP3    H152584   0.852   1.967   9.981  0.2209  0.6754  0.2829
 9463TIP3    H252585   0.945   1.849  10.000 -0.6781  0.1802  1.8577
 9464TIP3   OH252586   6.106   1.425   9.406 -0.6369 -0.6862  0.3021
 9464TIP3    H152587   6.152   1.367   9.345  0.3915  0.8448 -0.4358
 9464TIP3    H252588   6.018   1.389   9.411 -0.7024 -0.9926 -1.9634
 9465TIP3   OH252589   0.602   7.330   7.640  0.1234 -0.2233  0.1185
 9465TIP3    H152590   0.557   7.401   7.594 -0.0076  0.0439  0.6408
 9465TIP3    H252591   0.537   7.260   7.645 -0.1450  0.0552  0.6182
 9466TIP3   OH252592   2.556   6.239   2.518 -0.1913 -0.7113 -0.2758
 9466TIP3    H152593   2.502   6.229   2.440 -1.2029 -1.7167  0.5250
 9466TIP3    H252594   2.594   6.327   2.510 -2.2059  0.1802 -0.7111
 9467TIP3   OH252595   5.096   2.958   1.067  0.4640 -0.3311  0.5092
 9467TIP3    H152596   5.113   2.914   0.983 -1.5761 -1.0445  0.4245
 9467TIP3    H252597   5.052   3.039   1.044 -0.3898 -0.6756  0.8746
 9468TIP3   OH252598   0.454   7.351   8.424  0.2334 -0.3743 -0.3720
 9468TIP3    H152599   0.502   7.420   8.378  1.5765  0.5197  2.1749
 9468TIP3    H252600   0.365   7.355   8.388  1.3902 -0.4563 -3.5189
 9469TIP3   OH252601   3.219   3.499   6.803 -0.5631 -0.1851 -0.0612
 9469TIP3    H152602   3.176   3.532   6.725 -0.0028  0.8354  0.0336
 9469TIP3    H252603   3.210   3.570   6.867 -0.1657 -0.6066  0.4751
 9470TIP3   OH252604   2.647   1.217   0.237 -0.5781 -0.3289 -0.3634
 9470TIP3    H152605   2.634   1.258   0.151 -1.7261  0.3475  0.1136
 9470TIP3    H252606   2.581   1.148   0.241  0.1811 -1.0750 -0.4438
 9471TIP3   OH252607   1.993   1.178   9.426  0.1422 -0.3253  0.0609
 9471TIP3    H152608   2.066   1.179   9.365 -1.5263  0.0743 -2.0625
 9471TIP3    H252609   1.932   1.114   9.389 -2.3485  2.2140 -0.5767
 9472TIP3   OH252610   3.563   3.891   0.313 -0.1788  0.0497  0.1999
 9472TIP3    H152611   3.642   3.932   0.277 -0.2307  0.4474  0.5322
 9472TIP3    H252612   3.548   3.815   0.257  0.3707  0.0399  0.0540
 9473TIP3   OH252613   2.526   2.052   2.101  0.5171  0.1714  0.2536
 9473TIP3    H152614   2.539   1.958   2.114  2.6220  0.0458 -2.0568
 9473TIP3    H252615   2.615   2.087   2.091 -0.3197  1.9532 -1.5408
 9474TIP3   OH252616   4.205   6.716   0.080  0.3234 -0.2085  0.3143
 9474TIP3    H152617   4.190   6.811   0.085  1.9491  0.2180 -1.7841
 9474TIP3    H252618   4.139   6.685   0.018  1.7579  0.1180 -1.4515
 9475TIP3   OH252619   4.872   1.912   8.324 -0.0544 -0.1477 -0.2409
 9475TIP3    H152620   4.939   1.978   8.311  0.9608 -0.8849  1.0232
 9475TIP3    H252621   4.809   1.952   8.384  0.2368 -0.1047  0.0362
 9476TIP3   OH252622   1.384   7.359   2.056  0.4681 -0.0220  0.0981
 9476TIP3    H152623   1.389   7.269   2.088 -3.2199 -0.3740  0.1288
 9476TIP3    H252624   1.385   7.350   1.960  1.3425  0.0466  0.0960
 9477TIP3   OH252625   1.950   3.128   2.995 -0.0174 -0.5125 -0.0951
 9477TIP3    H152626   1.868   3.178   2.996 -0.0395 -0.5374  0.8433
 9477TIP3    H252627   2.019   3.195   2.994 -0.0490 -0.4927 -0.9450
 9478TIP3   OH252628   4.789   2.448   8.461  0.1488 -0.0076 -0.5796
 9478TIP3    H152629   4.781   2.368   8.408 -0.9349  0.3503 -0.9976
 9478TIP3    H252630   4.745   2.516   8.408  0.1896  0.6422  0.2021
 9479TIP3   OH252631   3.053   2.957   8.584 -0.0177  0.0718 -0.2084
 9479TIP3    H152632   2.983   2.957   8.519  0.8328  0.0116 -1.1481
 9479TIP3    H252633   3.011   2.986   8.665 -1.4410 -1.3273 -0.3992
 9480TIP3   OH252634   0.693   2.764   8.555  0.3603 -0.2056  0.0404
 9480TIP3    H152635   0.712   2.853   8.586 -0.9816  0.7048 -1.5966
 9480TIP3    H252636   0.617   2.737   8.607  0.1658 -0.0128 -0.1443
 9481TIP3   OH252637   3.195   1.346   7.558  0.3675  0.2825 -0.4607
 9481TIP3    H152638   3.222   1.259   7.589 -2.1371 -0.3358  0.2285
 9481TIP3    H252639   3.242   1.407   7.615  0.9844 -0.6721  0.0850
 9482TIP3   OH252640   0.820   6.119   9.643  0.2212 -0.1798 -0.1419
 9482TIP3    H152641   0.837   6.209   9.669  1.0722 -0.2878 -0.2879
 9482TIP3    H252642   0.793   6.126   9.551 -1.5232  0.0809  0.3642
 9483TIP3   OH252643   1.284   0.704   0.701  0.0357  0.6410 -0.5147
 9483TIP3    H152644   1.269   0.797   0.682 -1.4673  0.9894  1.9069
 9483TIP3    H252645   1.355   0.704   0.765 -0.4396  0.1898  0.0161
 9484TIP3   OH252646   4.572   2.934   8.176  1.1425 -0.1246 -0.2307
 9484TIP3    H152647   4.580   2.863   8.112 -0.0062  0.3451 -0.9325
 9484TIP3    H252648   4.548   2.891   8.258 -1.4958 -0.4651 -1.0831
 9485TIP3   OH252649   2.053   0.194   9.624 -0.1416  0.4385  0.0943
 9485TIP3    H152650   2.042   0.149   9.708  0.1480 -1.1373 -0.6714
 9485TIP3    H252651   2.126   0.255   9.639 -1.6897  2.0151  1.6587
 9486TIP3   OH252652   2.151   3.010   0.828 -0.0573 -0.2875  0.6354
 9486TIP3    H152653   2.182   2.993   0.917  1.5149 -0.8596  0.0113
 9486TIP3    H252654   2.128   3.103   0.829 -0.5745 -0.4058  1.7713
 9487TIP3   OH252655   2.270   5.054   9.293  0.3797 -0.1504 -0.4016
 9487TIP3    H152656   2.338   5.057   9.360 -0.1847  0.0846  0.1780
 9487TIP3    H252657   2.299   5.115   9.225 -0.2941  1.6785  0.8723
 9488TIP3   OH252658   3.463   3.516   8.128  0.3773  0.0414 -0.0842
 9488TIP3    H152659   3.519   3.473   8.193 -0.6358 -0.0910  0.7326
 9488TIP3    H252660   3.523   3.570   8.077  1.5818 -1.8323 -0.7351
 9489TIP3   OH252661   2.141   0.473   0.188 -0.1555 -0.4150 -0.0881
 9489TIP3    H152662   2.219   0.490   0.136 -0.8484 -1.1053 -1.4046
 9489TIP3    H252663   2.068   0.493   0.129 -0.9882  0.4753  1.1999
 9490TIP3   OH252664   2.186   7.328   8.543  0.4468  0.2779 -0.2106
 9490TIP3    H152665   2.274   7.300   8.568 -0.4625 -0.5958  2.2385
 9490TIP3    H252666   2.176   7.415   8.581 -0.0073  0.0676  0.1583
 9491TIP3   OH252667   3.131   1.767   8.125  0.1481 -0.1992 -0.1251
 9491TIP3    H152668   3.165   1.678   8.112  0.9031 -0.0835  0.9584
 9491TIP3    H252669   3.096   1.791   8.040  0.9957 -1.0975 -0.7562
 9492TIP3   OH252670   3.999   1.143   9.404  0.6671 -0.0616 -0.1908
 9492TIP3    H152671   3.936   1.081   9.442  0.1026  0.1084 -0.8232
 9492TIP3    H252672   3.947   1.193   9.341  1.1322  1.0267  0.2798
 9493TIP3   OH252673   5.713   1.435   2.331 -0.0784  0.1960 -0.5547
 9493TIP3    H152674   5.695   1.528   2.347  1.7289  0.4657  0.1700
 9493TIP3    H252675   5.731   1.430   2.237 -0.9979  0.4222 -0.7487
 9494TIP3   OH252676   5.660   4.557   8.703  0.3774 -0.5758  0.0732
 9494TIP3    H152677   5.657   4.464   8.679 -2.9550 -0.0140 -2.4741
 9494TIP3    H252678   5.727   4.594   8.645  0.3597 -1.0889 -0.2909
 9495TIP3   OH252679   7.608   2.780   8.806 -0.1958 -0.1884  0.1376
 9495TIP3    H152680   7.664   2.731   8.868 -0.2797 -1.7543 -0.9647
 9495TIP3    H252681   7.632   2.745   8.720 -1.5836  0.4445 -0.5263
 9496TIP3   OH252682   1.412   3.802   9.842  0.6976  0.1704 -0.5298
 9496TIP3    H152683   1.433   3.895   9.844 -0.3782  0.4064  1.5136
 9496TIP3    H252684   1.316   3.799   9.838  0.7445 -0.8807 -1.5200
 9497TIP3   OH252685   5.537   1.588   0.983  0.1989 -0.4286  0.0201
 9497TIP3    H152686   5.523   1.601   0.889  0.8147 -1.4432 -0.2221
 9497TIP3    H252687   5.586   1.665   1.011 -0.6414  0.2502 -0.3285
 9498TIP3   OH252688   3.213   5.550   6.126 -0.4389  0.9324 -0.1057
 9498TIP3    H152689   3.265   5.488   6.075  1.0074  3.1510 -1.5057
 9498TIP3    H252690   3.163   5.496   6.186  0.2428 -1.6106 -1.6844
 9499TIP3   OH252691   0.790   2.872   1.945 -0.1452 -0.6432  0.0056
 9499TIP3    H152692   0.749   2.792   1.914 -1.3978 -0.0313  0.0052
 9499TIP3    H252693   0.867   2.884   1.889 -0.0179 -1.7631 -0.0711
 9500TIP3   OH252694   6.934   2.029   2.608  0.0699  0.6144 -0.4127
 9500TIP3    H152695   6.846   2.037   2.571 -1.2767  0.3015  2.3951
 9500TIP3    H252696   6.942   1.937   2.631  0.4573  0.9187  0.7765
 9501TIP3   OH252697   3.735   1.004   9.423  0.5199 -0.0849 -0.0081
 9501TIP3    H152698   3.654   1.043   9.389  0.6289  0.7460  0.6637
 9501TIP3    H252699   3.764   0.946   9.353  1.4440  2.5430 -1.9641
 9502TIP3   OH252700   1.061   3.691   7.380 -0.2976 -0.3806 -0.1323
 9502TIP3    H152701   1.138   3.702   7.324  1.3356  0.4219  2.1547
 9502TIP3    H252702   1.021   3.610   7.348  0.9800 -0.3721 -1.9424
 9503TIP3   OH252703   2.742   3.644   7.477 -0.0182  0.2119 -0.5477
 9503TIP3    H152704   2.751   3.710   7.546 -0.6385  1.1326 -1.3386
 9503TIP3    H252705   2.804   3.576   7.502  1.8028  1.7913 -0.5218
 9504TIP3   OH252706   5.091   1.381   0.102  0.1609 -0.1130 -0.2279
 9504TIP3    H152707   5.137   1.428   0.033  0.7361 -2.5967 -1.6642
 9504TIP3    H252708   5.128   1.293   0.100 -1.1141 -0.7832  2.0410
 9505TIP3   OH252709   6.655   4.951   1.071 -0.5895  0.5137  0.0613
 9505TIP3    H152710   6.627   4.921   1.157 -0.5957  1.1301  0.2789
 9505TIP3    H252711   6.683   5.042   1.084  0.9130  0.1349 -0.2801
 9506TIP3   OH252712   0.804   1.792   9.650  0.1886  0.0047  0.1372
 9506TIP3    H152713   0.744   1.735   9.602 -0.2779  1.1198 -0.6695
 9506TIP3    H252714   0.774   1.788   9.741  0.9658 -1.9893  0.3532
 9507TIP3   OH252715   3.655   5.751   9.809  0.1693 -0.1816  0.7808
 9507TIP3    H152716   3.723   5.683   9.808  0.3403 -0.0233  1.2385
 9507TIP3    H252717   3.574   5.704   9.790  0.3392 -0.4565  0.7228
 9508TIP3   OH252718   0.053   2.054   9.367  0.5026  0.1372  0.1788
 9508TIP3    H152719   0.015   1.989   9.426 -0.4697  0.0960 -0.4609
 9508TIP3    H252720  -0.014   2.122   9.360  0.9319  0.5216 -0.2523
 9509TIP3   OH252721   1.143   5.824   7.704 -0.0218 -0.0734 -0.8336
 9509TIP3    H152722   1.230   5.806   7.739 -0.0400 -0.3045 -0.9027
 9509TIP3    H252723   1.138   5.770   7.625  0.8919  2.1311 -2.4958
 9510TIP3   OH252724   1.077   0.498   1.896  0.0385 -0.7253 -0.4128
 9510TIP3    H152725   1.105   0.449   1.973 -0.1808 -1.0240 -0.5227
 9510TIP3    H252726   0.987   0.524   1.915  0.5400  0.7166  0.1806
 9511TIP3   OH252727   3.996   6.133   9.452 -0.3747  0.1793 -0.0110
 9511TIP3    H152728   3.954   6.050   9.476 -1.0729  0.5108 -0.0553
 9511TIP3    H252729   3.959   6.154   9.366  0.0376  0.3795 -0.1412
 9512TIP3   OH252730   6.355   7.504   0.877  0.0889 -0.1760 -0.1185
 9512TIP3    H152731   6.412   7.544   0.944 -0.8397 -0.3509  0.8011
 9512TIP3    H252732   6.289   7.571   0.859  0.0815 -0.2980 -0.5461
 9513TIP3   OH252733   2.941   7.660   1.087 -0.0372  0.3802 -0.3685
 9513TIP3    H152734   2.990   7.742   1.077  0.3420  0.5399  2.0623
 9513TIP3    H252735   3.001   7.602   1.133 -2.3026  0.9962  3.9282
 9514TIP3   OH252736   4.949   4.459   2.453 -0.3694 -0.0244 -0.2991
 9514TIP3    H152737   4.983   4.545   2.476  1.0677 -0.9106  1.1547
 9514TIP3    H252738   4.888   4.475   2.381  0.6634  2.0661 -0.7824
 9515TIP3   OH252739   1.807   6.084   9.608  0.0947 -0.2072  0.1133
 9515TIP3    H152740   1.775   6.018   9.669  0.6658 -1.4300 -0.8715
 9515TIP3    H252741   1.767   6.061   9.524  2.8853 -1.3795 -1.0162
 9516TIP3   OH252742   2.992   7.315   8.183 -0.0626  0.0688 -0.1987
 9516TIP3    H152743   3.027   7.382   8.242  0.3522 -1.5008  1.4282
 9516TIP3    H252744   3.070   7.279   8.139 -0.2091  0.2192 -0.5799
 9517TIP3   OH252745   3.696   4.844   1.969 -1.1213 -0.2352  0.1039
 9517TIP3    H152746   3.685   4.881   1.882 -0.2744 -1.4302 -0.5464
 9517TIP3    H252747   3.679   4.917   2.029  2.2730  1.8012 -1.1244
 9518TIP3   OH252748   1.173   6.677   8.340  0.6257  0.1942 -0.0227
 9518TIP3    H152749   1.138   6.762   8.367  1.7329  0.3830  0.9182
 9518TIP3    H252750   1.135   6.614   8.402 -1.1332 -0.2240 -1.4353
 9519TIP3   OH252751   5.319   2.832   0.365  0.1440 -0.0904 -0.1602
 9519TIP3    H152752   5.323   2.884   0.284  0.6452  0.4327  0.1930
 9519TIP3    H252753   5.242   2.776   0.354 -0.5137  0.8530 -0.4725
 9520TIP3   OH252754   6.370   5.495   1.292 -0.3075 -0.0098 -0.1187
 9520TIP3    H152755   6.298   5.435   1.314 -1.1209  0.5183 -1.2254
 9520TIP3    H252756   6.362   5.565   1.356 -1.3672  0.4913 -0.7611
 9521TIP3   OH252757   2.201   3.552   8.625 -0.5278 -0.6677  0.3553
 9521TIP3    H152758   2.286   3.569   8.666 -0.9604  2.5487  0.1960
 9521TIP3    H252759   2.221   3.491   8.553  1.4131 -0.9025  1.0221
 9522TIP3   OH252760   7.061   1.880   0.211  0.0358 -0.4445 -0.4419
 9522TIP3    H152761   7.077   1.932   0.133  1.2427  0.2476  0.2315
 9522TIP3    H252762   7.081   1.939   0.284  0.2790 -1.4855  0.3645
 9523TIP3   OH252763   5.391   2.369   9.125  0.0763  0.4743  0.3802
 9523TIP3    H152764   5.350   2.434   9.182 -0.5551 -1.8923  2.8495
 9523TIP3    H252765   5.319   2.310   9.100  0.8625 -0.1006 -0.6289
 9524TIP3   OH252766   1.558   1.054   8.265  0.7369  0.4460  0.1719
 9524TIP3    H152767   1.550   1.063   8.170 -2.2521  0.8901  0.3793
 9524TIP3    H252768   1.571   1.143   8.297  0.8075  0.4099  0.2458
 9525TIP3   OH252769   2.139   1.487   7.255 -0.2582  0.1724  0.1093
 9525TIP3    H152770   2.083   1.467   7.180  0.4358 -1.8960  0.0927
 9525TIP3    H252771   2.084   1.467   7.331  0.4002 -1.9056  0.0930
 9526TIP3   OH252772   0.753   1.895   8.328  0.2415  0.6269  0.0540
 9526TIP3    H152773   0.840   1.936   8.325  0.6210 -0.1910 -1.3220
 9526TIP3    H252774   0.705   1.937   8.257  0.2071 -0.3463 -0.5152
 9527TIP3   OH252775   0.239   1.122   0.725 -0.5201  0.3316  0.2319
 9527TIP3    H152776   0.276   1.177   0.794  3.0496 -0.5696 -0.7322
 9527TIP3    H252777   0.192   1.182   0.668  0.0209  1.7506  1.2288
 9528TIP3   OH252778   6.173   1.180   0.252 -0.7923  0.2969  0.5746
 9528TIP3    H152779   6.246   1.118   0.243 -0.0304  1.1149  0.9621
 9528TIP3    H252780   6.214   1.266   0.245 -1.5738  0.7947  1.7952
 9529TIP3   OH252781   0.226   0.942   8.048  0.6231 -0.1146 -0.0832
 9529TIP3    H152782   0.165   1.014   8.065  0.3493  0.0693 -1.6571
 9529TIP3    H252783   0.312   0.980   8.065  0.3758 -0.0969  1.2385
 9530TIP3   OH252784   3.853   4.570   0.321 -0.1285  0.3517 -0.0238
 9530TIP3    H152785   3.823   4.483   0.347  0.4609  0.4154  0.9378
 9530TIP3    H252786   3.905   4.555   0.242 -0.2274 -0.1446  0.0021
 9531TIP3   OH252787   2.857   5.033   7.312 -0.2230  0.0923  0.5508
 9531TIP3    H152788   2.765   5.010   7.298  0.0402 -0.3174 -0.7090
 9531TIP3    H252789   2.905   4.964   7.266  0.7274  0.1178  1.4746
 9532TIP3   OH252790   3.776   2.541   7.302  0.6505  0.0535 -0.3120
 9532TIP3    H152791   3.834   2.600   7.255 -1.2868  1.8635 -0.5960
 9532TIP3    H252792   3.795   2.558   7.395 -1.1178  2.6326 -0.3099
 9533TIP3   OH252793   1.041   3.767   1.144 -0.7646  0.2571  0.1662
 9533TIP3    H152794   1.095   3.692   1.168 -0.3051  0.2926 -0.7340
 9533TIP3    H252795   1.086   3.842   1.183  1.0751  0.5678 -2.3192
 9534TIP3   OH252796   7.250   7.205   9.281 -0.4372  0.0108  0.3471
 9534TIP3    H152797   7.309   7.195   9.356 -0.1744 -2.9834 -0.1428
 9534TIP3    H252798   7.168   7.164   9.308 -1.0075  0.6566 -0.3494
 9535TIP3   OH252799   5.783   6.371   9.482  0.1302  0.3487  0.5235
 9535TIP3    H152800   5.868   6.386   9.524  0.0889  0.3023  0.6229
 9535TIP3    H252801   5.747   6.458   9.467  0.4667  0.3910 -0.0722
 9536TIP3   OH252802   6.856   3.414   9.204  0.4288  0.1709 -0.3076
 9536TIP3    H152803   6.784   3.357   9.179 -0.4212  0.4602  1.3859
 9536TIP3    H252804   6.920   3.356   9.246  0.4187  0.1754 -0.2865
 9537TIP3   OH252805   2.723   1.822   9.011  0.1659  0.1524  0.2009
 9537TIP3    H152806   2.645   1.865   8.978  0.2901  0.2835  0.0723
 9537TIP3    H252807   2.691   1.746   9.059  0.0198 -0.7896 -1.3296
 9538TIP3   OH252808   0.730   5.941   9.842 -0.0269  0.3382  0.1854
 9538TIP3    H152809   0.768   5.965   9.927  0.6418 -0.6631  0.1825
 9538TIP3    H252810   0.758   6.011   9.783  0.8725  0.2104  0.4403
 9539TIP3   OH252811   0.334   7.527   0.312  0.3722 -0.5275 -0.5752
 9539TIP3    H152812   0.418   7.486   0.334 -0.3633 -2.7036 -1.5483
 9539TIP3    H252813   0.358   7.614   0.280  2.1284 -0.5946  0.4118
 9540TIP3   OH252814   3.291   2.433   7.238 -0.0880  0.0192 -0.1952
 9540TIP3    H152815   3.374   2.405   7.200 -0.1989  1.4009 -1.5194
 9540TIP3    H252816   3.238   2.462   7.164 -0.8310  1.4936  0.8598
 9541TIP3   OH252817   0.935   5.815   9.452  0.1113 -0.0100  0.2696
 9541TIP3    H152818   0.865   5.871   9.484  1.9900  2.3711  0.5305
 9541TIP3    H252819   0.946   5.841   9.360 -0.0492 -1.1711 -0.0973
 9542TIP3   OH252820   1.921   3.647   1.040  0.1753  0.0472  0.1847
 9542TIP3    H152821   1.831   3.649   1.073  0.7440 -0.9556  1.9209
 9542TIP3    H252822   1.934   3.733   1.000 -0.9575  0.9325  1.6391
 9543TIP3   OH252823   5.095   2.009   1.901 -0.0664  0.2176  0.0201
 9543TIP3    H152824   5.112   1.959   1.821 -1.5855  0.8555 -0.7587
 9543TIP3    H252825   5.180   2.044   1.926  0.3922  0.2781 -1.5156
 9544TIP3   OH252826   2.132   0.108   8.818 -0.1345 -0.1466  0.1991
 9544TIP3    H152827   2.144   0.184   8.875 -0.8877  0.6394 -0.6610
 9544TIP3    H252828   2.053   0.127   8.768 -2.1099 -2.8440  2.0360
 9545TIP3   OH252829   0.178   3.755   2.717 -0.1699  0.3765 -0.1266
 9545TIP3    H152830   0.184   3.844   2.751  2.2138  0.1365  0.2240
 9545TIP3    H252831   0.249   3.708   2.759  0.4451 -0.9624 -2.4585
 9546TIP3   OH252832   5.327   4.907   1.238  0.3720  0.1316  0.5692
 9546TIP3    H152833   5.254   4.966   1.256 -0.5449 -1.7128  3.7247
 9546TIP3    H252834   5.405   4.962   1.243 -0.6214  1.6850 -0.3220
 9547TIP3   OH252835   4.199   4.242   8.629 -0.4282  0.4873  0.4052
 9547TIP3    H152836   4.213   4.147   8.624 -1.4118  0.3290  0.3055
 9547TIP3    H252837   4.191   4.260   8.722 -1.3508  0.2791  0.3765
 9548TIP3   OH252838   2.762   6.036   2.463 -0.2517  0.0711 -0.2710
 9548TIP3    H152839   2.815   6.069   2.535  0.6701 -1.0993 -0.3731
 9548TIP3    H252840   2.674   6.028   2.500 -0.3907  1.9812 -0.0786
 9549TIP3   OH252841   0.813   3.140   1.157  0.2010 -0.0044 -0.1880
 9549TIP3    H152842   0.867   3.112   1.083  0.0073 -0.3178 -0.2123
 9549TIP3    H252843   0.726   3.107   1.137  0.0254  0.3958 -0.0875
 9550TIP3   OH252844   3.032   0.871   7.774 -0.4386  0.2942 -0.1292
 9550TIP3    H152845   3.089   0.947   7.762 -1.1589  0.7061 -1.0854
 9550TIP3    H252846   3.015   0.839   7.685  0.1237 -1.2178  0.2627
 9551TIP3   OH252847   0.468   7.106   1.103 -0.1371 -0.3375 -0.4002
 9551TIP3    H152848   0.493   7.038   1.165 -0.8110  1.0036  1.4416
 9551TIP3    H252849   0.547   7.122   1.051  0.3093 -1.8051 -0.2221
 9552TIP3   OH252850   6.508   4.104   0.319  0.3210 -0.0778 -0.2511
 9552TIP3    H152851   6.590   4.112   0.270 -0.2344  2.7314 -0.9029
 9552TIP3    H252852   6.442   4.143   0.262 -0.9126  0.4842  1.4670
 9553TIP3   OH252853   5.491   1.989   0.138 -0.1394  0.0566  0.0410
 9553TIP3    H152854   5.557   1.981   0.207 -0.9873  0.0627  0.8708
 9553TIP3    H252855   5.470   2.082   0.135 -1.2674 -0.1497  0.9085
 9554TIP3   OH252856   3.824   1.261   7.723 -0.1519 -0.1803 -0.0022
 9554TIP3    H152857   3.736   1.289   7.699  0.2237  0.7265 -0.3909
 9554TIP3    H252858   3.847   1.195   7.657 -1.5197 -2.4414  1.6412
 9555TIP3   OH252859   4.469   3.013   1.286  0.6107 -0.0122 -0.4944
 9555TIP3    H152860   4.528   3.076   1.243 -0.5515  2.2039  0.9208
 9555TIP3    H252861   4.400   3.068   1.324  0.3816 -2.0028  2.2305
 9556TIP3   OH252862   2.335   5.761   7.632  0.5116  0.3552 -0.2410
 9556TIP3    H152863   2.272   5.807   7.687 -0.4058 -2.0178  0.8535
 9556TIP3    H252864   2.421   5.793   7.661 -0.0003 -0.1476  1.9528
 9557TIP3   OH252865   0.602   1.542   8.489  0.4393 -0.3060  0.2752
 9557TIP3    H152866   0.528   1.496   8.528 -0.3155 -0.7628 -1.5967
 9557TIP3    H252867   0.572   1.633   8.480 -0.2092 -0.6372 -1.1459
 9558TIP3   OH252868   3.488   1.079   9.289  0.7750  0.0906 -0.0115
 9558TIP3    H152869   3.508   1.165   9.252  0.1796  0.7648  1.1890
 9558TIP3    H252870   3.409   1.092   9.341  1.5608 -0.8074  1.4850
 9559TIP3   OH252871   4.716   1.158   7.773 -0.6683  0.1520  0.1470
 9559TIP3    H152872   4.746   1.174   7.683 -1.0245 -1.4794 -0.3009
 9559TIP3    H252873   4.770   1.085   7.803 -1.8589 -0.5930  0.5356
 9560TIP3   OH252874   0.931   7.305   0.267  0.4914 -0.1110 -0.4345
 9560TIP3    H152875   1.004   7.248   0.289  0.2882  0.2570  1.2735
 9560TIP3    H252876   0.963   7.357   0.193  2.1221  0.3668  0.5788
 9561TIP3   OH252877   1.166   1.756   7.736 -0.0144 -0.5587  0.1175
 9561TIP3    H152878   1.193   1.664   7.739  2.0078  0.0136  1.1112
 9561TIP3    H252879   1.230   1.799   7.681  1.1097  0.8194  2.3513
 9562TIP3   OH252880   1.210   3.438   7.167 -0.8050 -0.7055  0.0017
 9562TIP3    H152881   1.193   3.529   7.192  1.5946 -0.2260  0.1166
 9562TIP3    H252882   1.127   3.408   7.129 -2.1989  0.9591  1.5055
 9563TIP3   OH252883   5.611   0.284   1.923 -0.2268  0.4552 -0.1708
 9563TIP3    H152884   5.575   0.244   1.844  2.3737  0.4946 -1.4713
 9563TIP3    H252885   5.575   0.231   1.995 -1.6190 -0.3965 -1.4417
 9564TIP3   OH252886   2.324   2.836   9.134 -0.9266  0.2699  0.3360
 9564TIP3    H152887   2.266   2.761   9.145 -0.7595  0.3856  2.4414
 9564TIP3    H252888   2.324   2.879   9.220 -1.5013  3.0575 -0.9465
 9565TIP3   OH252889   5.368   3.458   8.579  0.3576  0.2467 -0.7322
 9565TIP3    H152890   5.341   3.545   8.608  1.7962  0.2932  0.5857
 9565TIP3    H252891   5.407   3.473   8.492 -0.4642  0.7119 -1.0327
 9566TIP3   OH252892   3.258   4.002   1.073 -0.5826 -0.3017  0.3571
 9566TIP3    H152893   3.171   3.972   1.049 -0.6078 -1.1307  1.4331
 9566TIP3    H252894   3.244   4.063   1.145 -0.2956 -0.1210  0.2653
 9567TIP3   OH252895   0.241   1.051   8.434 -0.5002 -0.2004  0.4418
 9567TIP3    H152896   0.313   0.990   8.451 -0.5901 -0.0559  1.4019
 9567TIP3    H252897   0.188   1.047   8.513 -2.3319 -1.3452 -0.7660
 9568TIP3   OH252898   5.318   3.925   8.128 -0.1275 -0.4878  0.4475
 9568TIP3    H152899   5.337   3.995   8.067  1.0831  0.3072  1.6663
 9568TIP3    H252900   5.313   3.846   8.074  2.0853 -0.0122 -0.5596
 9569TIP3   OH252901   1.055   7.279   1.407 -0.5420 -0.8495 -0.0937
 9569TIP3    H152902   1.132   7.230   1.379 -0.0379 -0.0118 -0.2241
 9569TIP3    H252903   1.053   7.355   1.348  0.4582  0.9024  1.9754
 9570TIP3   OH252904   4.608   6.232   9.855 -0.0476  0.6873 -0.2699
 9570TIP3    H152905   4.560   6.312   9.835 -1.4212  0.6738  2.5023
 9570TIP3    H252906   4.546   6.162   9.834  0.0414  0.4944  0.1102
 9571TIP3   OH252907   1.782   5.490   2.309 -0.0589 -0.3683 -0.0861
 9571TIP3    H152908   1.832   5.411   2.327  0.9182  0.3005  0.2227
 9571TIP3    H252909   1.797   5.507   2.216  0.5522  0.0008  0.0755
 9572TIP3   OH252910   2.574   3.146   0.380 -0.0542  0.2901 -0.4300
 9572TIP3    H152911   2.659   3.107   0.363 -0.4560 -1.1635  0.6350
 9572TIP3    H252912   2.515   3.103   0.319 -0.4834 -0.7756  0.6829
 9573TIP3   OH252913   4.871   5.962   8.479 -1.0616 -0.6501 -0.1780
 9573TIP3    H152914   4.852   6.055   8.475  1.8727  0.0499 -0.5619
 9573TIP3    H252915   4.853   5.929   8.391  0.2250  0.1559 -0.7763
 9574TIP3   OH252916   3.251   6.473   6.689 -0.2382 -0.4105 -0.0318
 9574TIP3    H152917   3.200   6.480   6.609  1.0416  0.4897 -0.7961
 9574TIP3    H252918   3.237   6.382   6.718 -1.4541 -0.4703 -0.7429
 9575TIP3   OH252919   6.925   6.187   0.697 -0.1471 -0.1342  0.1591
 9575TIP3    H152920   6.834   6.178   0.667 -0.0477 -0.5321 -0.0258
 9575TIP3    H252921   6.937   6.281   0.706 -0.2260 -0.0032 -0.9199
 9576TIP3   OH252922   6.226   5.673   1.529 -0.8466 -0.0999 -0.1627
 9576TIP3    H152923   6.275   5.740   1.577  0.8413 -0.9993 -0.5234
 9576TIP3    H252924   6.200   5.610   1.596 -3.2090  1.2628  0.3184
 9577TIP3   OH252925   3.633   4.518   0.658  0.3215 -0.0642  0.2464
 9577TIP3    H152926   3.686   4.597   0.648 -0.5959  0.4028 -1.3096
 9577TIP3    H252927   3.695   4.446   0.656  0.9758  0.5162 -0.6592
 9578TIP3   OH252928   1.956   0.795   7.681 -0.3651 -0.6562 -0.2874
 9578TIP3    H152929   1.910   0.831   7.757 -1.3474  0.6495 -1.4374
 9578TIP3    H252930   2.046   0.783   7.711 -0.7753 -0.3743  1.1357
 9579TIP3   OH252931   3.338   0.592   9.686  0.8799  0.2118  0.0549
 9579TIP3    H152932   3.311   0.559   9.771  1.8895  1.1302  0.7576
 9579TIP3    H252933   3.390   0.670   9.706  0.2284  1.0728 -1.4453
 9580TIP3   OH252934   7.125   5.616   9.387  0.0156 -0.4237  0.2980
 9580TIP3    H152935   7.141   5.524   9.412  2.0417  0.0711  1.0288
 9580TIP3    H252936   7.106   5.612   9.293  1.3595 -1.5003  0.0295
 9581TIP3   OH252937   1.497   3.520   1.604 -0.0870 -0.0095 -0.8218
 9581TIP3    H152938   1.535   3.441   1.564 -1.2784 -0.7871 -0.4792
 9581TIP3    H252939   1.556   3.591   1.578  1.8110 -1.1964  0.0017
 9582TIP3   OH252940   3.124   6.408   1.675 -0.1041  0.5393 -0.2495
 9582TIP3    H152941   3.050   6.350   1.659 -1.4133  1.7296  1.2014
 9582TIP3    H252942   3.091   6.496   1.657  1.2783  1.0253 -0.5925
 9583TIP3   OH252943   2.287   3.841   6.514  0.6732  0.1022 -0.0317
 9583TIP3    H152944   2.226   3.782   6.470 -0.7335  1.1213  0.4997
 9583TIP3    H252945   2.335   3.883   6.443 -1.2477  1.3934 -0.6444
 9584TIP3   OH252946   5.074   2.121   7.376  0.3772 -0.1817 -0.1560
 9584TIP3    H152947   5.082   2.216   7.367  1.0743 -0.3423 -1.5431
 9584TIP3    H252948   5.163   2.090   7.391  0.3972 -0.7381 -1.2750
 9585TIP3   OH252949   1.206   7.664   0.202  0.0336  0.4472  0.4820
 9585TIP3    H152950   1.285   7.715   0.187 -0.8436  1.7415  0.1297
 9585TIP3    H252951   1.195   7.666   0.297 -0.1508  1.1796  0.4524
 9586TIP3   OH252952   3.373   5.625   0.391  0.7028  0.6208  0.3577
 9586TIP3    H152953   3.451   5.618   0.336  0.8043  0.4313  0.5259
 9586TIP3    H252954   3.355   5.535   0.419  0.2324  0.6123  0.0497
 9587TIP3   OH252955   0.561   0.811   7.275 -0.4773 -0.1944 -0.4642
 9587TIP3    H152956   0.603   0.806   7.361  1.4085  2.2023 -1.1192
 9587TIP3    H252957   0.557   0.720   7.245  1.2487 -0.8432  1.0651
 9588TIP3   OH252958   0.995   1.278   9.793  0.3400 -0.5351 -0.0194
 9588TIP3    H152959   1.034   1.262   9.879  0.5373  2.3822  0.5262
 9588TIP3    H252960   1.002   1.372   9.781 -2.4461 -0.4634 -1.9095
 9589TIP3   OH252961   4.378   5.722   0.169  0.2504 -0.9165  0.4142
 9589TIP3    H152962   4.329   5.804   0.171 -0.5382 -1.3902  1.5313
 9589TIP3    H252963   4.465   5.747   0.136 -0.2623  0.1890 -0.1617
 9590TIP3   OH252964   3.431   2.816   8.841 -0.3888  0.1466 -0.0337
 9590TIP3    H152965   3.513   2.767   8.849 -0.4710 -0.0824 -0.5751
 9590TIP3    H252966   3.452   2.903   8.875  0.0337  0.0425 -0.0165
 9591TIP3   OH252967   2.072   6.594   1.530  0.3277  0.4228  0.1527
 9591TIP3    H152968   1.978   6.575   1.529  0.4901 -1.0721  3.1921
 9591TIP3    H252969   2.109   6.532   1.468 -0.7258  2.0320 -2.2524
 9592TIP3   OH252970   4.668   5.190   0.617 -0.1120  0.6615  0.0200
 9592TIP3    H152971   4.633   5.103   0.597  0.2674 -0.7924  4.5342
 9592TIP3    H252972   4.754   5.172   0.655  0.3663  3.1328  0.2329
 9593TIP3   OH252973   7.055   5.620   2.112  0.2453 -0.4894  0.0343
 9593TIP3    H152974   7.054   5.687   2.044 -0.0730 -0.7987 -0.2642
 9593TIP3    H252975   7.149   5.605   2.128  0.4388 -2.5652 -2.4782
 9594TIP3   OH252976   1.945   3.214   0.534 -0.6718 -0.3325 -0.3535
 9594TIP3    H152977   1.924   3.302   0.503  0.9424 -0.1951 -1.1808
 9594TIP3    H252978   1.906   3.156   0.469  0.7836 -0.1050 -1.4913
 9595TIP3   OH252979   6.734   4.822   2.011 -0.0468  0.2591 -0.0401
 9595TIP3    H152980   6.661   4.792   2.065  1.1867 -0.6588  1.1907
 9595TIP3    H252981   6.748   4.751   1.948  3.0748 -2.2359  3.0706
 9596TIP3   OH252982   5.236   5.799   0.431 -0.4573 -0.0888 -0.1217
 9596TIP3    H152983   5.157   5.744   0.430 -0.5793  0.0916 -0.8140
 9596TIP3    H252984   5.254   5.818   0.339 -0.7838  1.5569  0.1185
 9597TIP3   OH252985   0.441   3.658   8.267 -0.0403 -0.1353 -0.2439
 9597TIP3    H152986   0.519   3.691   8.312  0.2104 -1.5681  0.4287
 9597TIP3    H252987   0.473   3.590   8.208 -0.7130 -0.3416 -0.3849
 9598TIP3   OH252988   7.141   3.306   9.871 -0.2801  0.1792 -0.0015
 9598TIP3    H152989   7.084   3.229   9.859 -0.1821  0.1847 -0.4788
 9598TIP3    H252990   7.088   3.365   9.925  0.5316 -1.2121  2.4762
 9599TIP3   OH252991   3.326   3.516   7.510 -0.5670 -0.0380 -0.3374
 9599TIP3    H152992   3.387   3.518   7.584 -0.6920 -0.4659 -0.2193
 9599TIP3    H252993   3.382   3.504   7.433 -0.4894 -0.2794 -0.2440
 9600TIP3   OH252994   5.501   7.092   8.783  0.1171  0.1340  0.0968
 9600TIP3    H152995   5.509   7.020   8.721 -0.5094  0.2505 -0.1341
 9600TIP3    H252996   5.413   7.127   8.767  0.6505  1.3661 -0.2527
 9601TIP3   OH252997   3.261   1.122   8.965  0.7650  0.1277 -0.0279
 9601TIP3    H152998   3.194   1.073   9.012 -1.1984 -0.1617 -2.8764
 9601TIP3    H252999   3.343   1.097   9.006 -0.5968 -1.8817  1.6465
 9602TIP3   OH253000   5.041   5.898   1.980  0.0858 -0.0561 -0.1509
 9602TIP3    H153001   4.947   5.880   1.977  0.1761 -0.4598 -1.0433
 9602TIP3    H253002   5.077   5.831   2.037 -0.0975 -0.2724 -0.2872
 9603TIP3   OH253003   2.590   1.142   0.566 -0.4421 -0.3183 -0.0903
 9603TIP3    H153004   2.644   1.132   0.488 -0.0703  1.1187 -0.0360
 9603TIP3    H253005   2.512   1.189   0.535 -0.3667  0.1176  0.3807
 9604TIP3   OH253006   6.240   5.688   8.054 -0.1546  0.3132 -0.2082
 9604TIP3    H153007   6.217   5.774   8.089 -1.4580  0.3568 -1.0871
 9604TIP3    H253008   6.156   5.642   8.047  0.5262 -1.0709  0.3209
 9605TIP3   OH253009   4.692   4.756   0.003  0.1636  0.0531  1.2505
 9605TIP3    H153010   4.756   4.760  -0.068 -0.4936 -2.8916  0.3602
 9605TIP3    H253011   4.627   4.822  -0.019  0.5110 -0.1131 -0.3607
 9606TIP3   OH253012   2.809   6.221   0.786 -0.3147  0.4980  0.0092
 9606TIP3    H153013   2.763   6.253   0.709  0.7746 -2.0869 -1.8697
 9606TIP3    H253014   2.900   6.249   0.773  0.0183 -0.5576 -0.0573
 9607TIP3   OH253015   0.661   5.968   7.175 -0.6498  0.2131  0.4023
 9607TIP3    H153016   0.595   5.988   7.109 -1.8104 -0.5979  1.2847
 9607TIP3    H253017   0.643   6.027   7.248  0.5426  1.0104  0.0919
 9608TIP3   OH253018   0.575   4.192   8.695  0.4358 -0.2676  0.2166
 9608TIP3    H153019   0.590   4.150   8.779  0.1911  0.2771  0.5365
 9608TIP3    H253020   0.651   4.248   8.682  0.6212 -0.5799 -0.0732
 9609TIP3   OH253021   4.813   5.930   8.206  0.5984 -0.3932 -0.2921
 9609TIP3    H153022   4.759   5.969   8.138 -0.1761  0.5240  0.8166
 9609TIP3    H253023   4.750   5.888   8.265  0.7098  2.9850  2.5240
 9610TIP3   OH253024   7.099   0.014   8.243 -0.8567  0.3987 -0.7626
 9610TIP3    H153025   7.171  -0.047   8.226  0.5209  1.5848  0.4984
 9610TIP3    H253026   7.068   0.039   8.156  0.1059 -0.3028 -1.3357
 9611TIP3   OH253027   7.122   5.333   9.515 -0.2725 -0.1579 -0.4801
 9611TIP3    H153028   7.099   5.267   9.449 -2.2498 -0.5274  0.4960
 9611TIP3    H253029   7.042   5.342   9.568  1.1444  0.2952  1.7093
 9612TIP3   OH253030   3.617   4.175   9.339 -0.0724  0.1203 -0.2276
 9612TIP3    H153031   3.654   4.102   9.288  1.0688  1.2465 -1.1035
 9612TIP3    H253032   3.557   4.218   9.279  0.1504  0.5779 -0.1312
 9613TIP3   OH253033   1.753   2.021   7.465 -0.4296 -0.2516  0.2900
 9613TIP3    H153034   1.823   1.970   7.426 -0.1732  0.2007  0.1566
 9613TIP3    H253035   1.788   2.110   7.471 -1.3363  0.1845 -0.6697
 9614TIP3   OH253036   3.992   4.569   0.070 -0.3905  0.2761  0.1413
 9614TIP3    H153037   3.923   4.553   0.005 -1.2051  2.2438  0.4430
 9614TIP3    H253038   4.072   4.537   0.028 -1.2846 -0.9186 -0.7349
 9615TIP3   OH253039   2.456   0.172   8.722  0.2908 -0.0986  0.5966
 9615TIP3    H153040   2.415   0.225   8.790  0.0662 -0.0672  0.4363
 9615TIP3    H253041   2.432   0.082   8.744  0.5841 -0.1257  0.8096
 9616TIP3   OH253042   7.069   2.297   8.327  0.0993 -0.0745 -0.4642
 9616TIP3    H153043   7.091   2.258   8.242 -1.0344  0.5211 -1.0648
 9616TIP3    H253044   7.152   2.300   8.374  0.7116 -0.6419 -1.4592
 9617TIP3   OH253045   2.018   5.629   3.023 -0.1540 -0.2202  0.2256
 9617TIP3    H153046   2.045   5.713   3.060 -0.0485  0.1969 -0.7619
 9617TIP3    H253047   1.964   5.653   2.948 -0.1462 -1.0385 -0.0456
 9618TIP3   OH253048   6.514   2.774   0.387  0.3765 -0.0141 -0.7745
 9618TIP3    H153049   6.501   2.687   0.424  0.3777 -0.2208 -1.2438
 9618TIP3    H253050   6.500   2.835   0.460  2.6428 -0.4852  0.1254
 9619TIP3   OH253051   4.391   3.584   2.228 -0.3387 -0.2005  0.0980
 9619TIP3    H153052   4.483   3.589   2.203 -0.1982 -0.7483  0.4867
 9619TIP3    H253053   4.393   3.571   2.323 -0.8145 -0.3362  0.0922
 9620TIP3   OH253054   6.859   6.928   9.445  0.3578 -1.4654  0.4842
 9620TIP3    H153055   6.765   6.921   9.429  0.1564  0.4508  0.6648
 9620TIP3    H253056   6.895   6.963   9.364  0.9491 -2.1873  0.4144
 9621TIP3   OH253057   2.747   6.236   0.444 -0.6076  0.3186  0.1676
 9621TIP3    H153058   2.831   6.277   0.420  0.7332 -1.4124  1.6559
 9621TIP3    H253059   2.709   6.211   0.360  0.3400  1.1991 -0.5534
 9622TIP3   OH253060   7.487   4.401   2.664 -0.9406  0.4720  0.1807
 9622TIP3    H153061   7.409   4.446   2.633 -0.4357  0.7634 -0.6987
 9622TIP3    H253062   7.477   4.311   2.635 -0.7934  0.5875 -0.2305
 9623TIP3   OH253063   4.702   3.157   9.758  0.2460  0.0468 -0.1659
 9623TIP3    H153064   4.647   3.130   9.685  0.7114 -1.9460  0.1670
 9623TIP3    H253065   4.772   3.092   9.761  0.5092  0.3549  1.7274
 9624TIP3   OH253066   5.926   2.835   1.418 -0.3104  0.0606 -0.2592
 9624TIP3    H153067   5.995   2.824   1.352  1.2433  1.2834  1.0911
 9624TIP3    H253068   5.946   2.769   1.484 -1.5417 -0.7929 -0.6972
 9625TIP3   OH253069   7.628   0.008   1.341  0.0691  0.2673  0.7874
 9625TIP3    H153070   7.687   0.035   1.412  2.6991 -0.3308 -1.0081
 9625TIP3    H253071   7.590  -0.074   1.371  1.2843 -0.0738  1.4576
 9626TIP3   OH253072   2.872   5.774   9.851  0.6227  0.1872 -0.3027
 9626TIP3    H153073   2.797   5.729   9.813  1.0013 -1.1438  0.4551
 9626TIP3    H253074   2.835   5.834   9.915  0.1488  0.2891 -0.6728
 9627TIP3   OH253075   7.266   4.262   1.084 -0.5166 -0.1901  0.0560
 9627TIP3    H153076   7.309   4.198   1.140  1.5770 -0.5494 -1.8314
 9627TIP3    H253077   7.190   4.215   1.049  0.5661 -1.4256 -0.7134
 9628TIP3   OH253078   5.562   7.305   0.060  0.0016 -0.7561 -0.0207
 9628TIP3    H153079   5.531   7.243   0.126  0.9348  0.2801  1.4572
 9628TIP3    H253080   5.541   7.263  -0.024  0.4713 -3.0082  0.9025
 9629TIP3   OH253081   7.397   5.804   1.095 -0.3662  0.1872 -0.2298
 9629TIP3    H153082   7.419   5.877   1.037 -1.0155  0.4950 -0.1008
 9629TIP3    H253083   7.377   5.845   1.179 -0.4413 -0.1660 -0.0739
 9630TIP3   OH253084   0.275   4.309   1.449 -0.4675 -0.3689  0.4139
 9630TIP3    H153085   0.354   4.283   1.402 -0.5421  0.9114 -0.4729
 9630TIP3    H253086   0.251   4.393   1.410 -1.6596 -0.2260  1.4115
 9631TIP3   OH253087   4.664   6.282   9.308 -0.7525 -0.2889 -0.1597
 9631TIP3    H153088   4.627   6.301   9.395 -1.6389 -1.3950 -0.2801
 9631TIP3    H253089   4.598   6.314   9.247  0.1372  1.0332 -0.4610
 9632TIP3   OH253090   5.355   0.396   9.941 -0.1253  0.0804  0.2176
 9632TIP3    H153091   5.318   0.310   9.959 -0.6734  0.1060 -0.7082
 9632TIP3    H253092   5.281   0.449   9.912  0.2350  0.8259  0.6167
 9633TIP3   OH253093   6.185   5.473   8.334 -0.1558  0.2464  0.4612
 9633TIP3    H153094   6.263   5.468   8.278 -1.5702 -0.5345 -1.5323
 9633TIP3    H253095   6.134   5.546   8.299 -1.3111 -0.5791  0.3555
 9634TIP3   OH253096   0.808   0.509   1.966 -0.2140  0.6963 -0.2971
 9634TIP3    H153097   0.751   0.501   1.890 -0.0035  0.4511 -0.4298
 9634TIP3    H253098   0.755   0.555   2.032 -0.3546  1.0157 -0.6304
 9635TIP3   OH253099   6.530   5.109   2.142  0.5035  0.6724  0.4458
 9635TIP3    H153100   6.545   5.018   2.166  0.0430  0.8018  1.2382
 9635TIP3    H253101   6.618   5.145   2.131  0.6953  0.2765  0.6615
 9636TIP3   OH253102   2.062   4.946   8.886 -0.5178  0.3070  0.3046
 9636TIP3    H153103   2.043   4.858   8.919 -0.6019  0.7975  1.6283
 9636TIP3    H253104   2.141   4.935   8.832  0.3742 -0.3518  1.6774
 9637TIP3   OH253105   3.127   1.046   8.711  0.5203  0.3202  0.3581
 9637TIP3    H153106   3.161   0.976   8.655 -1.2823  0.3725 -0.8859
 9637TIP3    H253107   3.201   1.070   8.767  1.3398 -2.1856  0.4628
 9638TIP3   OH253108   3.659   3.596   1.860  0.1873  0.1277 -0.0145
 9638TIP3    H153109   3.684   3.522   1.806 -0.2484  0.8162 -1.2110
 9638TIP3    H253110   3.619   3.558   1.938  1.3985 -0.8976  0.1265
 9639TIP3   OH253111   2.032   6.680   1.794  0.5415  0.6013 -0.3380
 9639TIP3    H153112   1.943   6.697   1.825 -0.1242  2.4435 -2.9461
 9639TIP3    H253113   2.020   6.635   1.711  1.9716  2.0178 -1.3684
 9640TIP3   OH253114   7.479   5.349   2.272  0.0390  0.0330 -0.1770
 9640TIP3    H153115   7.543   5.419   2.284 -2.6583  2.6365  0.1333
 9640TIP3    H253116   7.476   5.304   2.357  0.6659  0.5987  0.1532
 9641TIP3   OH253117   4.714   4.642   0.658 -0.5614  0.0237 -0.4470
 9641TIP3    H153118   4.749   4.704   0.594  0.4134 -0.3627 -0.3093
 9641TIP3    H253119   4.768   4.564   0.647  1.8978  0.9840  3.0169
 9642TIP3   OH253120   1.440   7.547   3.542 -0.7223 -0.3899 -0.0321
 9642TIP3    H153121   1.423   7.506   3.457  1.5930 -2.2445  0.2751
 9642TIP3    H253122   1.502   7.618   3.521 -0.3616 -0.6746  0.0618
 9643TIP3   OH253123   6.585   0.005   8.380 -0.3169 -0.2841  0.8957
 9643TIP3    H153124   6.525   0.047   8.320  0.0682 -1.4042 -0.3315
 9643TIP3    H253125   6.568   0.046   8.465 -1.2150  0.9839  0.1278
 9644TIP3   OH253126   0.562   0.831   9.998 -0.0129 -0.3307  0.2751
 9644TIP3    H153127   0.640   0.864   9.953  0.5759 -1.3051  0.5551
 9644TIP3    H253128   0.538   0.752   9.950 -0.4328 -0.3957  0.5918
 9645TIP3   OH253129   6.464   5.873   0.975  0.5531 -0.2043  0.1899
 9645TIP3    H153130   6.457   5.962   1.009 -0.8969  0.3092 -1.3012
 9645TIP3    H253131   6.399   5.823   1.025 -0.7060  0.2708 -0.9211
 9646TIP3   OH253132   7.413   3.741   8.578  0.4083  0.3862 -0.0860
 9646TIP3    H153133   7.458   3.819   8.545  0.7638  0.0483 -0.4087
 9646TIP3    H253134   7.411   3.681   8.504 -0.3134  0.2740  0.0126
 9647TIP3   OH253135   6.018   3.638   0.054 -0.2625  0.1355  0.1913
 9647TIP3    H153136   5.982   3.553   0.081  3.0055 -1.4578  0.0313
 9647TIP3    H253137   6.041   3.682   0.136 -0.7175  0.2672  0.2473
 9648TIP3   OH253138   2.244   3.604   6.949 -1.1231 -0.4928  0.6254
 9648TIP3    H153139   2.216   3.677   6.893 -0.0933  0.8866  1.8276
 9648TIP3    H253140   2.323   3.571   6.908 -1.3483 -0.6535  0.3154
 9649TIP3   OH253141   3.003   6.409   0.986 -0.3864 -0.5366  0.0097
 9649TIP3    H153142   2.935   6.453   0.936 -0.4087 -1.6561 -1.0006
 9649TIP3    H253143   3.078   6.407   0.927  0.5041  0.5628  1.0589
 9650TIP3   OH253144   0.798   4.570   2.160 -0.7529  0.1934 -0.2581
 9650TIP3    H153145   0.865   4.587   2.226  0.4762 -1.0248 -1.1244
 9650TIP3    H253146   0.726   4.530   2.209 -0.5702  0.8757  0.5877
 9651TIP3   OH253147   2.708   4.669   8.961  0.4700 -0.4372  0.4132
 9651TIP3    H153148   2.800   4.682   8.984  0.6687 -0.2119 -0.4717
 9651TIP3    H253149   2.710   4.637   8.871 -0.3461  0.1214  0.1863
 9652TIP3   OH253150   3.151   5.821   7.207 -0.0943  0.4814  0.4226
 9652TIP3    H153151   3.098   5.755   7.164 -0.5788  0.2924  1.2849
 9652TIP3    H253152   3.241   5.799   7.183 -0.4180  1.9929 -2.7245
 9653TIP3   OH253153   2.652   7.207   1.169 -0.1526  0.0642 -0.3973
 9653TIP3    H153154   2.659   7.138   1.235  0.2143 -0.0821 -0.5864
 9653TIP3    H253155   2.734   7.256   1.177  0.2420 -0.4359 -1.2783
 9654TIP3   OH253156   6.041   5.744   2.224  0.1616 -0.4247 -0.3638
 9654TIP3    H153157   5.964   5.688   2.231 -0.1806  0.0320 -0.4243
 9654TIP3    H253158   6.115   5.686   2.241 -0.1922 -0.8805 -0.3722
 9655TIP3   OH253159   5.002   0.080   8.496  0.2144 -0.0940  0.1976
 9655TIP3    H153160   5.017   0.017   8.425 -1.3947 -0.5182  0.2017
 9655TIP3    H253161   4.921   0.125   8.472  0.2983  0.6029  1.1686
 9656TIP3   OH253162   3.540   7.348   9.417 -0.8087 -0.1642 -0.3145
 9656TIP3    H153163   3.581   7.262   9.407 -0.7971 -0.2270  0.2062
 9656TIP3    H253164   3.582   7.403   9.352 -0.0202 -0.2690  0.0901
 9657TIP3   OH253165   1.207   1.284   8.492  0.2811  0.0912  0.7975
 9657TIP3    H153166   1.212   1.189   8.505 -1.5564 -0.0500  0.8029
 9657TIP3    H253167   1.148   1.294   8.417  1.3320  1.2161  0.0928
 9658TIP3   OH253168   1.169   2.690   0.868 -0.6000  0.1868  0.0362
 9658TIP3    H153169   1.210   2.728   0.945  0.0751 -0.9719  0.2799
 9658TIP3    H253170   1.100   2.633   0.902 -0.0710 -0.6019 -0.1838
 9659TIP3   OH253171   3.881   4.597   9.382  0.2782  0.0074 -0.4513
 9659TIP3    H153172   3.806   4.537   9.384 -0.6773  1.1918 -0.1673
 9659TIP3    H253173   3.941   4.561   9.446 -0.6290 -0.2297  0.2845
 9660TIP3   OH253174   1.634   5.359   9.847  0.1350  0.1346  0.1926
 9660TIP3    H153175   1.720   5.400   9.851  0.6650 -0.9380  0.3241
 9660TIP3    H253176   1.583   5.401   9.916  0.5680  0.7226  0.1584
 9661TIP3   OH253177   4.522   3.236   9.196 -0.6041  0.3896  0.1054
 9661TIP3    H153178   4.553   3.288   9.122  2.2912 -0.9951  0.2107
 9661TIP3    H253179   4.452   3.289   9.235 -0.0857  2.5958 -1.7553
 9662TIP3   OH253180   3.710   2.011   1.612 -0.2240  0.0125 -0.1128
 9662TIP3    H153181   3.737   1.999   1.521  0.6719  0.9477  0.0089
 9662TIP3    H253182   3.786   1.985   1.663 -0.7559 -0.5995  0.3764
 9663TIP3   OH253183   0.352   5.438   9.417 -0.3751 -0.1743 -0.2891
 9663TIP3    H153184   0.377   5.501   9.349 -0.3965 -0.3996 -0.5105
 9663TIP3    H253185   0.259   5.455   9.433  0.0850  1.2431  1.1528
 9664TIP3   OH253186   3.612   6.855   1.031  0.4954 -0.0927 -0.6156
 9664TIP3    H153187   3.642   6.788   1.092  0.8586 -0.2033 -0.9103
 9664TIP3    H253188   3.526   6.881   1.063 -1.1417 -2.9661 -2.2662
 9665TIP3   OH253189   1.452   3.922   2.849 -0.1075  0.0088  0.9896
 9665TIP3    H153190   1.388   3.885   2.909 -0.0422 -0.0420  1.0280
 9665TIP3    H253191   1.512   3.849   2.831 -0.6917 -0.2691  0.0879
 9666TIP3   OH253192   4.364   2.511   7.074  0.0678  0.0303 -0.4169
 9666TIP3    H153193   4.276   2.494   7.039  0.4899 -1.9611 -0.5971
 9666TIP3    H253194   4.354   2.501   7.169 -0.2274  1.5174 -0.2606
 9667TIP3   OH253195   2.625   6.870   0.972  0.2170  0.0753  0.5663
 9667TIP3    H153196   2.631   6.797   0.910  0.3137  0.3257  0.2753
 9667TIP3    H253197   2.622   6.829   1.058  2.0834 -0.2266  0.5189
 9668TIP3   OH253198   7.193   3.602   0.563 -0.3356 -0.1321 -0.2155
 9668TIP3    H153199   7.100   3.593   0.543 -0.6575  1.7715  0.2018
 9668TIP3    H253200   7.197   3.593   0.659 -0.1814  0.3586 -0.1737
 9669TIP3   OH253201   6.054   3.548   0.414  1.0095  0.4897 -0.1657
 9669TIP3    H153202   6.063   3.632   0.369  2.0168 -0.4741 -1.8366
 9669TIP3    H253203   6.056   3.482   0.345  0.3947 -0.9487  1.1161
 9670TIP3   OH253204   5.453   7.303   9.663 -0.8167  0.3041 -0.3134
 9670TIP3    H153205   5.416   7.221   9.631 -0.8523  0.4633 -0.6926
 9670TIP3    H253206   5.530   7.277   9.714  0.0668  0.1120 -1.6905
 9671TIP3   OH253207   0.298   3.124   8.058 -1.3436 -0.2060 -0.2354
 9671TIP3    H153208   0.276   3.146   7.967 -1.2483  1.7521  0.1807
 9671TIP3    H253209   0.394   3.129   8.060 -1.4043  1.2098  0.2787
 9672TIP3   OH253210   5.960   5.396   9.635 -0.5271 -0.2717  0.3893
 9672TIP3    H153211   5.887   5.357   9.683 -0.7441  0.0504  0.3222
 9672TIP3    H253212   5.945   5.371   9.544 -0.8048  0.1824  0.3100
 9673TIP3   OH253213   3.291   5.348   7.663  0.0683  0.4580  0.3690
 9673TIP3    H153214   3.300   5.442   7.651 -0.3680  0.4327 -0.1583
 9673TIP3    H253215   3.287   5.312   7.575  0.0191 -0.0338  0.5673
 9674TIP3   OH253216   4.333   3.288   1.178 -0.5797  0.2795  0.5764
 9674TIP3    H153217   4.275   3.231   1.127 -1.8377  2.0409 -0.0636
 9674TIP3    H253218   4.276   3.359   1.208  1.1322  1.7705  0.4255
 9675TIP3   OH253219   0.557   5.685   0.827 -0.2657 -0.2479 -0.5257
 9675TIP3    H153220   0.509   5.618   0.777  1.4421 -0.7423 -1.6115
 9675TIP3    H253221   0.647   5.652   0.830  0.0754  0.7381  1.2516
 9676TIP3   OH253222   7.259   6.149   0.892  0.0855  0.3106 -0.7188
 9676TIP3    H153223   7.345   6.142   0.933 -0.0787 -1.2240 -0.5779
 9676TIP3    H253224   7.223   6.232   0.925  0.3102 -0.4372  1.6035
 9677TIP3   OH253225   4.643   2.792   8.728  0.5195 -0.0833 -0.4984
 9677TIP3    H153226   4.618   2.883   8.746  1.4769  0.4630 -1.7098
 9677TIP3    H253227   4.707   2.771   8.796 -0.7843 -0.3771  0.6676
 9678TIP3   OH253228   5.960   6.592   0.607 -0.1622 -0.3757 -0.2494
 9678TIP3    H153229   6.043   6.639   0.614  0.5845 -1.5492 -0.7455
 9678TIP3    H253230   5.899   6.643   0.659  1.2102 -0.2227  1.2911
 9679TIP3   OH253231   3.907   1.918   1.768  0.3840 -0.4111  0.5798
 9679TIP3    H153232   3.940   1.927   1.857  0.6816 -1.3375  0.5764
 9679TIP3    H253233   3.907   1.823   1.752 -2.9334 -0.5947  0.8586
 9680TIP3   OH253234   5.138   4.955   9.733  0.0813  0.0953  0.4488
 9680TIP3    H153235   5.227   4.989   9.741 -0.0213  1.0986 -1.9154
 9680TIP3    H253236   5.091   5.021   9.682 -2.2670 -0.0536  2.2637
 9681TIP3   OH253237   0.280   5.889   1.574  0.5003  0.4657  0.3304
 9681TIP3    H153238   0.277   5.889   1.479 -0.4727  3.3347  0.2753
 9681TIP3    H253239   0.196   5.924   1.601  0.7623 -0.2674  2.2735
 9682TIP3   OH253240   4.736   2.150   9.728  0.4371 -0.1692 -0.3438
 9682TIP3    H153241   4.784   2.067   9.732  1.5203  0.4408 -0.1625
 9682TIP3    H253242   4.648   2.126   9.698 -0.0747 -1.6881  2.1389
 9683TIP3   OH253243   6.136   1.575   1.809  0.1430  0.3086 -0.0079
 9683TIP3    H153244   6.112   1.552   1.719 -2.2606  0.8266  0.4492
 9683TIP3    H253245   6.108   1.500   1.861 -0.6473  0.9852  0.5669
 9684TIP3   OH253246   1.964   1.417   7.056 -0.2371  0.3656  0.0356
 9684TIP3    H153247   1.872   1.422   7.030 -0.5399 -0.2019  0.9351
 9684TIP3    H253248   2.008   1.378   6.981 -0.8917 -0.2353 -0.0513
 9685TIP3   OH253249   6.902   2.585   0.682 -0.6605  0.2387  0.0671
 9685TIP3    H153250   6.989   2.616   0.654 -0.0201 -1.1882  0.3905
 9685TIP3    H253251   6.865   2.660   0.729  0.2239  1.0195 -0.4297
 9686TIP3   OH253252   0.521   2.414   9.815 -0.2515  0.3614  0.4298
 9686TIP3    H153253   0.471   2.337   9.842 -0.9697  0.1895 -1.2763
 9686TIP3    H253254   0.612   2.384   9.812 -0.3214  0.0430  1.3504
 9687TIP3   OH253255   3.358   3.318   7.104  0.7950  0.0909  0.2513
 9687TIP3    H153256   3.328   3.273   7.183  1.1527 -0.5428  0.0337
 9687TIP3    H253257   3.311   3.275   7.033  0.6857  0.4745  0.0841
 9688TIP3   OH253258   0.934   5.253   7.267  0.0963 -0.3105 -0.6366
 9688TIP3    H153259   0.855   5.203   7.287 -0.3264  1.3519  2.4390
 9688TIP3    H253260   0.902   5.334   7.226  0.1091  0.5711  1.0402
 9689TIP3   OH253261   1.849   0.776   9.208  0.2331  0.9920 -1.0460
 9689TIP3    H153262   1.772   0.729   9.175  0.8559 -1.3346  0.5869
 9689TIP3    H253263   1.923   0.722   9.182  1.1375  1.9577 -0.5345
 9690TIP3   OH253264   2.574   3.909   8.097 -0.0312 -0.2472  0.2053
 9690TIP3    H153265   2.633   3.834   8.090 -0.2231 -0.4436  0.6211
 9690TIP3    H253266   2.528   3.895   8.180  0.2027  0.5217  0.4779
 9691TIP3   OH253267   4.241   2.982   0.351 -0.6908 -0.1747 -0.0920
 9691TIP3    H153268   4.335   2.990   0.371 -0.7248 -1.1877  0.5653
 9691TIP3    H253269   4.198   2.982   0.437 -1.5271  2.3460 -0.4185
 9692TIP3   OH253270   2.515   2.406   1.526  0.1649 -0.1981  0.0657
 9692TIP3    H153271   2.578   2.469   1.490  1.3881 -2.2708 -1.6165
 9692TIP3    H253272   2.549   2.386   1.614 -0.0727  1.1901  0.5024
 9693TIP3   OH253273   7.517   4.284   1.728  0.1541 -0.4795  0.0853
 9693TIP3    H153274   7.556   4.371   1.716 -0.8926 -0.0490 -0.3076
 9693TIP3    H253275   7.484   4.285   1.818  2.8757 -1.6272  1.2154
 9694TIP3   OH253276   1.999   2.197   9.566 -0.0134 -0.6771 -0.0891
 9694TIP3    H153277   2.073   2.138   9.581  1.4192  0.6626 -1.3811
 9694TIP3    H253278   1.993   2.204   9.470 -1.6706 -0.5406 -0.0067
 9695TIP3   OH253279   4.376   2.236   2.603 -0.2889 -0.0344  0.8638
 9695TIP3    H153280   4.283   2.261   2.597 -0.2916 -0.3653 -1.2943
 9695TIP3    H253281   4.374   2.148   2.641 -0.5763  1.1772  3.9669
 9696TIP3   OH253282   3.418   4.592   9.728  0.3653  0.0745 -0.3864
 9696TIP3    H153283   3.327   4.586   9.698 -0.3841  2.7279  1.0022
 9696TIP3    H253284   3.453   4.669   9.684  1.2962  0.2413  0.6066
 9697TIP3   OH253285   4.675   3.959   0.352 -0.5820  0.4861  0.0406
 9697TIP3    H153286   4.750   3.943   0.409  0.2612  0.4840 -1.0488
 9697TIP3    H253287   4.663   4.054   0.353 -1.1309  0.4169  0.9068
 9698TIP3   OH253288   4.161   6.273   9.798 -0.1466 -0.2766  0.3962
 9698TIP3    H153289   4.194   6.309   9.880 -1.9494 -1.3256  1.6591
 9698TIP3    H253290   4.127   6.187   9.822 -2.9149  0.3377 -0.9152
 9699TIP3   OH253291   0.684   0.399   9.955  0.4275 -0.7130 -0.1531
 9699TIP3    H153292   0.724   0.437   9.876  0.2366  3.3905  1.5134
 9699TIP3    H253293   0.601   0.445   9.964 -0.8404 -3.0721  1.0480
 9700TIP3   OH253294   7.078   6.128   8.021 -0.4725 -0.3304  0.5914
 9700TIP3    H153295   7.079   6.148   8.115  0.6567  0.3693  0.4505
 9700TIP3    H253296   7.081   6.032   8.017  1.5951 -0.3637  1.3105
 9701TIP3   OH253297   3.785   0.005   9.023  0.3013 -0.6652  0.2407
 9701TIP3    H153298   3.830  -0.000   8.939  0.7803 -1.4589  0.5401
 9701TIP3    H253299   3.765   0.098   9.034  1.6212 -0.3292 -0.0292
 9702TIP3   OH253300   2.794   4.870   9.870  0.5573  0.1078  0.2199
 9702TIP3    H153301   2.756   4.912   9.793 -0.2228  1.0616  1.1102
 9702TIP3    H253302   2.799   4.777   9.846  2.1467  0.6038 -1.7049
 9703TIP3   OH253303   1.382   3.135   7.597  0.0641  0.2712  0.5668
 9703TIP3    H153304   1.401   3.198   7.667  1.4518  0.5637 -0.0354
 9703TIP3    H253305   1.446   3.065   7.610 -0.0238  0.0715 -0.0762
 9704TIP3   OH253306   3.688   4.278   8.043  0.1446 -0.3108 -0.2730
 9704TIP3    H153307   3.670   4.205   8.103 -1.7269 -0.0022 -0.4019
 9704TIP3    H253308   3.674   4.356   8.097  1.5619 -0.0127 -0.2971
 9705TIP3   OH253309   3.615   3.271   0.157 -0.4484  0.5588  0.0209
 9705TIP3    H153310   3.568   3.243   0.079  1.9895 -1.7704 -0.7508
 9705TIP3    H253311   3.702   3.297   0.126 -0.4310  2.7771  1.6291
 9706TIP3   OH253312   6.962   7.536   8.869  0.1612 -0.3028 -0.4861
 9706TIP3    H153313   6.985   7.614   8.819  1.7264 -0.6235 -0.3100
 9706TIP3    H253314   6.923   7.571   8.950 -1.3788  0.2258 -1.4027
 9707TIP3   OH253315   2.396   0.657   9.127 -0.4557  0.2061 -0.3314
 9707TIP3    H153316   2.402   0.594   9.198  0.9564  0.6494 -0.0250
 9707TIP3    H253317   2.348   0.611   9.058  1.3182 -1.5485 -0.4781
 9708TIP3   OH253318   2.980   2.894   6.511 -0.0564  0.1253 -0.5417
 9708TIP3    H153319   2.918   2.962   6.484  0.2992  0.5472 -0.3121
 9708TIP3    H253320   3.065   2.937   6.508  0.2661 -0.5378 -1.1424
 9709TIP3   OH253321   4.561   6.905   1.653  0.2897  0.0840  0.3319
 9709TIP3    H153322   4.555   6.975   1.588  0.9610 -1.9091 -2.0078
 9709TIP3    H253323   4.574   6.825   1.602  0.1433 -1.7155  2.9040
 9710TIP3   OH253324   1.027   5.127   7.965 -0.3740  0.3420 -0.4842
 9710TIP3    H153325   1.028   5.061   8.035 -0.5896  0.7840 -0.0573
 9710TIP3    H253326   1.095   5.098   7.904 -1.4403 -1.0420 -1.0399
 9711TIP3   OH253327   1.090   3.914   0.901  0.5916  0.6598  0.0747
 9711TIP3    H153328   1.048   3.865   0.972  1.4321  1.2422  1.0059
 9711TIP3    H253329   1.099   4.003   0.936 -0.1436  1.2953 -1.2554
 9712TIP3   OH253330   7.657   1.669   0.973  0.6031  0.3097  0.1648
 9712TIP3    H153331   7.683   1.588   1.018  0.1781 -0.5208 -1.0231
 9712TIP3    H253332   7.640   1.642   0.883 -3.4849  0.8544  0.5482
 9713TIP3   OH253333   5.120   2.198   9.704  0.5244 -0.5023  0.1076
 9713TIP3    H153334   5.121   2.124   9.643 -0.3811  0.7428 -1.5144
 9713TIP3    H253335   5.101   2.158   9.789 -2.8878 -1.9359 -1.1323
 9714TIP3   OH253336   0.775   0.830   8.331 -0.1684  0.5609  0.1271
 9714TIP3    H153337   0.870   0.832   8.342 -0.1787  0.2933  0.2835
 9714TIP3    H253338   0.742   0.890   8.398 -0.1466  0.0988  0.5616
 9715TIP3   OH253339   1.351   0.704   1.318  0.6814  0.6662 -0.0615
 9715TIP3    H153340   1.387   0.669   1.399  0.0150  1.5937  0.6608
 9715TIP3    H253341   1.314   0.789   1.343 -0.7766  0.3580 -1.0412
 9716TIP3   OH253342   7.553   0.875   0.881 -0.1564  0.1187  0.3339
 9716TIP3    H153343   7.532   0.967   0.861 -0.2055  0.0228 -0.0778
 9716TIP3    H253344   7.536   0.866   0.975 -0.3884  0.4694  0.3278
 9717TIP3   OH253345   5.563   6.969   9.993  0.0210  1.0126 -0.3206
 9717TIP3    H153346   5.533   7.002   9.908 -1.2039 -2.4532 -1.3837
 9717TIP3    H253347   5.634   6.910   9.972 -1.5245 -1.3830  0.7625
 9718TIP3   OH253348   1.823   6.077   7.301 -0.2123 -0.2499  0.2259
 9718TIP3    H153349   1.731   6.058   7.282 -0.4530 -0.4320  1.4668
 9718TIP3    H253350   1.831   6.171   7.291 -0.5123 -0.2455  0.0094
 9719TIP3   OH253351   3.301   6.537   7.351 -0.2602 -0.5804 -0.3605
 9719TIP3    H153352   3.267   6.496   7.272 -0.4144 -0.7183 -0.2236
 9719TIP3    H253353   3.275   6.478   7.422 -1.9879  0.5984  0.0577
 9720TIP3   OH253354   1.837   4.056   9.759  0.5485 -0.0718 -0.2697
 9720TIP3    H153355   1.763   4.090   9.710  2.0130 -0.4224 -2.8629
 9720TIP3    H253356   1.885   4.133   9.789 -1.5642  0.2219  2.8160
 9721TIP3   OH253357   4.885   1.044   1.021 -0.0022 -0.2936 -0.1130
 9721TIP3    H153358   4.963   1.024   1.073 -0.3623  0.2733  0.6599
 9721TIP3    H253359   4.864   1.134   1.043 -0.7805 -0.3866 -0.4459
 9722TIP3   OH253360   2.409   3.404   9.824  0.0115 -0.0237  0.3086
 9722TIP3    H153361   2.317   3.387   9.845 -1.2417  2.7156 -2.1308
 9722TIP3    H253362   2.438   3.465   9.892  0.2513 -1.3232  1.4019
 9723TIP3   OH253363   0.738   5.570   2.575 -0.0201 -0.4670  0.5605
 9723TIP3    H153364   0.708   5.591   2.486  0.3503 -1.0159  0.2982
 9723TIP3    H253365   0.667   5.520   2.614 -0.3346  0.0829  0.7066
 9724TIP3   OH253366   4.285   1.082   8.737  0.3379 -0.2127 -0.5254
 9724TIP3    H153367   4.357   1.143   8.727  0.3346 -0.1686 -0.2825
 9724TIP3    H253368   4.326   0.999   8.761  0.4355 -0.6043 -1.9495
 9725TIP3   OH253369   4.463   4.020   8.937 -0.0085 -0.0859 -0.1138
 9725TIP3    H153370   4.381   3.973   8.923 -0.2120  0.1752  0.1812
 9725TIP3    H253371   4.515   3.963   8.993 -0.7559  0.5696  1.3173
 9726TIP3   OH253372   6.439   5.224   8.314  0.8125 -0.3498 -0.1238
 9726TIP3    H153373   6.503   5.294   8.329  1.9030 -1.1665 -0.8670
 9726TIP3    H253374   6.398   5.246   8.231 -0.2085  0.3990  0.5532
 9727TIP3   OH253375   0.230   6.618   7.773 -0.7620  0.2550 -0.1849
 9727TIP3    H153376   0.203   6.586   7.859 -1.0087  1.6006  0.2605
 9727TIP3    H253377   0.153   6.663   7.739 -0.7529 -0.4890 -1.2431
 9728TIP3   OH253378   0.223   1.634   1.990 -0.3960 -0.2122  0.1650
 9728TIP3    H153379   0.226   1.611   1.897  1.4262 -1.1127  0.4100
 9728TIP3    H253380   0.141   1.683   1.999 -0.5245  0.0891 -1.9491
 9729TIP3   OH253381   2.133   2.748   7.700  0.2101  0.3495 -0.3514
 9729TIP3    H153382   2.105   2.800   7.775  0.5209  0.6026 -0.4073
 9729TIP3    H253383   2.185   2.809   7.647 -0.6518  0.3965 -1.1677
 9730TIP3   OH253384   2.113   1.685   1.936 -0.1534 -0.1783 -0.0385
 9730TIP3    H153385   2.151   1.770   1.958 -0.0619  0.6056 -2.8108
 9730TIP3    H253386   2.152   1.624   1.999 -0.1527  1.7714  1.9542
 9731TIP3   OH253387   3.381   4.711   6.587 -0.1915  0.4509  0.6705
 9731TIP3    H153388   3.434   4.789   6.603 -0.8499  0.7786  1.3215
 9731TIP3    H253389   3.327   4.733   6.512 -1.7028  1.3564  1.9494
 9732TIP3   OH253390   6.523   6.262   1.660  0.1989  0.1963 -0.0096
 9732TIP3    H153391   6.466   6.288   1.732  0.9262  0.7186  0.3877
 9732TIP3    H253392   6.612   6.275   1.693  0.5495  1.4698 -1.3508
 9733TIP3   OH253393   2.127   7.219   1.341 -0.1346  0.3549  0.3256
 9733TIP3    H153394   2.154   7.195   1.429 -0.3719  0.2025  0.3578
 9733TIP3    H253395   2.206   7.255   1.300 -0.3899  1.8432  1.0862
 9734TIP3   OH253396   4.447   7.115   2.368 -0.1931  0.6684 -0.2299
 9734TIP3    H153397   4.452   7.211   2.365 -2.1063  0.7770 -1.0747
 9734TIP3    H253398   4.474   7.087   2.280  1.2730  0.3501  0.2990
 9735TIP3   OH253399   5.007   6.255   1.303  0.9007  0.2881 -0.0536
 9735TIP3    H153400   5.084   6.198   1.295  0.3655 -0.4656  0.0564
 9735TIP3    H253401   4.977   6.267   1.213  0.7535  0.0290 -0.0398
 9736TIP3   OH253402   2.586   2.615   2.192  0.6889 -0.2456 -0.0305
 9736TIP3    H153403   2.662   2.630   2.248  0.7917  3.1403 -0.8795
 9736TIP3    H253404   2.511   2.635   2.249  0.5551 -0.8961  0.0312
 9737TIP3   OH253405   2.253   5.608   2.221  0.3909 -0.1097  0.4886
 9737TIP3    H153406   2.184   5.609   2.287 -1.2729  1.2564 -1.1317
 9737TIP3    H253407   2.258   5.517   2.192 -1.9253  0.0024 -0.4529
 9738TIP3   OH253408   0.625   4.587   1.411  0.1599 -0.4597 -0.2294
 9738TIP3    H153409   0.611   4.494   1.427  0.1304 -0.5456 -0.7468
 9738TIP3    H253410   0.566   4.609   1.339 -1.0756  0.3433  0.9632
 9739TIP3   OH253411   4.917   0.105   7.592  0.6180 -0.0967 -0.2533
 9739TIP3    H153412   5.002   0.100   7.636  0.7671 -0.3542 -0.5690
 9739TIP3    H253413   4.926   0.047   7.517  0.2093 -0.0109 -0.3672
 9740TIP3   OH253414   2.042   2.297   7.055  0.3706  0.3371 -0.0961
 9740TIP3    H153415   1.991   2.378   7.049  1.0909  0.7788 -0.3863
 9740TIP3    H253416   2.010   2.243   6.983  0.0339  0.4468 -0.0304
 9741TIP3   OH253417   1.643   7.558   2.579 -0.5106  0.3067  0.1055
 9741TIP3    H153418   1.653   7.500   2.504  1.7570  0.9647 -0.1859
 9741TIP3    H253419   1.561   7.605   2.563 -0.2824  0.1278 -1.7384
 9742TIP3   OH253420   0.986   1.377   9.303  0.7076  0.1022  0.2173
 9742TIP3    H153421   0.908   1.399   9.354 -0.0305  0.2931 -0.9314
 9742TIP3    H253422   0.953   1.370   9.213  2.4195  2.7545 -0.7577
 9743TIP3   OH253423   0.193   1.371   2.131  0.2607 -0.2052 -0.1927
 9743TIP3    H153424   0.131   1.345   2.200 -0.0166  1.0398  0.0468
 9743TIP3    H253425   0.163   1.457   2.102  1.7255  0.3097 -0.2707
 9744TIP3   OH253426   4.666   5.464   8.694 -0.3228 -0.2421  0.1284
 9744TIP3    H153427   4.754   5.444   8.725  0.1742 -0.1673 -1.1644
 9744TIP3    H253428   4.679   5.537   8.633 -1.2030 -0.5919 -0.4912
 9745TIP3   OH253429   1.958   4.826   2.208  0.3747 -0.0179 -0.0071
 9745TIP3    H153430   1.889   4.850   2.147  1.2973  0.8186 -0.7535
 9745TIP3    H253431   1.994   4.745   2.172 -0.4525 -0.6845  0.6081
 9746TIP3   OH253432   4.620   6.145   0.438 -0.8936 -0.3481  0.2598
 9746TIP3    H153433   4.588   6.177   0.354 -1.4437 -3.2661 -0.7603
 9746TIP3    H253434   4.701   6.193   0.453 -1.8977  1.8272 -0.7910
 9747TIP3   OH253435   6.293   0.425   8.057 -0.3129 -0.0776 -0.0012
 9747TIP3    H153436   6.212   0.383   8.030  0.3808 -2.0022  0.7206
 9747TIP3    H253437   6.312   0.489   7.988 -1.6916 -0.5821 -0.8786
 9748TIP3   OH253438   6.415   5.223   8.653  1.0120 -0.4527  0.6052
 9748TIP3    H153439   6.472   5.204   8.579  1.0982 -1.8179  0.9770
 9748TIP3    H253440   6.327   5.227   8.615  1.3214  1.6380  0.0351
 9749TIP3   OH253441   0.713   7.218   9.574  0.2947  0.5274  0.0221
 9749TIP3    H153442   0.744   7.153   9.638  0.7899  1.3457  0.6313
 9749TIP3    H253443   0.729   7.177   9.489  0.0686 -0.3830  0.4085
 9750TIP3   OH253444   5.692   6.081   7.981  0.2807 -0.2521  0.0077
 9750TIP3    H153445   5.780   6.058   7.949  1.0538  0.5501  1.4307
 9750TIP3    H253446   5.632   6.034   7.924  1.6280 -0.3580 -1.3740
 9751TIP3   OH253447   4.783   7.020   0.581  0.8936 -0.0665 -0.4351
 9751TIP3    H153448   4.872   6.999   0.552  0.8789 -0.4974 -0.1755
 9751TIP3    H253449   4.727   6.961   0.531  0.6513  0.9582 -1.4082
 9752TIP3   OH253450   0.627   3.635   8.719 -0.7422  0.2119 -0.0712
 9752TIP3    H153451   0.613   3.665   8.809  2.1875  3.1664 -0.4082
 9752TIP3    H253452   0.601   3.709   8.664  0.0728 -0.5042 -1.4735
 9753TIP3   OH253453   4.659   0.465   0.835  0.4824  0.2383 -0.3126
 9753TIP3    H153454   4.640   0.475   0.928 -3.0268  0.0775 -0.8815
 9753TIP3    H253455   4.728   0.399   0.831  2.3590  1.8665  2.1849
 9754TIP3   OH253456   4.834   1.247   2.371  0.2857 -0.0192  0.2278
 9754TIP3    H153457   4.793   1.283   2.292  1.4345  0.6403 -0.0945
 9754TIP3    H253458   4.774   1.177   2.400 -0.8442  0.6524 -0.4268
 9755TIP3   OH253459   2.188   6.953   1.072  0.4671 -0.2813  0.2060
 9755TIP3    H153460   2.193   6.927   1.164  3.2369  1.3241  0.6124
 9755TIP3    H253461   2.215   6.876   1.024 -1.7568 -1.3920  0.5931
 9756TIP3   OH253462   4.678   5.274   2.250  0.1181 -0.2551 -0.0166
 9756TIP3    H153463   4.610   5.253   2.185  0.0743 -0.0945 -0.0219
 9756TIP3    H253464   4.669   5.205   2.316  0.8989 -1.0841 -0.7388
 9757TIP3   OH253465   1.900   2.064   8.124  0.3956 -0.5647 -0.2450
 9757TIP3    H153466   1.932   2.076   8.214 -0.3593 -2.3789  0.3128
 9757TIP3    H253467   1.944   1.984   8.094 -0.1245 -0.5274 -1.1150
 9758TIP3   OH253468   5.910   4.734   7.840 -0.1511  0.2161  0.7551
 9758TIP3    H153469   5.917   4.827   7.859  0.2025  0.2560  0.4642
 9758TIP3    H253470   6.001   4.703   7.840 -0.1347  0.1877 -0.6595
 9759TIP3   OH253471   1.028   5.557   9.593 -0.1726  0.3499 -0.4077
 9759TIP3    H153472   1.037   5.643   9.552 -0.4005  0.1892 -0.8111
 9759TIP3    H253473   0.966   5.571   9.665  1.0447  0.8554  0.5672
 9760TIP3   OH253474   6.968   0.438   0.904 -0.3259 -0.5993  0.2090
 9760TIP3    H153475   7.017   0.375   0.956 -1.0245 -0.4198  1.1106
 9760TIP3    H253476   7.035   0.493   0.864  0.2248 -0.6474  1.0416
 9761TIP3   OH253477   4.757   1.526   1.581  0.3570 -0.0330  0.1694
 9761TIP3    H153478   4.828   1.504   1.520  1.3580  0.0513  1.2718
 9761TIP3    H253479   4.753   1.451   1.640  0.3198  0.4837  0.8240
 9762TIP3   OH253480   0.575   6.498   0.601 -0.4650 -0.7889 -0.6535
 9762TIP3    H153481   0.577   6.451   0.685 -1.0700 -0.5267 -0.4875
 9762TIP3    H253482   0.505   6.456   0.552 -3.3152  1.9741  0.7398
 9763TIP3   OH253483   6.444   1.201   1.613  0.1925 -0.0382  0.1976
 9763TIP3    H153484   6.457   1.119   1.566 -2.1914  0.1840 -0.9644
 9763TIP3    H253485   6.434   1.174   1.705  1.0266 -0.8453  0.0728
 9764TIP3   OH253486   1.658   2.816   1.306  0.0902  0.4093  0.4841
 9764TIP3    H153487   1.614   2.843   1.225 -0.1392 -0.6548  0.2479
 9764TIP3    H253488   1.665   2.897   1.357 -3.4000  0.4181  1.1625
 9765TIP3   OH253489   4.139   5.815   0.548 -0.1527 -0.2396  0.4025
 9765TIP3    H153490   4.165   5.903   0.577  0.7897 -1.1100  2.3608
 9765TIP3    H253491   4.044   5.819   0.543 -0.1360  0.8376  0.6422
 9766TIP3   OH253492   5.543   1.189   9.225  0.4183 -0.0692 -0.5040
 9766TIP3    H153493   5.597   1.216   9.152 -0.0796 -0.1635 -0.9125
 9766TIP3    H253494   5.544   1.093   9.222 -0.4742 -0.0740 -1.0517
 9767TIP3   OH253495   6.515   0.407   1.318  0.1053 -0.1001  0.4673
 9767TIP3    H153496   6.555   0.325   1.347 -2.7469 -1.4945  0.7988
 9767TIP3    H253497   6.485   0.449   1.398 -0.8526 -0.0892  0.1173
 9768TIP3   OH253498   6.126   0.343   1.212 -0.3229 -0.3909  0.1716
 9768TIP3    H153499   6.032   0.355   1.198 -0.1631  0.4323 -0.2572
 9768TIP3    H253500   6.155   0.291   1.137 -0.6786 -1.8993  1.0473
 9769TIP3   OH253501   6.169   7.174   8.551  0.0188  0.2437  0.1433
 9769TIP3    H153502   6.209   7.129   8.477 -1.4119 -1.5889  0.4001
 9769TIP3    H253503   6.223   7.149   8.626 -1.0889 -1.6211  0.3759
 9770TIP3   OH253504   4.223   2.586   8.748  0.4655 -0.5769  0.1362
 9770TIP3    H153505   4.220   2.674   8.786  0.4827 -0.6934  0.4092
 9770TIP3    H253506   4.306   2.583   8.701  0.9769 -0.8118  1.0219
 9771TIP3   OH253507   0.238   3.920   0.825  0.1765  0.1970 -0.2176
 9771TIP3    H153508   0.145   3.920   0.799 -0.1561 -2.4618  0.6424
 9771TIP3    H253509   0.239   3.873   0.908  2.2621  0.6293  0.0461
 9772TIP3   OH253510   3.678   3.488   1.329  0.7085 -0.0201  0.2124
 9772TIP3    H153511   3.758   3.470   1.280  0.9724  0.2646  0.5275
 9772TIP3    H253512   3.641   3.402   1.348  2.5629 -0.4003  2.7256
 9773TIP3   OH253513   6.441   2.926   0.175 -0.1063  0.1624  0.6674
 9773TIP3    H153514   6.365   2.870   0.162  0.7699 -0.7569 -0.8356
 9773TIP3    H253515   6.489   2.885   0.247 -0.4566  0.0891  0.8605
 9774TIP3   OH253516   2.068   1.340   6.825  0.9340 -0.2320  0.2567
 9774TIP3    H153517   2.060   1.255   6.783 -0.4720 -0.5115  1.0396
 9774TIP3    H253518   1.991   1.389   6.795 -0.6239 -0.7470  3.1051
 9775TIP3   OH253519   0.898   0.273   2.106 -0.5105  0.2110 -0.3201
 9775TIP3    H153520   0.920   0.323   2.185  0.0568 -1.6670  0.7777
 9775TIP3    H253521   0.851   0.335   2.051  0.6277  2.1018  0.7191
 9776TIP3   OH253522   2.365   4.734   1.886  0.0708  0.0422  0.4042
 9776TIP3    H153523   2.344   4.804   1.947 -0.9829 -0.7196  0.9499
 9776TIP3    H253524   2.404   4.666   1.940  1.3866  0.3113 -0.1727
 9777TIP3   OH253525   1.868   7.584   1.378 -0.4184 -0.5197  0.2217
 9777TIP3    H153526   1.909   7.548   1.456 -0.5444 -0.7628  0.1768
 9777TIP3    H253527   1.870   7.679   1.391  1.0065 -0.4762 -0.2056
 9778TIP3   OH253528   5.692   6.181   9.080 -0.0497  0.5762 -1.0443
 9778TIP3    H153529   5.638   6.207   9.155 -1.6060  0.5681 -2.1282
 9778TIP3    H253530   5.778   6.162   9.119 -1.1504 -0.7329  0.9399
 9779TIP3   OH253531   1.224   6.565   2.074  0.3914 -0.5262 -0.1586
 9779TIP3    H153532   1.238   6.524   2.159  2.3800 -1.7188 -0.9930
 9779TIP3    H253533   1.294   6.530   2.018 -0.3948  0.7881 -2.0876
 9780TIP3   OH253534   5.649   4.799   1.336  0.5744  0.0381 -0.0586
 9780TIP3    H153535   5.592   4.820   1.262 -0.1467 -0.4409  0.3511
 9780TIP3    H253536   5.608   4.723   1.377  2.6685 -1.7412 -1.0315
 9781TIP3   OH253537   7.238   1.339   9.375 -0.4748  0.0717 -0.1305
 9781TIP3    H153538   7.211   1.251   9.402  2.4376 -0.4791  1.4717
 9781TIP3    H253539   7.187   1.398   9.430 -0.9005 -0.7305  0.3592
 9782TIP3   OH253540   6.396   0.130   0.814 -0.3342 -0.2674  0.1941
 9782TIP3    H153541   6.405   0.221   0.845  1.1057 -0.3245  0.0022
 9782TIP3    H253542   6.485   0.105   0.788 -1.0850 -1.0210 -1.7848
 9783TIP3   OH253543   3.703   0.267   9.053 -0.6893  0.2144  0.0425
 9783TIP3    H153544   3.669   0.294   9.138  2.0006  1.0344  0.9714
 9783TIP3    H253545   3.675   0.335   8.992  1.7731  2.6374  1.3944
 9784TIP3   OH253546   2.159   1.167   0.634  0.5399  0.0382  0.0698
 9784TIP3    H153547   2.068   1.159   0.606  0.6941  0.4980 -0.6135
 9784TIP3    H253548   2.202   1.087   0.603  0.0463 -0.9522  1.8164
 9785TIP3   OH253549   7.034   0.207   8.420 -0.5080  0.2331  0.1230
 9785TIP3    H153550   7.051   0.129   8.367 -3.8393 -1.6589  1.5461
 9785TIP3    H253551   7.032   0.278   8.356 -1.5871 -1.5018 -1.9491
 9786TIP3   OH253552   3.270   3.010   0.773 -0.0823  0.4613 -0.3356
 9786TIP3    H153553   3.312   2.939   0.725  1.8420  1.6094 -0.4322
 9786TIP3    H253554   3.275   3.085   0.715 -1.2762  0.9251  0.1278
 9787TIP3   OH253555   0.098   3.228   0.071 -0.3443  0.9512 -0.1093
 9787TIP3    H153556   0.072   3.254  -0.017  0.6251 -0.8385 -0.9800
 9787TIP3    H253557   0.064   3.139   0.081  0.7002  0.6230  0.8003
 9788TIP3   OH253558   4.355   6.488   7.518 -0.2420 -0.2626 -0.1309
 9788TIP3    H153559   4.435   6.484   7.466 -0.6152 -0.0655 -0.7380
 9788TIP3    H253560   4.339   6.582   7.530 -0.2889 -0.3041  0.1291
 9789TIP3   OH253561   0.682   3.934   8.660  0.5038  0.2132 -0.2609
 9789TIP3    H153562   0.685   4.020   8.618 -0.2569  0.6875  0.6260
 9789TIP3    H253563   0.719   3.949   8.747  0.0812 -0.2867  0.0098
 9790TIP3   OH253564   6.202   7.559   0.175  0.0386  0.0503 -0.4089
 9790TIP3    H153565   6.144   7.630   0.203 -0.9756 -0.8764 -0.0939
 9790TIP3    H253566   6.217   7.575   0.082  1.2423  1.6416  0.0107
 9791TIP3   OH253567   1.646   6.944   7.593 -0.2265  0.1938 -0.4338
 9791TIP3    H153568   1.726   6.900   7.564 -1.2797 -1.3717 -1.1190
 9791TIP3    H253569   1.588   6.873   7.621 -1.4065  1.2748 -0.0277
 9792TIP3   OH253570   3.170   4.478   9.715  0.0181 -0.4700 -0.2869
 9792TIP3    H153571   3.119   4.522   9.783 -1.0562 -0.3041 -1.1810
 9792TIP3    H253572   3.111   4.474   9.639  0.9681 -1.2246 -1.0073
 9793TIP3   OH253573   1.764   7.066   8.044 -0.4797 -0.9532  0.0822
 9793TIP3    H153574   1.735   6.977   8.063 -1.0721 -0.7876 -0.0135
 9793TIP3    H253575   1.754   7.112   8.128 -2.8191 -0.2937 -0.4865
 9794TIP3   OH253576   3.752   2.003   1.341  0.0028 -0.0446  0.1806
 9794TIP3    H153577   3.833   1.999   1.291  0.2603  0.9436  0.4975
 9794TIP3    H253578   3.716   2.090   1.321 -1.0205 -0.4943 -0.0192
 9795TIP3   OH253579   5.722   6.546   0.459 -0.3846 -0.5817  0.2933
 9795TIP3    H153580   5.661   6.617   0.438  0.5207 -0.0103 -0.4827
 9795TIP3    H253581   5.800   6.590   0.491  0.3781 -1.1936 -0.6737
 9796TIP3   OH253582   2.200   3.674   9.155  0.2660 -0.4053 -0.2722
 9796TIP3    H153583   2.251   3.710   9.228  0.8137  0.2090 -0.9448
 9796TIP3    H253584   2.247   3.595   9.129 -1.3685 -2.1513  1.7218
 9797TIP3   OH253585   4.286   6.872   1.583 -0.7526  0.3487 -0.3320
 9797TIP3    H153586   4.350   6.941   1.600 -3.1886  2.3552  1.5363
 9797TIP3    H253587   4.257   6.844   1.670 -0.5217 -2.4565 -1.0697
 9798TIP3   OH253588   0.610   2.726   1.190  0.3813  0.4849  0.1580
 9798TIP3    H153589   0.702   2.749   1.201  0.2566  1.5164 -0.7932
 9798TIP3    H253590   0.585   2.686   1.274  1.1156  2.2117  1.2455
 9799TIP3   OH253591   6.023   5.624   0.286 -0.6236 -0.4306  0.2618
 9799TIP3    H153592   6.095   5.571   0.252 -0.2353  0.6466 -0.6391
 9799TIP3    H253593   5.944   5.587   0.245 -0.1532  0.9465 -2.0183
 9800TIP3   OH253594   6.654   5.310   9.263 -0.2133  0.5227 -0.4510
 9800TIP3    H153595   6.717   5.379   9.282  1.1646 -1.2937  2.1425
 9800TIP3    H253596   6.703   5.246   9.210 -0.4858  0.0555 -0.1475
 9801TIP3   OH253597   3.859   5.983   7.614  0.0895 -0.6638 -0.2817
 9801TIP3    H153598   3.880   5.936   7.695 -0.3572  0.1452  0.3166
 9801TIP3    H253599   3.858   5.915   7.547 -1.9185 -1.7594  0.7717
 9802TIP3   OH253600   2.821   4.060   9.685  0.4591  0.3715 -0.0532
 9802TIP3    H153601   2.790   4.084   9.598  1.1377 -1.7621 -0.9600
 9802TIP3    H253602   2.915   4.081   9.683  0.4271  0.5389  0.2411
 9803TIP3   OH253603   2.543   4.010   1.560  0.2503  0.0183 -0.3082
 9803TIP3    H153604   2.552   4.017   1.655 -1.2172 -1.5507  0.0008
 9803TIP3    H253605   2.517   4.098   1.531 -1.0250  0.1161  0.9992
 9804TIP3   OH253606   7.583   5.806   8.885 -0.7799  0.4528  0.3446
 9804TIP3    H153607   7.633   5.725   8.875  0.1266  0.8025  1.7094
 9804TIP3    H253608   7.563   5.833   8.795  2.6154  0.9377 -0.4111
 9805TIP3   OH253609   5.955   1.707   7.693  0.1942  0.3295  0.1587
 9805TIP3    H153610   5.894   1.743   7.629  0.5333 -1.2583 -1.1189
 9805TIP3    H253611   5.986   1.626   7.654  2.5343  0.6761  1.1046
 9806TIP3   OH253612   3.422   3.931   1.378 -0.0994 -0.2326  0.2223
 9806TIP3    H153613   3.354   3.869   1.349  0.6475 -0.9725  0.0352
 9806TIP3    H253614   3.501   3.879   1.386  0.6951  0.8116 -0.5082
 9807TIP3   OH253615   4.144   5.736   9.962  0.7262  0.3583  0.2821
 9807TIP3    H153616   4.155   5.795  10.036  1.2307 -0.8020  1.1780
 9807TIP3    H253617   4.109   5.655  10.001 -1.0774  0.4220 -1.0551
 9808TIP3   OH253618   6.364   2.848   9.744  0.7989 -0.5548 -0.1065
 9808TIP3    H153619   6.350   2.759   9.775  0.9150 -0.9033 -1.0100
 9808TIP3    H253620   6.433   2.883   9.799  0.6505 -0.9709  0.3458
 9809TIP3   OH253621   7.366   3.842   0.484 -0.3553  0.0970  0.6050
 9809TIP3    H153622   7.283   3.795   0.481 -1.7058  2.0995  3.2036
 9809TIP3    H253623   7.414   3.801   0.556 -0.0505  0.3920  0.5704
 9810TIP3   OH253624   7.405   5.677   8.049  0.0119  0.1911 -0.7709
 9810TIP3    H153625   7.362   5.606   8.096 -1.1657  1.2486 -0.2115
 9810TIP3    H253626   7.440   5.635   7.970 -0.9181 -0.9491 -0.6048
 9811TIP3   OH253627   3.661   5.990   9.284 -0.3864  0.6626  0.0007
 9811TIP3    H153628   3.602   5.920   9.311  1.9505 -0.7227  1.9563
 9811TIP3    H253629   3.634   6.065   9.338  1.1940 -0.7384  3.0193
 9812TIP3   OH253630   0.873   1.975   1.764  0.0202 -0.1261 -0.6590
 9812TIP3    H153631   0.799   1.928   1.726 -0.8858  1.0280 -0.3633
 9812TIP3    H253632   0.951   1.931   1.728 -0.7980 -1.0145 -1.3815
 9813TIP3   OH253633   2.285   6.690   1.909  0.2113 -0.6897  0.0313
 9813TIP3    H153634   2.244   6.754   1.851  1.0140  0.2115  0.4304
 9813TIP3    H253635   2.243   6.607   1.886 -0.8441 -0.0326 -0.4997
 9814TIP3   OH253636   2.010   5.922   0.812 -0.2771 -0.2475 -0.1430
 9814TIP3    H153637   2.096   5.940   0.850 -0.0763  0.3324 -0.8414
 9814TIP3    H253638   2.017   5.954   0.722 -1.0357 -0.7420 -0.3820
 9815TIP3   OH253639   2.293   6.543   8.237 -0.3805  0.6426 -0.2166
 9815TIP3    H153640   2.309   6.503   8.152 -0.5177 -0.3053  0.1896
 9815TIP3    H253641   2.197   6.547   8.244 -0.3693  1.3486 -0.3860
 9816TIP3   OH253642   3.941   1.659   1.718 -0.0930  0.3771 -0.5501
 9816TIP3    H153643   3.990   1.665   1.636  0.7209  0.0658 -0.1019
 9816TIP3    H253644   3.894   1.576   1.711  3.0788 -1.7451  0.8787
 9817TIP3   OH253645   0.209   4.177   8.439  0.4287  0.1006 -0.4758
 9817TIP3    H153646   0.167   4.203   8.521  0.2007  0.2453 -0.6360
 9817TIP3    H253647   0.201   4.254   8.383  0.3283 -0.0918 -0.7282
 9818TIP3   OH253648   3.366   6.634   6.878  0.0334  0.4181 -0.3796
 9818TIP3    H153649   3.340   6.567   6.815 -0.2538  0.0438  0.1395
 9818TIP3    H253650   3.316   6.712   6.852 -0.0027  0.2995 -0.6734
 9819TIP3   OH253651   2.643   0.122   2.002  0.0411  0.0823 -0.0024
 9819TIP3    H153652   2.617   0.046   2.055  0.5887 -1.0877 -1.3455
 9819TIP3    H253653   2.663   0.190   2.066  0.1668 -1.1126  1.2820
 9820TIP3   OH253654   3.048   3.864   7.425  0.3986 -0.5523  0.0749
 9820TIP3    H153655   3.053   3.798   7.494 -1.6980  0.4130  1.2276
 9820TIP3    H253656   3.138   3.898   7.418  1.2173 -2.5172  0.4030
 9821TIP3   OH253657   3.464   6.802   9.857 -0.2423 -0.2016 -0.1982
 9821TIP3    H153658   3.446   6.710   9.837  0.8523 -0.7465  1.1815
 9821TIP3    H253659   3.559   6.810   9.847 -0.3898  0.9239 -0.8258
 9822TIP3   OH253660   1.342   0.052   1.905  0.4661 -0.1214  0.6503
 9822TIP3    H153661   1.359   0.026   1.995 -1.1747 -2.7124  0.3131
 9822TIP3    H253662   1.404   0.000   1.853  1.2227  1.1621  0.2133
 9823TIP3   OH253663   5.186   0.676   2.450 -0.4353 -0.3297 -0.5324
 9823TIP3    H153664   5.143   0.760   2.460  1.0347  0.4795 -0.7503
 9823TIP3    H253665   5.279   0.696   2.455 -0.0600 -2.1321  0.8360
 9824TIP3   OH253666   3.308   5.144   7.445  0.1077  0.0225  0.4249
 9824TIP3    H153667   3.311   5.123   7.351 -1.9067  1.0301  0.0790
 9824TIP3    H253668   3.229   5.197   7.455  3.0217  4.8187  1.6755
 9825TIP3   OH253669   2.441   2.357   1.021  0.4779  0.6599 -0.0031
 9825TIP3    H153670   2.526   2.327   1.053 -0.5568 -0.8500  1.4423
 9825TIP3    H253671   2.430   2.311   0.937 -0.3368 -1.8312  1.3819
 9826TIP3   OH253672   7.121   0.789   0.984  0.8246 -0.2304  0.2140
 9826TIP3    H153673   7.154   0.725   0.922 -0.5404 -0.7392 -0.0241
 9826TIP3    H253674   7.026   0.781   0.978  0.5835  2.2749 -0.3039
 9827TIP3   OH253675   5.393   5.167   0.268 -0.3884 -0.0089  0.1787
 9827TIP3    H153676   5.371   5.077   0.294  2.3094 -0.0876  2.6989
 9827TIP3    H253677   5.437   5.157   0.183 -0.1946 -1.0871  0.3884
 9828TIP3   OH253678   6.701   4.318   9.423 -0.0128 -0.0010  0.6033
 9828TIP3    H153679   6.731   4.324   9.514  1.8355  0.1389  0.0206
 9828TIP3    H253680   6.746   4.241   9.388 -1.6588 -0.7961  0.1110
 9829TIP3   OH253681   1.672   0.606   9.073 -0.1189  0.2736 -0.1722
 9829TIP3    H153682   1.589   0.632   9.113 -0.1874  2.2274 -1.4742
 9829TIP3    H253683   1.659   0.617   8.979  1.4204 -0.0307 -0.4576
 9830TIP3   OH253684   0.661   5.994   9.029  0.0259  0.0560  0.1966
 9830TIP3    H153685   0.661   5.910   9.076 -0.1218  0.4312  0.8758
 9830TIP3    H253686   0.593   5.984   8.963 -0.8260  0.0628  1.0580
 9831TIP3   OH253687   3.969   5.630   1.674  0.7319  0.2409  0.0804
 9831TIP3    H153688   4.031   5.668   1.736  0.1549 -0.5437  1.1694
 9831TIP3    H253689   3.968   5.537   1.695  0.7167 -0.0912 -1.2995
 9832TIP3   OH253690   6.726   6.100   7.597 -0.7494 -0.8609 -0.1647
 9832TIP3    H153691   6.791   6.116   7.665 -0.7004 -0.3662 -0.3187
 9832TIP3    H253692   6.764   6.139   7.518 -2.4479  2.1971  0.3365
 9833TIP3   OH253693   6.214   2.501   0.295 -0.6618  0.0053  0.1235
 9833TIP3    H153694   6.306   2.486   0.275 -0.7456 -0.4503  0.0804
 9833TIP3    H253695   6.199   2.453   0.376 -0.8059  0.2593  0.2469
 9834TIP3   OH253696   6.345   6.810   0.786 -0.4475  0.1891  0.2009
 9834TIP3    H153697   6.355   6.753   0.862 -3.2461  0.2292  0.6809
 9834TIP3    H253698   6.323   6.751   0.714  1.0039  0.2803 -0.3551
 9835TIP3   OH253699   2.933   4.638   0.197  0.5096 -0.1226 -0.0763
 9835TIP3    H153700   2.914   4.572   0.264  1.3435 -0.3452 -0.0503
 9835TIP3    H253701   2.976   4.709   0.244  0.0106  0.2495 -0.1784
 9836TIP3   OH253702   5.867   7.244   0.062 -0.4187  0.0284  0.2246
 9836TIP3    H153703   5.784   7.205   0.089 -0.6363  1.4801  1.8448
 9836TIP3    H253704   5.924   7.234   0.138  0.1199  1.0893 -0.0143
 9837TIP3   OH253705   5.388   5.234   9.573 -0.5357 -0.0509 -0.3969
 9837TIP3    H153706   5.328   5.305   9.549 -1.2720 -0.6041 -0.2268
 9837TIP3    H253707   5.399   5.183   9.493 -0.1662  0.1220 -0.4631
 9838TIP3   OH253708   4.006   5.810   2.894  0.5987 -0.2368  0.0072
 9838TIP3    H153709   3.928   5.823   2.949  0.7693  0.1775  0.1563
 9838TIP3    H253710   4.033   5.719   2.912 -1.0970 -1.1463 -1.6781
 9839TIP3   OH253711   6.726   6.416   0.357  0.7178 -0.3624  0.0822
 9839TIP3    H153712   6.671   6.392   0.282  0.0227 -0.8484  0.7381
 9839TIP3    H253713   6.815   6.416   0.322  0.2908  0.8092 -1.0968
 9840TIP3   OH253714   5.736   5.862   1.822  0.2838  0.1462  0.3651
 9840TIP3    H153715   5.684   5.867   1.902 -0.2093  1.0394  0.0010
 9840TIP3    H253716   5.709   5.779   1.782 -0.8342  0.5598  0.2141
 9841TIP3   OH253717   7.123   0.922   8.555 -0.2826 -0.2367 -1.0812
 9841TIP3    H153718   7.032   0.936   8.528 -0.0824  0.9349 -1.1772
 9841TIP3    H253719   7.163   0.877   8.481 -0.5003  0.2641 -1.5129
 9842TIP3   OH253720   5.114   1.856   0.615 -0.1261  0.6627 -0.1415
 9842TIP3    H153721   5.194   1.855   0.562  0.1600  0.3535  0.2943
 9842TIP3    H253722   5.054   1.797   0.569  0.8345 -1.2751  0.9550
 9843TIP3   OH253723   7.305   6.442   2.123 -0.0893  0.0769  0.1898
 9843TIP3    H153724   7.260   6.511   2.075  0.8673 -1.4129 -3.2307
 9843TIP3    H253725   7.240   6.372   2.131  0.1144 -0.1649 -0.1915
 9844TIP3   OH253726   2.697   2.840   9.210 -0.2223 -0.0458 -0.0796
 9844TIP3    H153727   2.665   2.885   9.132  0.6852 -0.0249 -0.4561
 9844TIP3    H253728   2.635   2.864   9.279  0.2500  1.8214 -0.2584
 9845TIP3   OH253729   2.156   2.201   7.832 -0.4364 -0.4859  0.1658
 9845TIP3    H153730   2.063   2.176   7.833 -0.6772  0.3848  0.2997
 9845TIP3    H253731   2.156   2.295   7.815  0.4535 -0.5635 -0.3323
 9846TIP3   OH253732   2.594   3.301   8.922  0.9896 -0.6341  0.8788
 9846TIP3    H153733   2.601   3.332   9.013 -0.6326 -1.0581  1.1660
 9846TIP3    H253734   2.608   3.380   8.869  2.1242 -0.4118  1.4675
 9847TIP3   OH253735   5.383   5.425   0.441  0.0554 -0.0076  0.2246
 9847TIP3    H153736   5.453   5.425   0.506  0.6541 -0.5562 -0.3948
 9847TIP3    H253737   5.401   5.347   0.387 -1.5774 -0.6924  0.6173
 9848TIP3   OH253738   3.789   0.498   0.646 -0.5235 -0.1231  0.0597
 9848TIP3    H153739   3.710   0.472   0.598  0.7791 -1.5263 -1.4446
 9848TIP3    H253740   3.828   0.566   0.592  0.2516 -0.7490 -0.1820
 9849TIP3   OH253741   3.234   0.043   2.534  0.0492 -0.0354  0.2434
 9849TIP3    H153742   3.251   0.100   2.608  0.7183  0.2699 -0.1351
 9849TIP3    H253743   3.264  -0.043   2.563 -0.2101 -0.0309  0.5256
 9850TIP3   OH253744   5.028   1.411   7.208  0.0711  0.1497  0.1788
 9850TIP3    H153745   4.947   1.459   7.192  0.5761  1.6034  1.7297
 9850TIP3    H253746   4.999   1.325   7.238 -0.9059  0.5867  0.5393
 9851TIP3   OH253747   1.739   4.816   2.004  0.6824 -0.2402 -0.0183
 9851TIP3    H153748   1.660   4.857   2.040  0.9262 -1.0173  1.5100
 9851TIP3    H253749   1.711   4.783   1.919 -0.4965 -0.0105  0.2505
 9852TIP3   OH253750   7.397   4.399   0.564 -0.1531 -0.0163  0.5214
 9852TIP3    H153751   7.441   4.317   0.538 -0.0277  0.1911  0.0561
 9852TIP3    H253752   7.372   4.439   0.481  0.6825  0.9092  0.7038
 9853TIP3   OH253753   2.939   6.019   0.094  0.1408  0.2890  0.3082
 9853TIP3    H153754   2.858   6.048   0.052  0.4050  0.7437  0.0991
 9853TIP3    H253755   2.971   6.097   0.141 -0.1987 -0.2388  1.4361
 9854TIP3   OH253756   2.926   7.667   1.928  0.1979  0.2872 -0.0122
 9854TIP3    H153757   2.969   7.752   1.932  1.4734 -0.3271  0.0070
 9854TIP3    H253758   2.890   7.661   1.840  2.8261 -0.3778 -1.1356
 9855TIP3   OH253759   6.720   1.644   2.427 -0.3367 -0.1896 -0.7437
 9855TIP3    H153760   6.726   1.705   2.353 -2.8987  0.5070 -0.4816
 9855TIP3    H253761   6.673   1.569   2.392 -0.1227 -0.5673 -0.2257
 9856TIP3   OH253762   7.497   2.242   0.456  0.3612 -0.2305  0.1422
 9856TIP3    H153763   7.461   2.326   0.485  0.3808 -0.6762  1.5415
 9856TIP3    H253764   7.540   2.262   0.372 -1.3119  0.7335 -0.5304
 9857TIP3   OH253765   1.034   4.484   1.059 -0.4297 -0.1842  0.4623
 9857TIP3    H153766   1.067   4.539   1.130 -1.9713 -0.2050  1.2299
 9857TIP3    H253767   1.009   4.545   0.991 -0.5411 -0.0532  0.6216
 9858TIP3   OH253768   2.641   5.018   0.778 -0.1527 -0.8575  0.2877
 9858TIP3    H153769   2.576   5.052   0.717 -1.2922 -0.6335  1.5691
 9858TIP3    H253770   2.697   4.962   0.725 -1.4715 -1.1572 -0.8492
 9859TIP3   OH253771   1.823   6.190   7.561  0.0012  0.1121 -0.5153
 9859TIP3    H153772   1.866   6.106   7.579 -1.4468 -0.2529  1.7262
 9859TIP3    H253773   1.786   6.179   7.473  1.2588 -0.9500 -0.9499
 9860TIP3   OH253774   4.073   6.285   9.182 -0.5314  0.4643 -0.2469
 9860TIP3    H153775   4.147   6.230   9.156 -0.3678  0.1589  0.8116
 9860TIP3    H253776   3.997   6.246   9.139 -0.3094 -0.1772 -0.0636
 9861TIP3   OH253777   0.175   3.447   9.253 -0.4557 -0.3552  0.2268
 9861TIP3    H153778   0.083   3.460   9.230 -0.9150  0.1367  2.1604
 9861TIP3    H253779   0.216   3.532   9.237 -0.6274 -0.2127  0.5214
 9862TIP3   OH253780   1.746   5.090   7.123  0.1168 -0.2225 -0.2827
 9862TIP3    H153781   1.782   5.126   7.042  1.0572 -2.7889 -1.1148
 9862TIP3    H253782   1.777   5.149   7.191  1.3669  0.6650 -1.5423
 9863TIP3   OH253783   2.378   6.150   7.510  0.0802 -0.0085 -0.1865
 9863TIP3    H153784   2.397   6.228   7.458 -2.2444 -0.9868 -2.7707
 9863TIP3    H253785   2.343   6.183   7.592  1.0343  1.6250 -0.4042
 9864TIP3   OH253786   1.328   2.929   1.370 -0.3155 -0.1745 -0.6269
 9864TIP3    H153787   1.342   2.895   1.458 -1.2690  0.2062 -0.3099
 9864TIP3    H253788   1.381   3.009   1.367 -1.1226  0.4126  0.0077
 9865TIP3   OH253789   2.269   1.982   2.343 -0.0182  0.0623 -0.0644
 9865TIP3    H153790   2.316   1.952   2.265 -0.6124  1.5030 -1.0202
 9865TIP3    H253791   2.181   2.000   2.312 -0.3424  0.3967  1.0209
 9866TIP3   OH253792   2.438   1.426   0.146 -0.1576 -0.1586  0.3355
 9866TIP3    H153793   2.371   1.383   0.092 -1.1858  0.3364  1.1861
 9866TIP3    H253794   2.462   1.504   0.097 -0.4608 -0.1614  0.1776
 9867TIP3   OH253795   5.121   3.279   1.216  0.3834 -0.4196 -0.2278
 9867TIP3    H153796   5.157   3.325   1.292 -1.3284 -1.3380  1.2235
 9867TIP3    H253797   5.195   3.272   1.156  1.3291  1.9967  0.5123
 9868TIP3   OH253798   3.811   2.035   7.691 -0.1065  0.5745  0.0597
 9868TIP3    H153799   3.902   2.008   7.682  0.0028  1.3831 -2.1298
 9868TIP3    H253800   3.765   1.957   7.721  0.5642 -1.4655 -3.5923
 9869TIP3   OH253801   6.282   2.246   1.755  0.4744 -0.6872 -0.6284
 9869TIP3    H153802   6.235   2.278   1.832  0.2220 -0.3318 -0.9242
 9869TIP3    H253803   6.341   2.318   1.731  0.7704 -0.9149 -0.5859
 9870TIP3   OH253804   0.347   3.156   0.014 -0.6088  0.3267  0.0908
 9870TIP3    H153805   0.268   3.197   0.049 -0.7017 -0.1909  0.5005
 9870TIP3    H253806   0.386   3.223  -0.042 -2.5404 -0.1241 -1.9796
 9871TIP3   OH253807   1.940   6.207   2.620  0.2282 -0.3722 -0.1219
 9871TIP3    H153808   1.904   6.294   2.604  1.5665 -0.1481 -2.4606
 9871TIP3    H253809   1.867   6.156   2.654 -0.8940  1.3490  0.1589
 9872TIP3   OH253810   7.659   6.346   9.758 -0.7476 -0.2338 -0.3051
 9872TIP3    H153811   7.602   6.357   9.834  0.0848  2.4154  0.0521
 9872TIP3    H253812   7.739   6.306   9.793 -1.4323 -1.7245 -0.3732
 9873TIP3   OH253813   1.733   0.507   1.988 -0.5165  0.7124  0.3506
 9873TIP3    H153814   1.817   0.528   2.029 -0.4007 -1.4325  1.3460
 9873TIP3    H253815   1.753   0.437   1.926 -1.5031  0.3817  0.3832
 9874TIP3   OH253816   7.502   7.139   9.913 -0.4111 -0.0730 -0.2287
 9874TIP3    H153817   7.508   7.047   9.886 -1.7928  0.0971 -1.1801
 9874TIP3    H253818   7.593   7.170   9.910  0.1521 -1.5363  0.6442
 9875TIP3   OH253819   2.899   1.491   7.580  0.3379  0.0119  0.0149
 9875TIP3    H153820   2.862   1.403   7.572 -0.5411  0.3629  0.0688
 9875TIP3    H253821   2.858   1.541   7.509 -0.6310  0.8539  1.1213
 9876TIP3   OH253822   5.511   0.787   0.610 -0.1626  0.0024  0.1211
 9876TIP3    H153823   5.451   0.743   0.550  0.3734 -0.6643  0.0549
 9876TIP3    H253824   5.525   0.725   0.681 -0.6438  0.7166  0.8515
 9877TIP3   OH253825   1.796   0.858   7.388 -0.0323  0.0957  0.2191
 9877TIP3    H153826   1.847   0.796   7.441 -0.6194  1.3723  2.4244
 9877TIP3    H253827   1.842   0.942   7.400 -1.0495  0.7037 -0.0657
 9878TIP3   OH253828   0.381   0.800   1.178  0.3163 -0.1850 -0.0754
 9878TIP3    H153829   0.294   0.780   1.144  1.4404 -0.3403 -3.1388
 9878TIP3    H253830   0.387   0.896   1.174 -0.4204  0.0097  2.2196
 9879TIP3   OH253831   2.962   3.340   0.933 -0.7568  0.2971  0.3753
 9879TIP3    H153832   3.011   3.422   0.931 -0.3964  0.1663  2.0881
 9879TIP3    H253833   2.984   3.302   1.018 -0.2442 -2.0016 -0.7061
 9880TIP3   OH253834   6.632   2.565   8.503  0.1638  0.3186  0.3601
 9880TIP3    H153835   6.687   2.507   8.451 -1.4721 -0.6469 -0.3859
 9880TIP3    H253836   6.645   2.537   8.593 -1.3183 -1.9290 -0.0592
 9881TIP3   OH253837   1.507   6.828   9.183  0.1320 -0.1589  0.2572
 9881TIP3    H153838   1.510   6.923   9.176  2.4881 -0.2448 -0.9574
 9881TIP3    H253839   1.525   6.797   9.094  2.2700 -1.6844  1.1331
 9882TIP3   OH253840   4.734   5.663   2.323 -0.2245  1.0571 -0.0408
 9882TIP3    H153841   4.766   5.614   2.399 -0.9761 -0.6290 -0.7567
 9882TIP3    H253842   4.640   5.675   2.340  0.0081  2.6657  0.3032
 9883TIP3   OH253843   2.315   5.607   0.251 -0.3431 -0.0426 -0.1199
 9883TIP3    H153844   2.330   5.516   0.225 -1.2642  0.0293 -0.9921
 9883TIP3    H253845   2.393   5.654   0.222  0.7258 -0.7504  1.5021
 9884TIP3   OH253846   5.963   5.231   1.064 -0.0735 -0.8147  0.6865
 9884TIP3    H153847   5.908   5.261   1.137 -0.3383  0.7648 -0.1228
 9884TIP3    H253848   6.014   5.308   1.040  2.4879 -2.1879  1.3395
 9885TIP3   OH253849   7.052   4.211   7.658 -0.5477  0.5721  0.2354
 9885TIP3    H153850   7.020   4.222   7.568  0.9786 -1.0198 -0.5780
 9885TIP3    H253851   6.977   4.176   7.706 -0.6576 -1.2777 -1.1560
 9886TIP3   OH253852   3.083   5.099   3.174 -0.3566  0.1967 -0.5812
 9886TIP3    H153853   3.034   5.179   3.196 -2.1766 -0.8325 -0.7194
 9886TIP3    H253854   3.025   5.050   3.116 -0.0274 -2.0395  0.8627
 9887TIP3   OH253855   1.682   2.705   8.089 -0.6714  0.1913 -0.4361
 9887TIP3    H153856   1.730   2.724   8.169  2.3812 -2.1050 -1.5085
 9887TIP3    H253857   1.706   2.775   8.029 -0.4593  0.2489 -0.2850
 9888TIP3   OH253858   7.242   1.090   1.127  0.0045 -0.5022  0.2760
 9888TIP3    H153859   7.224   1.089   1.033  0.6495 -0.9560  0.1477
 9888TIP3    H253860   7.164   1.129   1.166 -0.0584  0.1711 -0.4871
 9889TIP3   OH253861   4.105   5.996   9.821 -0.0540  0.4053 -0.0049
 9889TIP3    H153862   4.017   6.027   9.800 -0.1964 -0.2128 -0.3379
 9889TIP3    H253863   4.094   5.939   9.896 -0.1465 -0.7965 -0.9090
 9890TIP3   OH253864   2.020   4.011   2.199 -0.1106  0.2755 -0.1146
 9890TIP3    H153865   2.110   4.010   2.169 -0.2196  3.7478 -0.9458
 9890TIP3    H253866   2.026   4.000   2.294  1.1713  0.4014 -0.1682
 9891TIP3   OH253867   2.003   2.461   9.269  0.1984  0.0106  0.2892
 9891TIP3    H153868   2.037   2.478   9.357 -1.5674 -1.6453  1.3946
 9891TIP3    H253869   2.042   2.377   9.244  2.0581  1.2896 -1.3209
 9892TIP3   OH253870   4.237   0.825   9.041  0.5538 -0.3325  0.3999
 9892TIP3    H153871   4.307   0.829   8.976  0.1139  2.0420  0.0095
 9892TIP3    H253872   4.252   0.899   9.099 -0.4046 -1.0557  1.6299
 9893TIP3   OH253873   5.634   1.492   9.942  0.2246 -0.0998 -0.3314
 9893TIP3    H153874   5.656   1.546  10.018 -0.0281 -0.1796 -0.2013
 9893TIP3    H253875   5.646   1.550   9.867 -1.0789  0.4673 -0.1276
 9894TIP3   OH253876   5.309   4.076   1.392  0.1278  0.2742  0.4224
 9894TIP3    H153877   5.314   3.996   1.444  0.7958  1.1646  1.8079
 9894TIP3    H253878   5.226   4.116   1.416 -0.6331 -0.4329 -0.9618
 9895TIP3   OH253879   5.921   6.606   9.777 -0.0165 -0.7298 -0.2299
 9895TIP3    H153880   5.950   6.647   9.859 -0.0550 -0.5563 -0.3033
 9895TIP3    H253881   5.967   6.522   9.776  1.4784  0.0553 -0.9603
 9896TIP3   OH253882   4.936   5.801   1.034 -0.1985 -0.2343 -0.2543
 9896TIP3    H153883   4.887   5.883   1.048 -1.9898 -1.2432 -0.3550
 9896TIP3    H253884   5.027   5.830   1.024 -0.8765  1.8237 -1.0953
 9897TIP3   OH253885   1.752   1.187   9.114 -0.2326 -0.5069  0.8055
 9897TIP3    H153886   1.775   1.264   9.166 -2.2665  0.2237  0.7075
 9897TIP3    H253887   1.709   1.128   9.175  0.0175 -0.9361  0.5694
 9898TIP3   OH253888   3.543   4.858   7.542  0.0974 -0.6821  0.4710
 9898TIP3    H153889   3.565   4.815   7.625  1.7258  0.0920  0.4772
 9898TIP3    H253890   3.627   4.881   7.504 -0.6656 -0.0007 -0.8683
 9899TIP3   OH253891   1.374   6.575   1.422 -0.0524  0.6827  0.2925
 9899TIP3    H153892   1.304   6.608   1.365  0.3659  1.9842  0.4911
 9899TIP3    H253893   1.410   6.500   1.376 -1.9541 -0.3739  0.4621
 9900TIP3   OH253894   6.367   0.828   8.386  0.2008  0.2682 -0.5088
 9900TIP3    H153895   6.352   0.769   8.312  0.5197  1.9822 -2.0373
 9900TIP3    H253896   6.415   0.901   8.348  1.5927  0.5921  1.7297
 9901TIP3   OH253897   6.032   0.568   1.369  0.4566  0.4753  0.2478
 9901TIP3    H153898   6.060   0.482   1.338  2.7320  2.2064 -3.0373
 9901TIP3    H253899   5.949   0.584   1.324  0.6044  0.4816 -0.0185
 9902TIP3   OH253900   4.604   3.059   2.442 -0.3743  0.5505  0.0450
 9902TIP3    H153901   4.554   3.106   2.509  0.0655  1.0469  0.0352
 9902TIP3    H253902   4.549   3.062   2.364 -0.3241  1.1360  0.0219
 9903TIP3   OH253903   1.179   5.197   1.833 -0.0170  0.1838 -0.4991
 9903TIP3    H153904   1.189   5.225   1.742  1.5077 -1.0122 -0.7333
 9903TIP3    H253905   1.179   5.279   1.884 -2.1789  0.9687 -1.6104
 9904TIP3   OH253906   2.027   7.207   1.726  0.2347 -0.2135 -0.5266
 9904TIP3    H153907   2.072   7.289   1.711 -0.1596  0.3227  0.9993
 9904TIP3    H253908   2.096   7.147   1.756  0.2542  0.0536 -0.0285
 9905TIP3   OH253909   2.168   6.413   1.975  0.2097  0.1493 -0.1082
 9905TIP3    H153910   2.219   6.346   2.020  1.0368  0.3162 -0.7566
 9905TIP3    H253911   2.106   6.365   1.921  1.0272 -0.1258 -0.8332
 9906TIP3   OH253912   1.913   3.064   7.747 -0.2814  0.5343  0.0857
 9906TIP3    H153913   1.984   3.098   7.693 -0.0530 -0.5173 -0.2992
 9906TIP3    H253914   1.843   3.043   7.685  0.5685 -2.2116 -0.0999
 9907TIP3   OH253915   1.888   5.415   1.666 -0.0335  0.0358  0.1379
 9907TIP3    H153916   1.808   5.461   1.688 -0.6808 -0.9262 -0.1258
 9907TIP3    H253917   1.955   5.483   1.663 -1.2910  1.3089 -2.1768
 9908TIP3   OH253918   4.956   1.691   0.458  0.0488  0.5522 -0.1039
 9908TIP3    H153919   4.872   1.655   0.489  0.8195 -0.0316  1.3938
 9908TIP3    H253920   5.003   1.616   0.422  0.4307  0.6357  0.2147
 9909TIP3   OH253921   4.538   5.247   1.294  0.6674  0.4089 -0.3364
 9909TIP3    H153922   4.505   5.330   1.257  1.3601  2.2018  2.7028
 9909TIP3    H253923   4.476   5.227   1.364  1.9922 -0.1756  0.6918
 9910TIP3   OH253924   7.006   7.340   9.047 -0.6608  0.3220 -0.0927
 9910TIP3    H153925   7.097   7.344   9.077 -1.2015 -0.1434  1.7293
 9910TIP3    H253926   7.003   7.399   8.972  0.9105  1.2088  0.4915
 9911TIP3   OH253927   0.593   1.924   9.475 -0.3572 -0.2851 -0.0589
 9911TIP3    H153928   0.646   1.938   9.397 -2.0162  0.5414 -1.0992
 9911TIP3    H253929   0.643   1.963   9.546  1.5178 -1.6759 -0.5523
 9912TIP3   OH253930   7.202   6.775   0.529 -0.0712 -0.1294 -0.2491
 9912TIP3    H153931   7.211   6.768   0.624  0.3610  1.8027 -0.1034
 9912TIP3    H253932   7.109   6.761   0.512 -0.0573 -1.0623  0.3707
 9913TIP3   OH253933   0.093   7.236   9.947 -0.4793 -0.0072 -0.2983
 9913TIP3    H153934   0.136   7.158   9.913 -0.2059  1.0932 -2.6313
 9913TIP3    H253935   0.113   7.235  10.041  1.6120 -1.4278 -0.6953
 9914TIP3   OH253936   1.983   5.232   9.840  0.1365  0.1213 -0.2985
 9914TIP3    H153937   2.076   5.212   9.846  0.1428  0.4419  1.2093
 9914TIP3    H253938   1.965   5.284   9.918 -1.3582 -0.1636 -0.4200
 9915TIP3   OH253939   1.636   2.789   8.754 -0.0341  0.1532 -0.0562
 9915TIP3    H153940   1.643   2.879   8.785  0.7281 -0.4830  1.7080
 9915TIP3    H253941   1.592   2.742   8.825  0.6991 -1.1209 -0.4187
 9916TIP3   OH253942   1.172   3.854   8.680 -0.1545  0.0046 -0.4369
 9916TIP3    H153943   1.264   3.846   8.705  0.7213 -0.3502 -3.3236
 9916TIP3    H253944   1.170   3.823   8.589 -3.2879 -0.7307 -0.2060
 9917TIP3   OH253945   7.323   6.619   1.087 -0.1530 -0.2787 -0.7863
 9917TIP3    H153946   7.397   6.623   1.148 -0.6109  0.4668 -0.2731
 9917TIP3    H253947   7.301   6.526   1.084  0.5804 -0.4684 -0.6811
 9918TIP3   OH253948   2.018   1.025   9.167  0.0679 -0.6068  0.2285
 9918TIP3    H153949   1.972   0.942   9.154 -1.9764  0.5075 -0.0832
 9918TIP3    H253950   2.087   1.005   9.230 -0.8431 -2.3894  0.7212
 9919TIP3   OH253951   0.718   0.931   8.777  0.0004  0.3322 -0.0578
 9919TIP3    H153952   0.737   0.989   8.851  0.2691  0.0813  0.0726
 9919TIP3    H253953   0.781   0.859   8.786 -0.6946 -0.2691  0.1057
 9920TIP3   OH253954   1.177   6.410   0.788  0.0422  0.6668  0.4753
 9920TIP3    H153955   1.153   6.493   0.829 -2.2521  0.1166  0.3772
 9920TIP3    H253956   1.160   6.343   0.855  1.3130  0.2021  0.3620
 9921TIP3   OH253957   6.249   7.198   8.049 -0.2354 -0.1099  0.1688
 9921TIP3    H153958   6.311   7.158   7.989 -2.5012 -2.4667 -0.7754
 9921TIP3    H253959   6.211   7.270   7.999 -0.1290 -0.3116 -0.2062
 9922TIP3   OH253960   7.576   6.018   2.053 -0.3340 -0.0304  0.1824
 9922TIP3    H153961   7.600   5.935   2.094 -1.3690 -0.2838  0.3192
 9922TIP3    H253962   7.480   6.014   2.046 -0.3092  0.6759 -0.8205
 9923TIP3   OH253963   2.116   3.334   9.261 -0.5388 -0.4951  0.0355
 9923TIP3    H153964   2.033   3.381   9.267 -0.4197 -0.2776 -0.0035
 9923TIP3    H253965   2.130   3.322   9.167  0.2728  0.9157 -0.0532
 9924TIP3   OH253966   7.180   2.942   0.164 -0.4971 -0.2659 -0.4045
 9924TIP3    H153967   7.248   2.888   0.204  2.1964  4.3360  2.0342
 9924TIP3    H253968   7.102   2.923   0.216  0.2880 -1.7610  0.3087
 9925TIP3   OH253969   2.136   6.399   1.317  0.1836 -0.0703  0.6241
 9925TIP3    H153970   2.162   6.342   1.245  0.9396 -0.0082  0.8319
 9925TIP3    H253971   2.062   6.449   1.283 -1.2402 -1.9596  0.8188
 9926TIP3   OH253972   3.983   1.357   2.396 -0.3868 -0.7713 -0.5352
 9926TIP3    H153973   4.076   1.351   2.419 -0.4335  0.5376  0.0692
 9926TIP3    H253974   3.978   1.319   2.309  0.4970 -2.0262 -0.0738
 9927TIP3   OH253975   6.677   3.319   2.243 -0.2608 -0.2646 -0.7075
 9927TIP3    H153976   6.663   3.299   2.150  1.1610 -2.6390 -0.4885
 9927TIP3    H253977   6.767   3.352   2.247 -0.0374 -0.9159 -0.1090
 9928TIP3   OH253978   1.802   0.070   0.933 -0.4159 -0.2206 -0.5384
 9928TIP3    H153979   1.830  -0.006   0.883  3.2566 -0.4001  1.3877
 9928TIP3    H253980   1.833   0.145   0.882  0.2262 -0.2790 -0.2575
 9929TIP3   OH253981   1.719   5.325   8.100 -0.3110  0.1014  0.1689
 9929TIP3    H153982   1.696   5.340   8.008 -1.6487 -0.6714  0.3411
 9929TIP3    H253983   1.803   5.369   8.112 -0.9179  1.6619 -0.9854
 9930TIP3   OH253984   3.412   0.526   8.088 -0.3245  0.4204 -0.6122
 9930TIP3    H153985   3.506   0.531   8.110 -0.4306  0.2711 -0.1047
 9930TIP3    H253986   3.400   0.436   8.058 -0.6436 -0.1214  1.0178
 9931TIP3   OH253987   6.132   5.798   9.926  0.2040 -0.2807 -0.5536
 9931TIP3    H153988   6.122   5.703   9.928 -0.4194 -0.2116  1.0179
 9931TIP3    H253989   6.173   5.816   9.842 -0.5603 -1.8487 -1.2970
 9932TIP3   OH253990   0.064   3.259   1.800 -0.4252  0.6234  0.1805
 9932TIP3    H153991   0.096   3.347   1.818 -0.8878  1.0446 -0.9791
 9932TIP3    H253992   0.004   3.240   1.872 -1.0931  1.6661 -0.0803
 9933TIP3   OH253993   5.076   3.733   0.351  0.1512  0.1819 -0.0376
 9933TIP3    H153994   5.148   3.672   0.332  0.4569  1.0187 -1.7977
 9933TIP3    H253995   5.118   3.809   0.389 -0.1958 -0.5179  1.8491
 9934TIP3   OH253996   7.382   3.451   1.246  0.3466  0.3552  0.5456
 9934TIP3    H153997   7.294   3.490   1.246 -0.2302 -0.8682 -0.5710
 9934TIP3    H253998   7.371   3.367   1.203  1.8919 -0.2928  1.3273
 9935TIP3   OH253999   7.200   0.142   9.560  0.6890  0.0425 -0.3853
 9935TIP3    H154000   7.210   0.177   9.648 -1.9839  0.8010 -0.2845
 9935TIP3    H254001   7.284   0.158   9.517  2.1687 -0.6474  2.0696
 9936TIP3   OH254002   6.372   0.760   0.961  0.2816  0.1570 -0.5700
 9936TIP3    H154003   6.344   0.851   0.972 -1.9881 -0.5326 -0.1761
 9936TIP3    H254004   6.333   0.714   1.035  2.9904 -0.8784  0.3525
 9937TIP3   OH254005   6.044   1.141   0.959  0.4164 -0.1479 -0.1652
 9937TIP3    H154006   6.010   1.114   0.874  0.3040  0.5444 -0.3486
 9937TIP3    H254007   5.992   1.218   0.983  2.3598  1.4595 -0.8415
 9938TIP3   OH254008   3.025   3.871   9.816  0.0592 -0.5391 -0.1321
 9938TIP3    H154009   3.051   3.792   9.864  2.0715 -0.6271 -1.2528
 9938TIP3    H254010   2.930   3.875   9.826  0.1698 -1.7028  2.0553
 9939TIP3   OH254011   2.442   2.548   0.247  0.4671 -0.1808 -0.3509
 9939TIP3    H154012   2.403   2.604   0.180 -0.6430 -0.8125 -0.2502
 9939TIP3    H254013   2.376   2.481   0.265  0.9558 -0.3490  0.9808
 9940TIP3   OH254014   6.405   0.476   7.755 -0.1287  0.1637 -0.0886
 9940TIP3    H154015   6.408   0.548   7.819 -0.0608 -0.5677  0.7545
 9940TIP3    H254016   6.319   0.485   7.713 -0.5093  0.1994  0.6717
 9941TIP3   OH254017   3.891   0.640   7.992 -0.5535 -1.1142 -0.3826
 9941TIP3    H154018   3.959   0.704   8.013 -0.4757 -1.1800 -0.4356
 9941TIP3    H254019   3.913   0.608   7.905  0.7359 -2.9078  0.5264
 9942TIP3   OH254020   1.256   5.869   1.126  0.0502  0.5973 -0.2991
 9942TIP3    H154021   1.262   5.926   1.203  0.0417 -2.2296  1.9885
 9942TIP3    H254022   1.174   5.894   1.084 -1.1052  0.8180  1.9224
 9943TIP3   OH254023   6.995   6.074   9.383 -0.1174  0.2587  0.1913
 9943TIP3    H154024   7.038   5.995   9.415 -1.9896 -0.4273  1.1582
 9943TIP3    H254025   7.061   6.116   9.326  1.0265 -1.8168 -0.1157
 9944TIP3   OH254026   0.159   6.733   0.464 -0.3567 -0.4365  0.0990
 9944TIP3    H154027   0.202   6.647   0.465  2.6160  0.9069 -0.4552
 9944TIP3    H254028   0.067   6.714   0.479  0.1610 -3.7233 -0.1270
 9945TIP3   OH254029   5.968   4.280   8.968  0.4167  0.3220  0.4370
 9945TIP3    H154030   5.886   4.232   8.957  0.3786  0.1960  1.2129
 9945TIP3    H254031   6.017   4.263   8.888  1.2772 -2.7259  1.4455
 9946TIP3   OH254032   4.834   6.754   2.307  0.3137 -0.6039 -0.0961
 9946TIP3    H154033   4.880   6.833   2.281 -0.6112  0.7561  2.0994
 9946TIP3    H254034   4.903   6.690   2.323  1.1599  0.1163 -0.7962
 9947TIP3   OH254035   5.052   7.490   8.613 -0.9188 -0.0061  0.5260
 9947TIP3    H154036   5.059   7.516   8.705  1.1866 -0.8313  0.6495
 9947TIP3    H254037   4.998   7.558   8.573  1.4949  2.6731  1.5248
 9948TIP3   OH254038   2.601   1.836   8.626 -0.3400  0.3100  0.2828
 9948TIP3    H154039   2.556   1.918   8.646 -0.1841  0.3597  0.4326
 9948TIP3    H254040   2.531   1.770   8.626 -0.2185  0.1079  2.1852
 9949TIP3   OH254041   0.730   7.662   7.576  0.2475  0.1211  0.0225
 9949TIP3    H154042   0.758   7.684   7.487 -0.0734 -0.7821 -0.3130
 9949TIP3    H254043   0.675   7.585   7.565  2.3233 -1.6527  1.2459
 9950TIP3   OH254044   6.794   2.517   9.044  0.1627  0.6777 -0.6166
 9950TIP3    H154045   6.769   2.440   9.096 -1.0435 -0.3026 -2.5368
 9950TIP3    H254046   6.759   2.591   9.093 -0.8021 -0.1896  0.0640
 9951TIP3   OH254047   4.291   1.443   8.765 -0.1728 -0.2224  0.4731
 9951TIP3    H154048   4.223   1.453   8.831  0.6449  2.6832  0.9818
 9951TIP3    H254049   4.243   1.434   8.682 -1.1787  0.7489  0.9337
 9952TIP3   OH254050   6.005   2.300   2.343 -0.0317 -0.0710  0.0326
 9952TIP3    H154051   5.914   2.286   2.318  0.1945  0.1064 -0.9339
 9952TIP3    H254052   6.003   2.381   2.395 -0.4396 -0.1238  0.1016
 9953TIP3   OH254053   2.224   1.502   7.821  0.4323  0.0211  0.1302
 9953TIP3    H154054   2.232   1.578   7.763 -0.4802  1.0823  1.3193
 9953TIP3    H254055   2.233   1.539   7.909  0.4428 -1.3383  0.7208
 9954TIP3   OH254056   4.987   0.891   2.366  0.0007 -0.6010  0.3080
 9954TIP3    H154057   4.990   0.924   2.276 -3.3060 -0.9831 -0.0687
 9954TIP3    H254058   5.011   0.966   2.420  0.8541 -0.0238 -0.8121
 9955TIP3   OH254059   4.023   6.678   1.548 -0.2217  0.1682  0.2178
 9955TIP3    H154060   3.991   6.593   1.579 -0.6126  0.3870  0.4206
 9955TIP3    H254061   4.003   6.738   1.620  0.9339  0.2512  0.4792
 9956TIP3   OH254062   6.957   6.840   8.215  0.0068  0.1972  0.4158
 9956TIP3    H154063   6.914   6.773   8.162 -0.5024  0.7357  0.1423
 9956TIP3    H254064   6.894   6.861   8.283 -0.6403  1.7751 -0.6212
 9957TIP3   OH254065   6.620   1.845   0.140  0.0641  0.2576 -0.1037
 9957TIP3    H154066   6.526   1.859   0.129  0.0411  0.1113 -0.0948
 9957TIP3    H254067   6.629   1.750   0.147  0.4237  0.0741 -2.1872
 9958TIP3   OH254068   0.565   2.598   1.445 -0.7565  0.4372 -0.1879
 9958TIP3    H154069   0.551   2.508   1.475 -1.2082  0.7833  0.6668
 9958TIP3    H254070   0.633   2.632   1.503  0.9873 -0.0078 -1.8674
 9959TIP3   OH254071   7.456   7.389   9.663  0.4202 -0.1722 -0.6829
 9959TIP3    H154072   7.361   7.375   9.655  0.5920 -1.5032 -0.7126
 9959TIP3    H254073   7.475   7.370   9.755  0.6369  0.2394 -0.6436
 9960TIP3   OH254074   2.607   1.022   9.071  0.0629 -0.2899 -0.2970
 9960TIP3    H154075   2.622   0.929   9.053  0.0614 -0.5023  0.7761
 9960TIP3    H254076   2.640   1.067   8.993  1.1951 -1.1066 -0.3005
 9961TIP3   OH254077   2.624   0.074   8.230 -0.0033  0.3410  0.5184
 9961TIP3    H154078   2.605   0.009   8.163  0.8479 -0.9286  1.4614
 9961TIP3    H254079   2.546   0.129   8.233 -0.9108 -0.8754 -0.0324
 9962TIP3   OH254080   6.272   0.567   0.754 -0.4341 -0.0469 -0.0006
 9962TIP3    H154081   6.306   0.635   0.811  1.0681 -0.3978 -0.4314
 9962TIP3    H254082   6.302   0.485   0.794  1.3345 -0.2827 -1.6227
 9963TIP3   OH254083   0.034   4.086   9.572  0.3197 -0.1325 -0.4836
 9963TIP3    H154084   0.078   4.081   9.487  1.7185 -2.2433  0.2792
 9963TIP3    H254085   0.080   4.156   9.619 -2.5246  3.3632 -2.4188
 9964TIP3   OH254086   5.132   5.563   0.747 -0.2727  0.5841  0.3087
 9964TIP3    H154087   5.197   5.573   0.817  0.2493 -3.6801  0.6685
 9964TIP3    H254088   5.167   5.494   0.691 -0.6607  3.7215 -4.4244
 9965TIP3   OH254089   6.734   1.536   9.877  0.2150 -0.0945 -0.0478
 9965TIP3    H154090   6.829   1.531   9.869  0.1679  0.8589 -1.7371
 9965TIP3    H254091   6.703   1.457   9.832  0.2008 -0.5610  0.7672
 9966TIP3   OH254092   0.532   3.391   8.623 -0.2229  0.3181  0.1510
 9966TIP3    H154093   0.565   3.339   8.696  2.1302 -0.4252 -1.3238
 9966TIP3    H254094   0.579   3.474   8.629 -1.3032  0.9360  0.4211
 9967TIP3   OH254095   1.428   4.608   2.170  0.0606  0.1562  0.0817
 9967TIP3    H154096   1.515   4.615   2.210  1.3357 -0.3399 -2.4052
 9967TIP3    H254097   1.396   4.698   2.167  0.1224  0.2621  1.6771
 9968TIP3   OH254098   1.334   0.935   2.112 -0.1632  0.3974  0.0724
 9968TIP3    H154099   1.422   0.922   2.147  0.2288  0.2449 -0.9592
 9968TIP3    H254100   1.313   0.854   2.067 -0.4972  0.7475 -0.4151
 9969TIP3   OH254101   3.855   7.510   9.540  0.3950  0.1494 -0.2295
 9969TIP3    H154102   3.788   7.546   9.598 -0.5024  1.1613 -1.8578
 9969TIP3    H254103   3.918   7.581   9.529 -0.8274  0.9465 -2.5921
 9970TIP3   OH254104   0.401   5.845   9.338  0.7614 -0.1552 -0.7878
 9970TIP3    H154105   0.356   5.896   9.270  0.9512  1.8327  0.4906
 9970TIP3    H254106   0.424   5.910   9.405  0.4303 -2.0583  1.2767
 9971TIP3   OH254107   7.471   6.995   8.009 -0.0288  0.4134  0.5081
 9971TIP3    H154108   7.397   6.939   7.986  0.0501 -0.0606  1.3722
 9971TIP3    H254109   7.511   7.017   7.926 -2.0264  1.9317 -0.1346
 9972TIP3   OH254110   0.167   7.460   8.371 -0.0132  0.7006 -0.0994
 9972TIP3    H154111   0.094   7.398   8.362 -1.5281  2.2852  0.6056
 9972TIP3    H254112   0.138   7.538   8.324  2.0120  0.7887 -1.3158
 9973TIP3   OH254113   4.495   4.307   1.774  0.0975 -0.6768  0.5433
 9973TIP3    H154114   4.484   4.283   1.682  0.5751  0.1104  0.2716
 9973TIP3    H254115   4.519   4.225   1.817  2.8885 -0.5693 -0.5636
 9974TIP3   OH254116   5.090   0.389   7.767  0.3978  0.0028 -0.2023
 9974TIP3    H154117   5.164   0.445   7.792  0.3538 -0.2634  0.5306
 9974TIP3    H254118   5.131   0.310   7.732  0.4627 -0.0639  0.0219
 9975TIP3   OH254119   1.546   1.256   1.603 -0.8256 -0.0307 -0.1251
 9975TIP3    H154120   1.487   1.311   1.654 -0.9695  0.6585 -1.0270
 9975TIP3    H254121   1.515   1.167   1.619 -0.5974  0.1169  1.3352
 9976TIP3   OH254122   6.754   5.108   0.676  0.0681  0.2529 -0.3253
 9976TIP3    H154123   6.736   5.089   0.584 -0.0151  1.0179 -0.4764
 9976TIP3    H254124   6.842   5.074   0.691  1.0285  2.1254 -1.3327
 9977TIP3   OH254125   1.840   5.502   7.038 -0.1613  0.5327 -0.3477
 9977TIP3    H154126   1.817   5.515   6.946  1.9520  0.8365 -0.8869
 9977TIP3    H254127   1.907   5.433   7.036 -0.6959 -0.0606  1.0574
 9978TIP3   OH254128   6.027   4.931   9.718 -0.1229 -0.0465 -0.4905
 9978TIP3    H154129   6.054   5.011   9.763  0.7093 -0.9019  0.5893
 9978TIP3    H254130   5.932   4.941   9.705 -0.3834  0.2698  1.4015
 9979TIP3   OH254131   5.891   4.739   8.867 -0.1325  0.3894 -0.3585
 9979TIP3    H154132   5.800   4.749   8.840 -0.2170  1.1970  0.1939
 9979TIP3    H254133   5.895   4.778   8.954  0.0985 -2.2806  0.9325
 9980TIP3   OH254134   1.314   6.155   1.326  0.1499  0.0411 -0.0848
 9980TIP3    H154135   1.356   6.161   1.240 -0.0300 -0.9071 -0.2481
 9980TIP3    H254136   1.367   6.212   1.382  0.3059  0.6213 -0.8024
 9981TIP3   OH254137   6.495   2.253   8.332  0.0595 -0.2128  0.0950
 9981TIP3    H154138   6.505   2.261   8.427 -0.5879 -1.1802  0.2604
 9981TIP3    H254139   6.552   2.180   8.308 -0.5146 -0.5942 -0.1174
 9982TIP3   OH254140   4.817   6.501   1.590  0.0994 -0.2364  0.2231
 9982TIP3    H154141   4.763   6.428   1.619 -1.1093  0.6003  0.1447
 9982TIP3    H254142   4.873   6.520   1.665 -0.7725 -0.1473  0.8631
 9983TIP3   OH254143   0.265   1.176   9.025 -0.3134 -0.3559 -0.5594
 9983TIP3    H154144   0.194   1.237   9.042  0.5451 -0.0012  2.1741
 9983TIP3    H254145   0.223   1.090   9.020 -1.3876  0.2272 -3.3862
 9984TIP3   OH254146   5.549   4.885   9.544 -0.2342 -0.2200 -0.2761
 9984TIP3    H154147   5.547   4.791   9.563 -0.9790 -0.4757 -1.4977
 9984TIP3    H254148   5.486   4.924   9.605  0.3946 -0.4386  0.5314
 9985TIP3   OH254149   6.134   3.090   0.537 -0.0922 -0.0814  0.2891
 9985TIP3    H154150   6.161   3.024   0.601  0.2769 -0.3900 -0.1774
 9985TIP3    H254151   6.216   3.132   0.510  0.0617 -1.5143 -1.6661
 9986TIP3   OH254152   2.548   2.366   0.006 -0.7931 -0.0663 -0.0250
 9986TIP3    H154153   2.567   2.424  -0.068 -0.8399  0.3791  0.3060
 9986TIP3    H254154   2.619   2.383   0.068 -2.5674  2.1599  1.5523
 9987TIP3   OH254155   6.164   3.081   1.352  0.7215  0.4414 -0.1343
 9987TIP3    H154156   6.228   3.123   1.408 -0.2914  1.4199  0.3395
 9987TIP3    H254157   6.203   2.997   1.329  1.5141  0.3660  1.3628
 9988TIP3   OH254158   3.439   0.114   9.039 -0.1036  0.6307  0.2029
 9988TIP3    H154159   3.523   0.159   9.029  0.5212 -0.8610 -2.2415
 9988TIP3    H254160   3.462   0.023   9.060 -1.1313  0.3787  0.3179
 9989TIP3   OH254161   0.370   2.395   1.289 -0.0419  0.2599  0.9949
 9989TIP3    H154162   0.401   2.468   1.236 -0.0852  0.0979  0.7400
 9989TIP3    H254163   0.448   2.344   1.310 -0.2534 -0.8778 -0.7607
 9990TIP3   OH254164   0.609   7.512   7.860  0.4627  0.0047  0.0096
 9990TIP3    H154165   0.623   7.468   7.775 -0.2845  0.5357 -0.3923
 9990TIP3    H254166   0.555   7.451   7.910  1.7047 -0.7519  0.4913
 9991TIP3   OH254167   0.381   1.553   0.447 -0.0929  0.3589 -0.0727
 9991TIP3    H154168   0.320   1.601   0.392  1.1149  1.8962 -0.1394
 9991TIP3    H254169   0.405   1.614   0.516  2.0762  0.1773 -0.5934
 9992TIP3   OH254170   5.561   0.302   9.107 -0.3483  0.5555  0.1098
 9992TIP3    H154171   5.527   0.388   9.130  0.4940  1.2439 -1.0899
 9992TIP3    H254172   5.649   0.300   9.145 -0.3342  0.2564  0.0643
 9993TIP3   OH254173   4.065   0.981   8.856 -0.2944  0.1046  0.6633
 9993TIP3    H154174   4.131   1.002   8.790 -0.6131 -1.4047 -0.1851
 9993TIP3    H254175   4.111   0.929   8.921 -0.5731 -0.7975  0.1621
 9994TIP3   OH254176   2.761   5.446   6.360  0.1473 -0.1073 -0.2232
 9994TIP3    H154177   2.746   5.365   6.409  1.3677  0.4116  1.0833
 9994TIP3    H254178   2.674   5.473   6.331 -0.6914 -0.2911  1.9544
 9995TIP3   OH254179   1.211   3.544   0.544 -0.3596  0.3628  0.1242
 9995TIP3    H154180   1.137   3.583   0.591 -0.9724  0.6796 -1.0463
 9995TIP3    H254181   1.289   3.581   0.586 -0.9012  2.2861 -0.4436
 9996TIP3   OH254182   0.712   2.890   9.378 -0.7264  0.1822  0.1501
 9996TIP3    H154183   0.633   2.924   9.418 -0.9162  1.8558 -1.5327
 9996TIP3    H254184   0.681   2.839   9.303 -0.2249  0.7866 -0.4768
 9997TIP3   OH254185   3.567   5.773   7.199 -0.2734 -0.2620  0.3798
 9997TIP3    H154186   3.504   5.803   7.134 -1.5371 -1.5014  0.9777
 9997TIP3    H254187   3.640   5.834   7.192 -0.0089 -0.7641 -2.7214
 9998TIP3   OH254188   1.762   5.751   0.047 -0.1796 -0.0843  0.1561
 9998TIP3    H154189   1.798   5.670   0.011 -0.2494 -0.8585  1.7138
 9998TIP3    H254190   1.798   5.756   0.136  0.2202  1.8804 -0.0829
 9999TIP3   OH254191   1.032   1.637   2.343 -0.4705  0.5872 -0.2902
 9999TIP3    H154192   1.060   1.634   2.252  0.2730  2.6850 -0.1711
 9999TIP3    H254193   0.937   1.646   2.339 -0.6328 -1.0111 -0.7913
10000TIP3   OH254194   1.063   5.163   1.061 -0.0067  0.2878 -0.3333
10000TIP3    H154195   1.039   5.097   1.126 -2.0076  0.9075 -0.3828
10000TIP3    H254196   1.157   5.148   1.045  0.0649 -1.1570  1.1927
10001TIP3   OH254197   3.367   0.796   8.936 -0.5969  0.0342 -0.3365
10001TIP3    H154198   3.426   0.834   9.001 -0.7589 -0.7781  0.3161
10001TIP3    H254199   3.418   0.793   8.856 -0.7384  2.0169 -0.5448
10002TIP3   OH254200   0.482   4.341   7.566  0.2152  0.1887  0.0969
10002TIP3    H154201   0.398   4.365   7.528  0.3257 -0.9902 -0.9520
10002TIP3    H254202   0.461   4.308   7.653 -0.8411 -2.8990 -1.1892
10003TIP3   OH254203   1.891   4.454   2.691 -0.3927 -0.3707 -0.5871
10003TIP3    H154204   1.948   4.466   2.767 -1.6307 -0.0811  0.3346
10003TIP3    H254205   1.924   4.376   2.648  0.4123 -0.4741  0.1805
10004TIP3   OH254206   3.756   7.024   1.706 -0.3470 -0.1549 -0.2765
10004TIP3    H154207   3.697   7.047   1.777 -0.0029 -0.3500  0.0772
10004TIP3    H254208   3.705   7.040   1.626 -1.2018 -1.2166  0.0334
10005TIP3   OH254209   2.690   5.019   8.748  0.6260  0.3566  0.0028
10005TIP3    H154210   2.656   5.096   8.702  0.1590  0.6675  0.8366
10005TIP3    H254211   2.632   4.948   8.721  1.4211  0.1468 -1.2380
10006TIP3   OH254212   3.061   6.436   1.239 -0.3823  0.1831 -0.1877
10006TIP3    H154213   3.044   6.428   1.145 -1.3916 -0.3931  0.0270
10006TIP3    H254214   3.009   6.366   1.278 -0.6991  1.0028  0.8831
10007TIP3   OH254215   2.695   2.871   2.109 -0.0567 -0.1657 -0.3019
10007TIP3    H154216   2.623   2.822   2.148  0.6798  0.3204  1.8003
10007TIP3    H254217   2.685   2.960   2.143  0.8290  0.2017 -0.9665
10008TIP3   OH254218   3.633   5.792   8.537  0.6715 -0.4717 -0.1397
10008TIP3    H154219   3.691   5.840   8.596  1.0195 -0.4858 -0.4688
10008TIP3    H254220   3.663   5.702   8.542  1.5838 -0.2507 -1.3740
10009TIP3   OH254221   4.001   1.646   9.658  0.2496  0.0317  0.5128
10009TIP3    H154222   3.996   1.723   9.602  0.1991  0.0239  0.5062
10009TIP3    H254223   4.042   1.677   9.739  2.0773 -0.3588 -0.2290
10010TIP3   OH254224   6.303   3.127   8.409 -0.0238 -0.0434  0.4312
10010TIP3    H154225   6.346   3.084   8.334  1.7122  1.7621  0.3041
10010TIP3    H254226   6.216   3.088   8.411  1.1261 -2.9623 -0.1375
10011TIP3   OH254227   1.410   5.858   9.769 -0.3885 -0.2977  0.7142
10011TIP3    H154228   1.345   5.864   9.699  0.4624 -0.4836 -0.1090
10011TIP3    H254229   1.412   5.766   9.792 -3.1171  0.1629  3.4043
10012TIP3   OH254230   4.992   2.804   9.433  0.5195 -0.2125 -0.6087
10012TIP3    H154231   5.040   2.742   9.378  2.1489  0.6308 -0.1936
10012TIP3    H254232   5.041   2.806   9.515 -1.2111 -0.5816  0.4801
10013TIP3   OH254233   3.227   4.539   9.112  0.7265  0.1958 -0.4378
10013TIP3    H154234   3.275   4.547   9.195  2.5766 -2.3472 -1.1249
10013TIP3    H254235   3.151   4.485   9.134  1.2526 -0.5377 -0.3891
10014TIP3   OH254236   4.040   1.756   8.880 -0.4199 -0.3923  0.0726
10014TIP3    H154237   4.020   1.808   8.802 -0.8300 -1.5712 -0.6374
10014TIP3    H254238   4.125   1.788   8.909  0.5472 -1.0122 -1.8472
10015TIP3   OH254239   3.074   7.005   7.621  0.2140 -0.1435  0.1674
10015TIP3    H154240   3.128   7.067   7.571 -1.3730  0.7736 -0.4840
10015TIP3    H254241   3.048   6.939   7.556 -1.5555  0.8524 -0.1866
10016TIP3   OH254242   4.177   3.166   0.985 -0.3510  0.4499  0.2694
10016TIP3    H154243   4.135   3.222   0.920 -0.2386 -0.6345 -0.7722
10016TIP3    H254244   4.118   3.090   0.992 -0.1205  0.3436  1.0877
10017TIP3   OH254245   0.999   2.675   7.776  0.4961 -0.0725  0.3308
10017TIP3    H154246   0.942   2.617   7.826 -1.4608 -0.4728 -2.1766
10017TIP3    H254247   1.078   2.683   7.829 -1.0296 -1.2317  2.9449
10018TIP3   OH254248   2.676   0.153   7.902  0.2060 -0.0485 -0.0282
10018TIP3    H154249   2.753   0.157   7.845 -1.4886 -2.3958 -2.7929
10018TIP3    H254250   2.692   0.078   7.959 -0.2112 -0.9590 -1.0584
10019TIP3   OH254251   3.051   4.802   1.619 -0.0342 -0.2935 -0.7163
10019TIP3    H154252   3.047   4.892   1.652 -1.2854 -0.1918 -1.1247
10019TIP3    H254253   3.027   4.809   1.527  2.1912 -0.7522 -1.3969
10020TIP3   OH254254   6.526   2.609   9.139 -0.4314 -0.1877 -0.0589
10020TIP3    H154255   6.436   2.600   9.110 -0.4674 -1.2523  0.3502
10020TIP3    H254256   6.520   2.614   9.235 -0.0914  0.2224 -0.0558
10021TIP3   OH254257   1.509   7.155   9.143 -0.1081 -0.0349 -0.3489
10021TIP3    H154258   1.598   7.149   9.179 -0.4150 -1.7760  0.2302
10021TIP3    H254259   1.476   7.239   9.176  0.9105  0.0963  0.3996
10022TIP3   OH254260   3.568   0.860   1.846  0.1687  0.0566 -0.3904
10022TIP3    H154261   3.619   0.821   1.775 -0.6860  0.5857 -1.3198
10022TIP3    H254262   3.549   0.786   1.905  1.4846 -0.2506 -0.3245
10023TIP3   OH254263   3.359   3.633   1.377  0.4194  0.2696 -0.0050
10023TIP3    H154264   3.292   3.565   1.385  0.3622  0.1166 -1.4761
10023TIP3    H254265   3.441   3.585   1.368  0.3487  0.3662 -1.3137
10024TIP3   OH254266   3.957   5.443   1.906  0.6396  0.0077  0.0131
10024TIP3    H154267   3.960   5.390   1.827  0.4525 -0.8761  0.5854
10024TIP3    H254268   4.044   5.436   1.944  0.4340 -0.4108  0.4179
10025TIP3   OH254269   0.125   0.911   7.744 -0.1510 -0.2730  0.8107
10025TIP3    H154270   0.043   0.958   7.761  0.0406 -0.2211  1.6562
10025TIP3    H254271   0.170   0.912   7.828  1.8092  1.7653 -0.1662
10026TIP3   OH254272   0.516   4.125   7.401  0.3204  0.2088  0.3638
10026TIP3    H154273   0.528   4.207   7.448 -0.6717  0.3558  0.3915
10026TIP3    H254274   0.461   4.072   7.459  0.6772 -0.3530  0.2010
10027TIP3   OH254275   3.913   6.375   2.530  0.4563  0.1019  0.3591
10027TIP3    H154276   3.819   6.386   2.546  0.3121 -0.3841 -0.1184
10027TIP3    H254277   3.924   6.397   2.438  0.5445 -1.3058  0.0035
10028TIP3   OH254278   0.539   4.800   9.905 -0.4288  0.2793  0.5722
10028TIP3    H154279   0.589   4.758   9.975 -0.2574 -1.7997 -0.6959
10028TIP3    H254280   0.471   4.850   9.950 -1.0607 -1.9226  2.2195
10029TIP3   OH254281   2.050   3.052   1.358 -0.0393 -0.0219 -0.1885
10029TIP3    H154282   2.066   3.046   1.452  0.7846 -0.4493 -0.3440
10029TIP3    H254283   2.027   3.143   1.342 -2.2390 -0.3431  0.7205
10030TIP3   OH254284   1.171   1.992   0.211 -0.1560 -0.2282 -0.2961
10030TIP3    H154285   1.114   1.953   0.145 -1.9019  1.2849  0.2222
10030TIP3    H254286   1.226   2.053   0.161 -2.5126  2.0654 -0.3045
10031TIP3   OH254287   2.918   5.534   8.100  0.1745 -0.5082  0.4536
10031TIP3    H154288   2.950   5.485   8.175 -1.1998  1.4464  2.4382
10031TIP3    H254289   2.947   5.624   8.116 -0.8583  0.1092 -0.9212
10032TIP3   OH254290   1.409   3.653   0.679  0.3446  0.4035 -0.2033
10032TIP3    H154291   1.376   3.741   0.698 -0.5706 -0.2157  1.3116
10032TIP3    H254292   1.501   3.655   0.704 -0.0139  0.5751  1.1945
10033TIP3   OH254293   0.027   5.018   8.521  0.0827  0.2706 -0.2651
10033TIP3    H154294   0.071   5.012   8.606 -0.3554  0.4693 -0.0178
10033TIP3    H254295   0.078   4.962   8.463  0.3112  0.0333  0.1632
10034TIP3   OH254296   1.566   0.345   0.379  0.4178 -0.0244 -0.3235
10034TIP3    H154297   1.562   0.299   0.463  0.5859  0.2716 -0.1528
10034TIP3    H254298   1.530   0.432   0.398 -0.6744 -0.3533 -0.8326
10035TIP3   OH254299   5.308   5.806   7.953  0.0320 -0.1381  0.3967
10035TIP3    H154300   5.356   5.813   7.870  2.0094  0.4286  1.5060
10035TIP3    H254301   5.313   5.714   7.976 -0.3882 -0.2706 -0.0299
10036TIP3   OH254302   2.588   7.594   1.701 -0.1533  0.0569 -0.2321
10036TIP3    H154303   2.634   7.672   1.671  2.0646 -0.1254  2.3070
10036TIP3    H254304   2.506   7.626   1.739  0.5658  1.1393  0.4563
10037TIP3   OH254305   4.203   3.533   1.174  0.4519 -0.1780 -0.0653
10037TIP3    H154306   4.268   3.587   1.220 -0.8278  1.0171  0.4012
10037TIP3    H254307   4.204   3.566   1.085  0.6886 -0.3756 -0.1391
10038TIP3   OH254308   2.407   2.965   7.384 -0.1394 -0.2083 -0.7719
10038TIP3    H154309   2.369   2.976   7.297  0.3347  1.2877 -0.8274
10038TIP3    H254310   2.332   2.970   7.444 -0.3413 -0.0525 -1.0364
10039TIP3   OH254311   2.665   7.250   7.981 -0.2177 -0.5041 -0.3154
10039TIP3    H154312   2.757   7.255   8.007 -0.5133 -1.5937  1.0251
10039TIP3    H254313   2.666   7.203   7.897  0.5168  0.4755 -0.8736
10040TIP3   OH254314   3.110   5.842   9.975 -0.5630  0.5695 -0.3723
10040TIP3    H154315   3.039   5.787   9.943 -0.9680  0.2188  1.0759
10040TIP3    H254316   3.068   5.925   9.997 -0.5048  0.4245  0.3111
10041TIP3   OH254317   6.224   7.081   8.297  0.5340 -0.2159 -0.6652
10041TIP3    H154318   6.276   7.002   8.286  0.1358 -0.2347 -2.7702
10041TIP3    H254319   6.221   7.120   8.210 -2.7591 -0.0929 -0.6129
10042TIP3   OH254320   4.487   4.509   9.664  0.2562 -0.2322  0.0786
10042TIP3    H154321   4.564   4.458   9.691  1.5338  1.6355  0.1066
10042TIP3    H254322   4.414   4.465   9.708  1.2470 -2.1443 -0.0519
10043TIP3   OH254323   0.623   7.566   8.979 -0.3755  0.6816 -0.2837
10043TIP3    H154324   0.655   7.587   8.892 -1.7268  1.2291 -0.6792
10043TIP3    H254325   0.684   7.501   9.012 -0.1880  0.0014 -1.8864
10044TIP3   OH254326   1.936   1.228   7.861 -0.0923 -0.5803 -0.2942
10044TIP3    H154327   1.930   1.132   7.864 -2.0387 -0.6400  5.0253
10044TIP3    H254328   2.021   1.245   7.820  1.4106 -4.7387  0.5262
10045TIP3   OH254329   2.585   2.231   8.939 -0.3699 -0.2362 -0.0382
10045TIP3    H154330   2.644   2.159   8.917  0.3790 -0.3999  2.2422
10045TIP3    H254331   2.638   2.310   8.927 -0.6943 -0.1560 -1.0057
10046TIP3   OH254332   1.437   0.777   7.652  0.0053  0.0279 -0.0373
10046TIP3    H154333   1.487   0.844   7.605  0.8583 -0.3277  0.3493
10046TIP3    H254334   1.405   0.719   7.583 -0.6773  0.7708 -0.3716
10047TIP3   OH254335   4.519   3.679   9.898  0.3104 -0.3874  0.0334
10047TIP3    H154336   4.456   3.751   9.891  0.5539 -0.1521  0.2225
10047TIP3    H254337   4.537   3.672   9.992  1.4597  0.3382 -0.1033
10048TIP3   OH254338   4.053   6.731   9.675 -0.4092 -0.2608  0.2580
10048TIP3    H154339   4.083   6.805   9.727 -1.3935 -0.6187  1.3769
10048TIP3    H254340   4.027   6.769   9.591 -0.8879  0.6495  0.8138
10049TIP3   OH254341   1.900   1.753   8.580 -0.6632 -0.3125 -0.6392
10049TIP3    H154342   1.983   1.706   8.578 -1.1136 -1.1211 -0.4706
10049TIP3    H254343   1.910   1.817   8.650 -0.5466 -1.0980  0.0693
10050TIP3   OH254344   3.825   3.243   7.814  0.4680 -0.3157  1.2826
10050TIP3    H154345   3.855   3.250   7.904  0.9662 -2.2276  1.3097
10050TIP3    H254346   3.771   3.164   7.812 -0.6995  0.4740  0.2006
10051TIP3   OH254347   6.830   2.165   0.230 -0.5921 -0.3468 -0.8281
10051TIP3    H154348   6.922   2.146   0.249 -0.2391 -0.4858 -2.5453
10051TIP3    H254349   6.800   2.092   0.177 -1.1345  0.6121 -1.8945
10052TIP3   OH254350   0.638   1.980   7.208  0.1119 -0.4138  0.3204
10052TIP3    H154351   0.650   2.030   7.289  3.0595 -2.4702  1.3148
10052TIP3    H254352   0.599   2.043   7.147  1.3283  2.3618  2.2052
10053TIP3   OH254353   5.768   5.867   0.819 -0.1452  0.0777  0.1516
10053TIP3    H154354   5.824   5.791   0.809  1.7338  1.3235  0.7278
10053TIP3    H254355   5.693   5.849   0.762  1.3252 -1.1791 -1.4934
10054TIP3   OH254356   5.979   7.176   8.897 -0.0799 -0.1888  0.1369
10054TIP3    H154357   5.906   7.208   8.845  0.0027  1.7493  1.1159
10054TIP3    H254358   6.046   7.245   8.890  1.7543 -1.9701 -0.8736
10055TIP3   OH254359   3.334   6.429   2.627 -0.3471 -0.0767 -0.1811
10055TIP3    H154360   3.338   6.505   2.685 -0.2756  0.2194 -0.5731
10055TIP3    H254361   3.326   6.354   2.686 -1.9630  0.3356  0.1882
10056TIP3   OH254362   0.535   6.112   9.977  0.0032  0.5292 -0.0487
10056TIP3    H154363   0.615   6.153  10.007 -0.2347  1.9354 -1.2411
10056TIP3    H254364   0.563   6.053   9.907  0.2599 -0.9134  1.2096
10057TIP3   OH254365   1.080   5.512   8.206 -0.2094 -0.4915  0.3555
10057TIP3    H154366   1.089   5.515   8.111 -0.3431 -1.3798  0.3109
10057TIP3    H254367   1.169   5.528   8.238 -0.6659  3.4051  0.2104
10058TIP3   OH254368   3.547   1.113   9.921 -0.0321  0.3373 -0.5775
10058TIP3    H154369   3.524   1.088  10.010  0.6720 -1.9668 -0.9725
10058TIP3    H254370   3.639   1.139   9.926  1.0685 -3.0022 -1.0697
10059TIP3   OH254371   5.223   5.215   8.666 -0.2207 -0.2634 -0.1128
10059TIP3    H154372   5.214   5.122   8.685 -0.4447 -0.0885  0.7188
10059TIP3    H254373   5.164   5.257   8.729 -1.3364  0.3534 -1.5142
10060TIP3   OH254374   0.333   2.126   9.439 -0.1434 -0.2026 -0.2346
10060TIP3    H154375   0.406   2.094   9.386  0.3029  0.1908  0.1405
10060TIP3    H254376   0.257   2.118   9.382  0.4877  1.2675 -1.3425
10061TIP3   OH254377   4.849   3.166   1.255  0.2385  0.5172 -0.5048
10061TIP3    H154378   4.866   3.077   1.284  0.5608  0.9218  0.6264
10061TIP3    H254379   4.935   3.207   1.252  0.0657  0.8698 -0.7207
10062TIP3   OH254380   2.614   6.852   8.981 -0.3727 -0.2971 -0.0684
10062TIP3    H154381   2.676   6.925   8.980 -0.7864  0.0699  0.5340
10062TIP3    H254382   2.608   6.824   8.890  0.1888  0.0810 -0.2260
10063TIP3   OH254383   7.400   6.033   1.704  0.8370 -0.6225  0.4064
10063TIP3    H154384   7.440   5.956   1.745  0.2074 -0.3261  1.6227
10063TIP3    H254385   7.414   6.104   1.766 -1.8988 -0.5971  1.1342
10064TIP3   OH254386   4.601   1.550   7.348 -0.1954 -0.0087 -0.3545
10064TIP3    H154387   4.657   1.529   7.274 -0.4347 -1.3901 -0.1824
10064TIP3    H254388   4.552   1.627   7.321  1.6984  1.2141 -0.5381
10065TIP3   OH254389   2.675   3.264   8.057 -0.0126 -0.3133  0.0410
10065TIP3    H154390   2.758   3.218   8.067 -0.7224 -1.4844  0.6950
10065TIP3    H254391   2.679   3.302   7.969  2.3474  2.0223  1.0523
10066TIP3   OH254392   2.841   0.406   1.475  0.6799  0.5080  0.6225
10066TIP3    H154393   2.918   0.362   1.438  0.8341  1.6240 -0.4650
10066TIP3    H254394   2.868   0.498   1.482 -0.4030  0.8335  0.6525
10067TIP3   OH254395   2.036   4.248   6.746 -0.0856 -0.0477  0.5175
10067TIP3    H154396   2.099   4.178   6.728 -0.4220 -0.3896  0.6590
10067TIP3    H254397   1.968   4.236   6.681  0.5656  1.0534 -0.4042
10068TIP3   OH254398   7.339   3.061   9.843 -0.0768  0.6503  0.2282
10068TIP3    H154399   7.415   3.044   9.787 -0.2208  0.8373 -0.0256
10068TIP3    H254400   7.264   3.032   9.791 -0.2144  0.8518  0.3140
10069TIP3   OH254401   2.240   2.401   8.430 -0.4980  0.2486  0.0613
10069TIP3    H154402   2.185   2.432   8.502 -0.1580  0.4919  0.2155
10069TIP3    H254403   2.198   2.436   8.351 -1.2538 -0.5734  0.0816
10070TIP3   OH254404   6.917   4.920   9.157  0.1511  0.4625 -0.3151
10070TIP3    H154405   6.878   4.964   9.081 -3.0198 -0.5433  0.5976
10070TIP3    H254406   6.932   4.830   9.128 -0.1161  0.3333 -0.0570
10071TIP3   OH254407   2.765   1.035   8.075  0.2257 -0.1799 -0.0815
10071TIP3    H154408   2.801   0.953   8.043  1.4142  0.7171 -1.1115
10071TIP3    H254409   2.837   1.077   8.122  0.0969  0.9262 -0.8214
10072TIP3   OH254410   7.049   0.124   0.738 -0.7735  0.4384  0.2097
10072TIP3    H154411   7.098   0.156   0.662 -0.2664 -1.4843 -0.3387
10072TIP3    H254412   7.116   0.087   0.796 -1.4548 -1.7401 -0.3019
10073TIP3   OH254413   2.897   2.300   7.772  0.2337 -0.2587  0.3065
10073TIP3    H154414   2.893   2.293   7.676  1.5404 -0.9740  0.2737
10073TIP3    H254415   2.985   2.334   7.790 -0.3651  0.8452  1.2239
10074TIP3   OH254416   5.944   4.324   1.555 -0.0680 -0.2430  0.5671
10074TIP3    H154417   5.878   4.316   1.624 -0.3181 -0.4072  0.3106
10074TIP3    H254418   6.007   4.387   1.590 -0.8403  0.6318  0.4504
10075TIP3   OH254419   5.505   4.200   8.060 -0.2041 -0.0051  0.3118
10075TIP3    H154420   5.466   4.285   8.081  1.6603  0.7023  1.0962
10075TIP3    H254421   5.513   4.200   7.965  2.6903  2.1580  0.4088
10076TIP3   OH254422   0.155   4.953   2.652  0.2522 -0.5449 -0.1577
10076TIP3    H154423   0.231   4.914   2.695  1.1774  0.7177 -0.5919
10076TIP3    H254424   0.192   5.012   2.587 -1.1080 -1.5531 -1.9551
10077TIP3   OH254425   6.260   5.072   0.177 -0.1290  0.2009  0.1327
10077TIP3    H154426   6.318   4.998   0.191 -0.2893 -0.0103 -0.2838
10077TIP3    H254427   6.205   5.046   0.103 -1.6335 -0.1504  1.3157
10078TIP3   OH254428   6.393   4.162   0.053 -0.0420 -0.5325  0.6986
10078TIP3    H154429   6.332   4.221   0.098 -0.3606 -0.6738  0.4562
10078TIP3    H254430   6.461   4.220   0.019  0.5484 -0.4901  1.9045
10079TIP3   OH254431   0.094   6.597   0.929 -0.2400  0.0599  0.3219
10079TIP3    H154432   0.185   6.613   0.956 -0.9399  1.8133  1.8272
10079TIP3    H254433   0.057   6.543   0.999 -0.8911  1.0356  0.7464
10080TIP3   OH254434   5.454   4.607   9.629 -0.2666 -0.0838 -0.0423
10080TIP3    H154435   5.509   4.575   9.558 -0.5611 -0.9837  0.1242
10080TIP3    H254436   5.380   4.649   9.585  0.5070  1.1007 -0.2666
10081TIP3   OH254437   3.911   7.189   8.854 -0.4836 -0.1456  0.1341
10081TIP3    H154438   3.835   7.209   8.907 -0.7533  1.3548 -0.7511
10081TIP3    H254439   3.917   7.094   8.854 -0.1518 -0.2011  3.2295
10082TIP3   OH254440   6.405   2.363   8.849 -0.1617 -0.0735 -0.3184
10082TIP3    H154441   6.435   2.317   8.928 -2.0618 -1.6697 -0.4516
10082TIP3    H254442   6.322   2.404   8.875 -1.1346 -1.1417 -1.6083
10083TIP3   OH254443   1.177   5.252   2.363 -0.1185 -0.1539  0.3521
10083TIP3    H154444   1.195   5.239   2.270  1.6073 -0.6785  0.7240
10083TIP3    H254445   1.171   5.163   2.399  0.5775  0.0370  0.9627
10084TIP3   OH254446   0.652   5.218   1.431 -0.1820  0.3669  0.1706
10084TIP3    H154447   0.634   5.170   1.512 -1.6355  0.4708 -0.0513
10084TIP3    H254448   0.607   5.167   1.363  1.2011  0.1576 -0.6276
10085TIP3   OH254449   2.365   2.151   1.688  0.0559  0.3245  0.3684
10085TIP3    H154450   2.340   2.189   1.604 -1.9470  1.0796  1.2380
10085TIP3    H254451   2.460   2.139   1.682  0.1707  1.7282 -1.4354
10086TIP3   OH254452   6.847   0.819   0.932 -0.6222  0.4212  0.3691
10086TIP3    H154453   6.793   0.740   0.939  0.7634 -0.6005 -0.0685
10086TIP3    H254454   6.872   0.824   0.840  1.4485 -0.1522  0.8383
10087TIP3   OH254455   1.459   6.217   9.583  0.0793 -0.1398 -0.5125
10087TIP3    H154456   1.547   6.179   9.575  0.7879  1.4992 -0.8518
10087TIP3    H254457   1.458   6.288   9.520 -0.1291  2.2919  2.0315
10088TIP3   OH254458   0.179   6.949   0.860  0.4904  0.2605 -0.1874
10088TIP3    H154459   0.233   6.935   0.782  0.7030 -0.0379  0.0124
10088TIP3    H254460   0.164   6.861   0.895 -0.0399  0.3489 -0.1835
10089TIP3   OH254461   2.600   1.980   0.675  0.1385 -0.0018  0.2780
10089TIP3    H154462   2.566   2.068   0.691 -1.4809 -0.2417 -1.4691
10089TIP3    H254463   2.695   1.990   0.677  0.0059  1.3440  2.2024
10090TIP3   OH254464   1.077   5.314   8.881  0.4065  0.6229 -0.3809
10090TIP3    H154465   1.038   5.373   8.817 -0.3580  0.6640  0.1178
10090TIP3    H254466   1.101   5.371   8.955 -0.6393  0.2705  0.2417
10091TIP3   OH254467   2.970   1.116   9.019 -0.4125 -0.0800  0.2925
10091TIP3    H154468   2.903   1.098   8.952  0.2824  0.4083 -0.5547
10091TIP3    H254469   2.967   1.040   9.076 -1.8604  0.0353  0.4201
10092TIP3   OH254470   5.070   6.867   8.426 -0.1731 -0.1629  0.1127
10092TIP3    H154471   5.026   6.796   8.381 -0.3161 -0.6184  0.9433
10092TIP3    H254472   5.000   6.926   8.452  0.0688  1.0493 -1.8262
10093TIP3   OH254473   0.616   5.647   9.465 -0.6645 -0.0122  0.1340
10093TIP3    H154474   0.531   5.685   9.447 -0.6797 -0.1322 -0.0471
10093TIP3    H254475   0.628   5.658   9.560 -1.3078 -0.8642  0.3243
10094TIP3   OH254476   0.428   7.164   9.308  0.1057  0.3298  0.4039
10094TIP3    H154477   0.521   7.149   9.289  0.2503 -1.0026  1.9513
10094TIP3    H254478   0.421   7.258   9.322  0.7808  0.7739 -1.7659
10095TIP3   OH254479   4.564   7.229   8.919  0.2877 -0.0523 -0.0753
10095TIP3    H154480   4.579   7.241   9.013 -0.0790  0.2667 -0.0532
10095TIP3    H254481   4.470   7.241   8.909  0.3513  0.0847 -0.5091
10096TIP3   OH254482   0.603   4.261   1.337 -0.2988  0.1167 -0.1653
10096TIP3    H154483   0.670   4.256   1.269 -0.0341 -0.2759  0.1145
10096TIP3    H254484   0.653   4.274   1.418 -0.4704 -1.2625  0.1847
10097TIP3   OH254485   1.368   7.038   1.616  0.4041  0.0543  0.2435
10097TIP3    H154486   1.398   6.955   1.654 -2.1620 -1.2498 -0.3354
10097TIP3    H254487   1.393   7.032   1.524  1.2237  0.4696  0.4289
10098TIP3   OH254488   3.299   6.934   0.365 -0.1607 -0.0584 -0.5993
10098TIP3    H154489   3.330   6.847   0.341 -0.4356  0.2238 -2.0595
10098TIP3    H254490   3.338   6.951   0.451  1.0344 -1.0416 -0.9257
10099TIP3   OH254491   1.268   5.373   0.607 -0.7989  0.2216 -0.4142
10099TIP3    H154492   1.235   5.312   0.541 -2.6887 -0.4941  1.0905
10099TIP3    H254493   1.362   5.378   0.590 -0.9380 -1.3967 -1.9693
10100TIP3   OH254494   2.561   3.636   2.752  0.2057  0.6971  0.1672
10100TIP3    H154495   2.586   3.729   2.755 -2.3656  1.5509 -1.4046
10100TIP3    H254496   2.528   3.618   2.840  0.5535  1.3252  0.4373
10101TIP3   OH254497   2.434   3.622   0.532  0.8637 -0.2006 -0.2375
10101TIP3    H154498   2.467   3.694   0.585 -0.7966 -0.4062  1.1650
10101TIP3    H254499   2.484   3.545   0.561  2.6425  0.3150 -1.7434
10102TIP3   OH254500   6.060   4.476   8.551  0.0251  0.0213  0.5211
10102TIP3    H154501   6.016   4.393   8.568 -1.3177  0.8514  1.2643
10102TIP3    H254502   6.150   4.451   8.527 -0.8425 -1.7333 -1.1950
10103TIP3   OH254503   4.624   4.823   8.198  0.3634 -0.3389  0.2941
10103TIP3    H154504   4.550   4.883   8.193  0.0650 -0.7372 -0.1992
10103TIP3    H254505   4.624   4.792   8.288  0.0055 -0.2361  0.3324
10104TIP3   OH254506   1.469   6.728   1.922 -0.1024 -0.5364 -0.2165
10104TIP3    H154507   1.424   6.726   1.838  1.8898 -0.5107 -1.3568
10104TIP3    H254508   1.496   6.638   1.937  1.1533 -0.2558 -0.5869
10105TIP3   OH254509   7.099   7.137   0.375  0.4704 -0.4959 -0.5299
10105TIP3    H154510   7.189   7.106   0.368 -0.0316 -1.9558 -1.0080
10105TIP3    H254511   7.097   7.218   0.324  1.0507 -1.5468 -2.3227
10106TIP3   OH254512   5.766   3.412   0.676 -0.1949 -0.1389 -0.1256
10106TIP3    H154513   5.793   3.323   0.654  0.7616 -0.3370  1.6675
10106TIP3    H254514   5.747   3.453   0.592  1.2391 -1.4426 -1.1333
10107TIP3   OH254515   7.636   6.550   1.989 -0.4896 -0.2967 -0.0653
10107TIP3    H154516   7.613   6.485   2.056  0.9122  0.1457  0.8784
10107TIP3    H254517   7.672   6.498   1.917 -1.7778 -0.7542 -0.4203
10108TIP3   OH254518   3.074   1.818   9.572 -0.2556  0.1916  0.3761
10108TIP3    H154519   3.107   1.908   9.571 -0.0737  0.1303 -0.7643
10108TIP3    H254520   3.039   1.806   9.660  0.3037  1.1645  0.7437
10109TIP3   OH254521   4.372   4.457   0.282 -0.1688 -0.0004  0.4392
10109TIP3    H154522   4.351   4.536   0.331 -2.2100 -0.4775  0.4320
10109TIP3    H254523   4.402   4.395   0.348  0.0824  0.3224  0.6347
10110TIP3   OH254524   1.780   4.433   0.107 -0.1206  0.2922  0.2122
10110TIP3    H154525   1.716   4.495   0.072 -0.3486 -0.0238  0.0701
10110TIP3    H254526   1.863   4.482   0.107 -0.2569  0.5255 -0.0982
10111TIP3   OH254527   7.225   0.902   8.115  0.2484 -0.0875  0.9395
10111TIP3    H154528   7.202   0.913   8.022 -0.4042  0.6197  1.1646
10111TIP3    H254529   7.230   0.808   8.128  0.7919 -0.1849  0.0835
10112TIP3   OH254530   4.140   4.688   9.738  0.0769 -0.2410  0.3174
10112TIP3    H154531   4.189   4.615   9.776  1.7957  1.1948  0.9894
10112TIP3    H254532   4.207   4.750   9.710 -1.3175  0.7303 -0.9902
10113TIP3   OH254533   0.440   2.726   9.373 -0.0755  0.6769  0.1994
10113TIP3    H154534   0.446   2.819   9.395 -0.9185  0.5955  0.8025
10113TIP3    H254535   0.421   2.682   9.456  1.5095 -0.1874  0.1485
10114TIP3   OH254536   2.113   3.559   8.881 -0.2961  0.1851  0.7067
10114TIP3    H154537   2.152   3.547   8.795 -0.3906 -0.8497  0.7920
10114TIP3    H254538   2.180   3.528   8.942 -0.4661  0.3217  0.9651
10115TIP3   OH254539   0.003   0.225   8.081 -0.0587 -0.5299  0.2601
10115TIP3    H154540   0.077   0.235   8.142 -0.6424  0.0218  0.8961
10115TIP3    H254541   0.040   0.180   8.006  0.7357 -1.0314  0.9333
10116TIP3   OH254542   0.463   6.321   0.417  0.4535  0.3813 -0.3893
10116TIP3    H154543   0.550   6.291   0.445  0.9722  1.7320 -0.4497
10116TIP3    H254544   0.454   6.286   0.328  1.1935  0.6998 -0.6034
10117TIP3   OH254545   1.161   5.526   1.094 -0.2376  0.4959  0.0331
10117TIP3    H154546   1.210   5.588   1.041 -0.0359  0.1010 -0.2491
10117TIP3    H254547   1.132   5.459   1.032  0.1233 -0.0445  0.4383
10118TIP3   OH254548   1.878   3.686   8.085  0.4810 -0.3589  0.4062
10118TIP3    H154549   1.851   3.627   8.156 -0.5813 -0.1811  0.1689
10118TIP3    H254550   1.849   3.772   8.113 -0.1944 -0.3266 -0.3534
10119TIP3   OH254551   6.758   1.216   8.042  0.0472 -0.6629 -0.0683
10119TIP3    H154552   6.840   1.169   8.055  1.0849  1.1878  0.5714
10119TIP3    H254553   6.785   1.303   8.011 -1.5748  0.3545  1.1629
10120TIP3   OH254554   1.577   4.230   1.924  0.2760 -0.4367  0.1748
10120TIP3    H154555   1.610   4.209   1.837  0.5575  2.9109 -0.6639
10120TIP3    H254556   1.644   4.287   1.963 -1.3257  0.9009  1.1768
10121TIP3   OH254557   1.176   1.176   7.313 -0.2284 -0.0742 -0.2593
10121TIP3    H154558   1.148   1.261   7.281 -1.9885  1.4193  4.3338
10121TIP3    H254559   1.117   1.114   7.271 -1.1494  1.3919 -1.2185
10122TIP3   OH254560   7.019   4.067   8.821  0.1898 -0.7398  0.2626
10122TIP3    H154561   7.106   4.027   8.812 -0.0201 -1.0772 -0.3504
10122TIP3    H254562   6.958   3.993   8.821 -0.2069 -0.4371 -0.8898
10123TIP3   OH254563   2.126   2.870   0.584  0.2109 -0.1185  0.3089
10123TIP3    H154564   2.142   2.923   0.662  1.1012  2.4406 -1.4869
10123TIP3    H254565   2.198   2.892   0.525 -0.8388 -1.3877 -1.5316
10124TIP3   OH254566   6.957   1.656   7.682 -0.2297  0.8740  0.5312
10124TIP3    H154567   6.933   1.722   7.748 -0.7892  0.9318  0.2717
10124TIP3    H254568   6.908   1.681   7.604 -0.8542 -0.1449  0.5756
10125TIP3   OH254569   1.038   1.435   7.236 -0.3246  0.3982 -0.5264
10125TIP3    H154570   1.028   1.384   7.155 -0.1473 -2.2145  0.9746
10125TIP3    H254571   1.076   1.518   7.208 -1.7116  0.2134 -3.2733
10126TIP3   OH254572   4.774   5.138   7.263  0.0425  0.3116  0.5294
10126TIP3    H154573   4.697   5.146   7.208  0.5427  1.2790 -0.0549
10126TIP3    H254574   4.768   5.050   7.301  0.2439 -0.8541 -1.9246
10127TIP3   OH254575   0.560   0.432   7.657 -0.2048  0.4501 -0.3077
10127TIP3    H154576   0.643   0.389   7.676 -0.1492  0.2747 -0.9370
10127TIP3    H254577   0.549   0.495   7.729  0.0906 -0.0617  0.1904
10128TIP3   OH254578   1.119   4.313   2.007 -0.0260  0.0005 -0.2606
10128TIP3    H154579   1.171   4.250   1.958  0.1134  1.6909 -2.4467
10128TIP3    H254580   1.171   4.331   2.086  0.3016 -1.9338  0.0036
10129TIP3   OH254581   1.720   0.929   2.459  0.0150  0.3488 -0.0470
10129TIP3    H154582   1.780   0.962   2.526  0.7800 -1.8469  0.4327
10129TIP3    H254583   1.633   0.935   2.499  0.6234 -2.7701  2.0630
10130TIP3   OH254584   1.930   4.886   6.155  0.2247 -0.4914  0.1054
10130TIP3    H154585   1.892   4.973   6.165 -0.0234 -0.5455 -0.3400
10130TIP3    H254586   1.863   4.835   6.109  1.0779 -0.3999 -1.2910
10131TIP3   OH254587   4.696   0.999   2.429 -0.3653 -0.5674 -0.2410
10131TIP3    H154588   4.749   0.994   2.508 -0.0689 -0.1121 -0.4061
10131TIP3    H254589   4.687   0.908   2.400  0.0466 -0.6772 -0.0326
10132TIP3   OH254590   0.851   6.634   7.943 -0.2209 -0.0954  0.5673
10132TIP3    H154591   0.929   6.683   7.970  1.0934 -0.9342 -1.4593
10132TIP3    H254592   0.859   6.550   7.987 -0.4497  0.1332  1.0486
10133TIP3   OH254593   5.258   1.277   8.792  0.0982  0.4230 -0.8443
10133TIP3    H154594   5.284   1.192   8.755  0.8217 -0.6648  1.8999
10133TIP3    H254595   5.340   1.325   8.800  0.7637 -0.9653  2.8891
10134TIP3   OH254596   5.202   0.882   7.934 -0.3824 -0.5987 -0.0825
10134TIP3    H154597   5.248   0.868   8.017 -0.0740  0.4453 -0.0640
10134TIP3    H254598   5.208   0.976   7.918  1.9722 -1.0365 -2.6526
10135TIP3   OH254599   3.391   5.566   9.974 -0.1366  0.2486  0.6269
10135TIP3    H154600   3.328   5.497   9.995  0.0533  0.1686  0.9422
10135TIP3    H254601   3.430   5.589  10.058  0.7726 -0.2077  0.3429
10136TIP3   OH254602   2.922   4.653   0.482 -0.4496 -0.1132  1.0030
10136TIP3    H154603   3.012   4.685   0.489 -0.4296  0.8283 -1.9587
10136TIP3    H254604   2.924   4.566   0.521  1.8638 -0.2958  0.6382
10137TIP3   OH254605   3.110   2.259   8.390 -0.4220  0.7752 -0.5271
10137TIP3    H154606   3.204   2.278   8.395 -0.3020  0.0466  0.3470
10137TIP3    H254607   3.102   2.169   8.422 -1.6009  1.3865  1.0100
10138TIP3   OH254608   1.600   5.240   8.974 -0.3281 -0.0359  0.4423
10138TIP3    H154609   1.651   5.163   8.949 -1.5052 -0.0237 -2.2634
10138TIP3    H254610   1.562   5.216   9.059  1.3663 -1.3904  0.8704
10139TIP3   OH254611   1.098   6.534   8.562 -0.3183 -0.2080  0.2953
10139TIP3    H154612   1.088   6.611   8.618 -1.8138  0.4414 -0.7748
10139TIP3    H254613   1.059   6.463   8.612  0.0900 -0.0461  0.8525
10140TIP3   OH254614   2.644   1.858   1.853 -0.1476 -0.0218  0.4392
10140TIP3    H154615   2.554   1.870   1.823 -0.0328  0.0800  0.1283
10140TIP3    H254616   2.639   1.791   1.921 -0.3478 -0.6328 -0.1744
10141TIP3   OH254617   7.511   0.108   7.217 -0.1426  0.6877 -0.5100
10141TIP3    H154618   7.470   0.035   7.264  0.6527  0.4703 -0.1439
10141TIP3    H254619   7.587   0.069   7.175  0.0206  1.2106 -0.7021
10142TIP3   OH254620   3.260   1.986   0.883  0.1255  0.5311  0.5479
10142TIP3    H154621   3.187   1.938   0.922 -0.3052  1.0715  0.4293
10142TIP3    H254622   3.328   1.986   0.950 -0.2600  0.6442  0.9476
10143TIP3   OH254623   6.558   1.458   0.349  0.2097  0.0029  0.2769
10143TIP3    H154624   6.565   1.364   0.334 -0.5766  0.0513 -0.4723
10143TIP3    H254625   6.612   1.497   0.280  0.4052  0.1087  0.4883
10144TIP3   OH254626   7.490   4.759   9.328  0.6107  0.1076 -0.1485
10144TIP3    H154627   7.488   4.666   9.347  0.5839  0.1193 -0.0944
10144TIP3    H254628   7.409   4.775   9.279 -0.0038  0.3321  0.9004
10145TIP3   OH254629   0.046   3.542   8.376 -0.9566 -0.4426  0.5229
10145TIP3    H154630   0.047   3.597   8.454 -0.6909 -0.9786  0.8925
10145TIP3    H254631   0.123   3.486   8.384 -0.3729  0.1615 -0.5954
10146TIP3   OH254632   5.809   4.635   9.249 -0.4874 -0.8648 -0.0052
10146TIP3    H154633   5.882   4.575   9.235  0.5712  0.0241  1.4825
10146TIP3    H254634   5.833   4.714   9.200  0.0288 -0.2186  1.2646
10147TIP3   OH254635   4.091   6.900   7.944  0.7297  0.3352  0.0619
10147TIP3    H154636   4.160   6.966   7.937  0.2739  0.7604 -0.5281
10147TIP3    H254637   4.117   6.831   7.884  0.7857  0.3644  0.0526
10148TIP3   OH254638   1.752   5.655   1.105 -0.2153 -0.4078  0.2403
10148TIP3    H154639   1.669   5.674   1.149  0.4371 -2.5902  2.7022
10148TIP3    H254640   1.819   5.678   1.170  0.9119 -1.8574 -0.3420
10149TIP3   OH254641   0.978   0.918   7.014 -0.1177 -0.5587 -0.2032
10149TIP3    H154642   1.044   0.920   6.945 -1.3909  1.2536 -1.4997
10149TIP3    H254643   0.959   0.826   7.027  2.6803 -1.1402  0.2859
10150TIP3   OH254644   1.293   3.293   9.603 -0.0166  0.0585 -0.2091
10150TIP3    H154645   1.311   3.356   9.533  1.5808  0.1805  0.2738
10150TIP3    H254646   1.313   3.342   9.684  0.9377 -0.9443  0.1844
10151TIP3   OH254647   3.619   6.524   0.164  0.5870  0.0236 -0.2848
10151TIP3    H154648   3.709   6.496   0.146  1.7007  3.4224 -0.5828
10151TIP3    H254649   3.574   6.514   0.080  0.7151 -1.4114 -0.2093
10152TIP3   OH254650   4.786   0.408   1.212  0.2043 -0.2675  0.1802
10152TIP3    H154651   4.845   0.413   1.136 -1.1485  1.1229 -0.8260
10152TIP3    H254652   4.845   0.398   1.287  1.5978 -1.2607 -0.9820
10153TIP3   OH254653   6.064   3.802   9.104  0.0253  0.2681 -0.0999
10153TIP3    H154654   6.020   3.786   9.020  0.0474  0.9425 -0.2457
10153TIP3    H254655   6.018   3.878   9.141  0.1483  0.0984  0.4056
10154TIP3   OH254656   2.874   3.711   9.168  0.1692  0.0640 -0.0014
10154TIP3    H154657   2.846   3.648   9.234  0.2748  0.4213  0.3860
10154TIP3    H254658   2.833   3.680   9.087 -0.1262 -0.2620  0.2697
10155TIP3   OH254659   3.547   5.040   8.955 -0.3537  0.0288 -0.2289
10155TIP3    H154660   3.486   5.012   8.887  1.1807  0.3576 -1.8152
10155TIP3    H254661   3.561   5.133   8.939 -1.3050  0.5463  1.6784
10156TIP3   OH254662   1.759   7.227   1.683 -0.1373  0.4052  0.4128
10156TIP3    H154663   1.730   7.188   1.600 -1.1439 -2.3175  1.8904
10156TIP3    H254664   1.854   7.216   1.683 -0.3721 -2.2608  0.7528
10157TIP3   OH254665   2.773   5.311   1.416 -0.4980  0.4405  0.1903
10157TIP3    H154666   2.868   5.318   1.424 -0.5533 -0.1254  1.7088
10157TIP3    H254667   2.756   5.217   1.413 -1.1811  0.3556  3.4398
10158TIP3   OH254668   0.066   5.512   1.753 -0.4832 -0.3238  0.0479
10158TIP3    H154669  -0.029   5.527   1.757 -0.7252 -1.7998  0.2776
10158TIP3    H254670   0.083   5.497   1.660 -0.3164  0.7315 -0.1127
10159TIP3   OH254671   7.576   0.990   9.400  0.1284  0.2027  0.3959
10159TIP3    H154672   7.566   0.895   9.404 -1.0235  0.3399  1.0433
10159TIP3    H254673   7.531   1.023   9.478  1.8875  1.1880  1.0553
10160TIP3   OH254674   6.663   2.134   0.721 -0.2909 -0.4899  0.2862
10160TIP3    H154675   6.702   2.221   0.713 -0.9629 -0.1710  0.3430
10160TIP3    H254676   6.715   2.078   0.663  0.1082 -0.0320  0.2026
10161TIP3   OH254677   4.795   4.206   1.414  0.0130  0.1695  0.1070
10161TIP3    H154678   4.755   4.211   1.327  1.8617  0.8044 -0.7588
10161TIP3    H254679   4.722   4.188   1.473 -1.5925  1.6796 -1.3154
10162TIP3   OH254680   6.590   3.692   8.801  0.4058  0.2915  0.3208
10162TIP3    H154681   6.555   3.764   8.854  0.0128 -0.8652  1.6768
10162TIP3    H254682   6.520   3.671   8.739 -0.7862 -1.0144  2.0292
10163TIP3   OH254683   1.951   3.020   9.439 -0.1011 -0.3051 -0.6553
10163TIP3    H154684   1.986   2.992   9.524  0.4644  2.0044 -0.0599
10163TIP3    H254685   1.875   2.963   9.426  1.0608 -2.1998  0.3095
10164TIP3   OH254686   4.550   6.812   1.908 -0.0872 -0.4569  0.1675
10164TIP3    H154687   4.475   6.762   1.876 -0.4194  0.6790 -0.8972
10164TIP3    H254688   4.575   6.868   1.834  2.2677 -1.2932  0.2319
10165TIP3   OH254689   3.348   3.905   8.787  0.7902 -0.4039 -0.1957
10165TIP3    H154690   3.368   3.982   8.839 -0.5701  0.4559 -0.8897
10165TIP3    H254691   3.424   3.894   8.730  0.9839  0.4483 -0.1149
10166TIP3   OH254692   0.166   3.871   0.513 -0.7439 -0.4285 -0.5986
10166TIP3    H154693   0.198   3.959   0.490 -3.5071  0.7296 -0.4188
10166TIP3    H254694   0.138   3.834   0.429 -1.7048 -0.1853 -0.3928
10167TIP3   OH254695   4.282   3.224   8.808  0.0453 -0.2121  0.1786
10167TIP3    H154696   4.251   3.267   8.729  2.4476 -0.6903 -1.1087
10167TIP3    H254697   4.358   3.275   8.835 -0.4315 -0.3677  1.9129
10168TIP3   OH254698   0.510   7.403   1.131 -0.5659 -0.4454  0.0236
10168TIP3    H154699   0.483   7.313   1.147  0.8379 -0.8850  0.0603
10168TIP3    H254700   0.572   7.397   1.059  0.3430  0.3505  0.7175
10169TIP3   OH254701   5.617   6.044   8.861  0.4280  0.3381 -0.3927
10169TIP3    H154702   5.661   6.100   8.926  0.9756  1.3772 -1.6133
10169TIP3    H254703   5.564   6.104   8.809  0.0884 -0.4605 -0.9895
10170TIP3   OH254704   6.309   6.829   8.213  0.6525  0.0575 -0.2194
10170TIP3    H154705   6.329   6.788   8.129  0.0734 -1.4010  0.3205
10170TIP3    H254706   6.267   6.760   8.264 -0.5003  1.3804  0.6993
10171TIP3   OH254707   7.574   4.365   8.171 -0.1093 -0.1513 -0.6699
10171TIP3    H154708   7.529   4.359   8.087  1.9297 -0.0418 -1.8048
10171TIP3    H254709   7.653   4.313   8.162 -0.2714 -0.9014  1.5117
10172TIP3   OH254710   4.893   3.123   0.963 -0.5787  0.2287 -0.3733
10172TIP3    H154711   4.820   3.085   0.914 -1.4754  0.5460  0.6716
10172TIP3    H254712   4.867   3.214   0.978 -1.5111 -0.4321  2.7546
10173TIP3   OH254713   2.979   6.780   2.017  0.3595 -0.1282 -0.7974
10173TIP3    H154714   2.969   6.870   2.048  0.8128  0.0715 -1.2305
10173TIP3    H254715   3.035   6.786   1.940  1.0198 -0.8604 -0.3928
10174TIP3   OH254716   6.218   7.550   9.908 -1.0769 -0.1654 -0.3961
10174TIP3    H154717   6.125   7.557   9.887 -0.9201 -1.7362 -1.8272
10174TIP3    H254718   6.262   7.543   9.823  0.5025  1.6411  0.1946
10175TIP3   OH254719   2.960   1.807   0.233 -0.1034 -0.2170 -0.4241
10175TIP3    H154720   2.875   1.844   0.206 -0.3954 -1.3375 -1.1079
10175TIP3    H254721   3.019   1.883   0.238 -1.1670  0.6102  0.2291
10176TIP3   OH254722   2.816   4.873   9.389 -0.1048  0.3504  0.1888
10176TIP3    H154723   2.902   4.877   9.348  0.8363 -1.0143  1.9030
10176TIP3    H254724   2.757   4.844   9.320  1.3812 -1.6856 -0.2947
10177TIP3   OH254725   1.918   5.920   7.506  0.6133 -0.4660  0.0075
10177TIP3    H154726   1.869   5.947   7.428  0.7435 -0.2024  0.0145
10177TIP3    H254727   1.924   5.825   7.499 -0.2374 -0.5374  0.2087
10178TIP3   OH254728   2.261   6.379   1.654 -0.2164  0.0611 -0.0740
10178TIP3    H154729   2.318   6.327   1.711  1.7493  0.6545 -1.4184
10178TIP3    H254730   2.315   6.452   1.625 -1.3283  0.1075 -2.2414
10179TIP3   OH254731   0.422   2.532   2.014  0.3709  0.1198 -0.3660
10179TIP3    H154732   0.463   2.460   2.060 -1.5064  0.2049  1.5871
10179TIP3    H254733   0.337   2.499   1.987  0.5311  0.8033 -1.8571
10180TIP3   OH254734   1.807   2.482   1.730 -0.4652 -0.3561  0.4059
10180TIP3    H154735   1.845   2.567   1.704  1.9220 -1.8492 -1.4295
10180TIP3    H254736   1.814   2.481   1.826 -0.3667  1.4240  0.4535
10181TIP3   OH254737   0.480   0.071   0.221  0.1296  0.2741 -0.0295
10181TIP3    H154738   0.422   0.124   0.167 -0.2432 -0.9461 -0.8675
10181TIP3    H254739   0.569   0.095   0.193 -0.0508 -0.0020 -0.8550
10182TIP3   OH254740   3.509   4.868   2.355  0.0829  0.2891 -0.4498
10182TIP3    H154741   3.449   4.895   2.424  0.7613  0.6513 -0.0035
10182TIP3    H254742   3.589   4.917   2.370  0.7282 -0.6582 -0.6667
10183TIP3   OH254743   1.587   2.342   6.968 -0.1482  0.0351 -0.2766
10183TIP3    H154744   1.613   2.386   6.887 -2.1774 -0.5972 -1.3510
10183TIP3    H254745   1.510   2.392   6.998  0.5814  0.2660  1.2984
10184TIP3   OH254746   3.048   1.362   9.149  0.1658 -0.0002  0.6788
10184TIP3    H154747   3.030   1.272   9.123 -1.2096  0.3374  0.4228
10184TIP3    H254748   3.093   1.401   9.074 -1.9642  0.3785 -0.4725
10185TIP3   OH254749   0.410   6.172   1.557 -0.7369  0.0304 -0.2081
10185TIP3    H154750   0.354   6.096   1.568 -2.1780  0.9897 -0.7051
10185TIP3    H254751   0.453   6.158   1.473 -1.5364  0.0918 -0.6342
10186TIP3   OH254752   2.397   0.574   0.059 -0.0550  0.2662  0.2643
10186TIP3    H154753   2.467   0.509   0.056 -0.1342  0.1204  1.3856
10186TIP3    H254754   2.400   0.609   0.147 -1.9467 -0.3555  0.6156
10187TIP3   OH254755   4.856   1.879   7.614  0.0683 -0.4824  0.0959
10187TIP3    H154756   4.763   1.898   7.618 -0.0164 -0.8656  0.0376
10187TIP3    H254757   4.879   1.889   7.521 -0.0507 -0.9851  0.0079
10188TIP3   OH254758   0.472   0.090   7.929  0.5843  0.6070 -0.3611
10188TIP3    H154759   0.429   0.081   7.845  0.2819 -0.4205 -0.1054
10188TIP3    H254760   0.525   0.011   7.938 -0.0886  0.2698  0.8097
10189TIP3   OH254761   0.056   1.850   8.541  0.0177 -0.2271  0.2369
10189TIP3    H154762   0.055   1.759   8.514  1.4552 -0.6798  1.5547
10189TIP3    H254763   0.149   1.872   8.548 -0.3050  0.9186  1.2753
10190TIP3   OH254764   2.794   6.746   8.623  0.0720  0.3606 -0.0897
10190TIP3    H154765   2.803   6.723   8.531 -0.0502 -2.0623  0.4404
10190TIP3    H254766   2.745   6.674   8.661 -0.7257  1.7757  1.7155
10191TIP3   OH254767   2.029   4.282   8.308  0.3432  0.3211  0.0022
10191TIP3    H154768   2.095   4.216   8.288  0.9150  0.4315  1.3894
10191TIP3    H254769   1.986   4.299   8.225 -0.1899 -2.1785 -0.3014
10192TIP3   OH254770   2.524   7.405   8.400  0.6922  0.8413  0.2905
10192TIP3    H154771   2.524   7.365   8.487 -0.7908 -0.2560 -0.1684
10192TIP3    H254772   2.592   7.357   8.352 -0.0698 -0.1620  0.1839
10193TIP3   OH254773   0.744   7.265   8.339  0.0044  0.2487  0.5219
10193TIP3    H154774   0.783   7.196   8.286  2.0377  2.4034 -1.0293
10193TIP3    H254775   0.708   7.221   8.415 -1.1593 -2.7929 -1.5897
10194TIP3   OH254776   6.040   0.280   8.067 -0.2417  0.0788  0.1453
10194TIP3    H154777   6.038   0.188   8.094  0.9807 -0.6364 -1.9622
10194TIP3    H254778   5.949   0.301   8.048 -0.3849 -1.1432 -0.6550
10195TIP3   OH254779   2.208   4.913   8.636  0.5904  0.0588  0.1499
10195TIP3    H154780   2.234   4.829   8.599 -2.0111 -1.4673  1.5070
10195TIP3    H254781   2.155   4.954   8.568 -0.3933 -0.6750  0.4489
10196TIP3   OH254782   4.725   0.536   8.012  0.6635  0.2555 -0.1652
10196TIP3    H154783   4.763   0.524   7.925  1.4590  0.3825  0.1527
10196TIP3    H254784   4.785   0.597   8.055 -0.8243  1.8016 -0.2130
10197TIP3   OH254785   4.825   2.689   1.713 -0.3681  0.1729  0.0054
10197TIP3    H154786   4.830   2.751   1.641 -1.3464  0.0189 -0.2064
10197TIP3    H254787   4.734   2.693   1.743 -0.3766 -0.9249  0.1788
10198TIP3   OH254788   0.303   0.899   9.500 -0.3318  0.2605 -0.3931
10198TIP3    H154789   0.224   0.950   9.487 -1.6612 -0.9037  2.3702
10198TIP3    H254790   0.361   0.956   9.551 -0.8250 -0.0750  0.5660
10199TIP3   OH254791   1.225   1.487   9.373  0.1329 -0.0315 -0.0669
10199TIP3    H154792   1.257   1.417   9.430 -0.3244 -1.3171 -1.3353
10199TIP3    H254793   1.134   1.464   9.355  0.3043  0.2665 -1.4258
10200TIP3   OH254794   2.616   5.406   1.178 -0.7018 -0.1615 -0.2834
10200TIP3    H154795   2.682   5.366   1.234 -0.2928 -1.1788 -1.4362
10200TIP3    H254796   2.624   5.360   1.094 -3.7142 -1.2061 -0.1100
10201TIP3   OH254797   6.151   5.328   1.390  0.0638 -0.2910  0.5701
10201TIP3    H154798   6.127   5.331   1.482 -0.8848  0.0232  0.3266
10201TIP3    H254799   6.081   5.277   1.348  0.3211 -0.1774 -0.0157
10202TIP3   OH254800   0.707   0.100   2.093 -0.0898  0.1272  0.4779
10202TIP3    H154801   0.788   0.151   2.105  0.6581 -0.5132 -1.4307
10202TIP3    H254802   0.695   0.096   1.998 -2.0454 -0.3263  0.7044
10203TIP3   OH254803   1.411   3.376   7.749 -0.1205  0.0266 -0.3713
10203TIP3    H154804   1.381   3.380   7.840 -0.1403 -1.6995 -0.2634
10203TIP3    H254805   1.368   3.451   7.706 -1.5873 -0.1888  0.6299
10204TIP3   OH254806   2.293   2.187   2.014  0.1568  0.1425  0.1443
10204TIP3    H154807   2.378   2.154   2.042  1.0065  1.3517 -0.9151
10204TIP3    H254808   2.296   2.184   1.918 -0.5515  1.2491  0.0726
10205TIP3   OH254809   2.942   3.485   1.667  0.6792  0.2047  0.0148
10205TIP3    H154810   2.927   3.404   1.715  1.7943  0.9664  1.7996
10205TIP3    H254811   2.896   3.552   1.718  0.9724  0.8883 -0.5951
10206TIP3   OH254812   3.112   0.726   0.807  0.0084  0.0974 -0.0090
10206TIP3    H154813   3.151   0.805   0.845 -1.0125  0.9375 -0.6351
10206TIP3    H254814   3.063   0.758   0.731  0.0632 -1.2300 -0.6331
10207TIP3   OH254815   3.648   0.672   8.140  0.2982 -0.0638  0.0241
10207TIP3    H154816   3.633   0.767   8.149 -0.2041 -0.2544  1.3905
10207TIP3    H254817   3.734   0.666   8.099  0.0986  0.9902 -0.6002
10208TIP3   OH254818   6.751   7.257   9.079  1.0034  0.0956  0.0688
10208TIP3    H154819   6.689   7.297   9.019  0.3856 -1.5887 -0.4755
10208TIP3    H254820   6.828   7.314   9.076  0.5950  0.6052 -1.5321
10209TIP3   OH254821   2.104   6.109   7.923 -0.7693 -0.2157  0.6124
10209TIP3    H154822   2.095   6.152   8.008  0.1182  0.6525  0.2939
10209TIP3    H254823   2.059   6.025   7.933 -1.8625  0.4460  1.5071
10210TIP3   OH254824   1.867   5.242   2.572 -0.4563 -0.8288  0.0813
10210TIP3    H154825   1.933   5.184   2.610  0.6770 -0.2123 -0.8508
10210TIP3    H254826   1.846   5.201   2.487  0.4325  0.1346 -0.6315
10211TIP3   OH254827   3.038   7.608   8.716 -0.2521  0.1951  0.2315
10211TIP3    H154828   3.091   7.569   8.646 -2.0564  0.1906 -1.2093
10211TIP3    H254829   3.014   7.534   8.772 -0.3224 -0.0995 -0.1843
10212TIP3   OH254830   1.201   5.450   6.603  0.0091 -0.5119  0.1819
10212TIP3    H154831   1.179   5.536   6.568 -0.8191  0.4814  2.8584
10212TIP3    H254832   1.126   5.395   6.580  0.1109 -0.2839 -0.7299
10213TIP3   OH254833   0.729   5.886   6.363 -0.2383 -0.4856  0.0895
10213TIP3    H154834   0.796   5.884   6.295 -0.2500  0.7055  0.0281
10213TIP3    H254835   0.776   5.864   6.444 -0.0781 -1.1490 -0.1782
10214TIP3   OH254836   6.378   4.538   8.818  0.3252 -0.0673 -0.1922
10214TIP3    H154837   6.324   4.610   8.784 -2.2822 -2.1797 -0.8572
10214TIP3    H254838   6.395   4.562   8.909  0.0422  1.6519 -0.5615
10215TIP3   OH254839   5.504   0.354   9.453 -0.4891 -0.0155  0.1994
10215TIP3    H154840   5.535   0.423   9.511 -0.4256 -1.4037  1.8939
10215TIP3    H254841   5.444   0.302   9.507  0.2707 -1.9013 -0.6807
10216TIP3   OH254842   1.361   7.144   8.364  0.1826 -0.6459 -0.0180
10216TIP3    H154843   1.410   7.123   8.284 -0.4276 -0.4646 -0.4546
10216TIP3    H254844   1.420   7.121   8.436  2.0913  2.1981 -0.4910
10217TIP3   OH254845   3.979   4.185   0.081 -0.4442 -0.4461  0.4499
10217TIP3    H154846   3.947   4.112   0.135  0.8452  0.1836  2.1634
10217TIP3    H254847   3.918   4.256   0.098 -1.2285 -0.8519 -0.5792
10218TIP3   OH254848   0.544   0.811   9.000 -0.3712  0.2868  0.1199
10218TIP3    H154849   0.467   0.855   8.964 -0.3782  0.4854  0.3695
10218TIP3    H254850   0.613   0.825   8.935 -0.4466  0.4388  0.0721
10219TIP3   OH254851   7.289   0.582   1.833  0.1046  0.3291  0.0501
10219TIP3    H154852   7.294   0.636   1.754  0.4240  0.9954  0.5136
10219TIP3    H254853   7.367   0.527   1.829  1.2042  1.7443  0.8598
10220TIP3   OH254854   1.624   2.360   8.113 -0.2678  0.4435  0.2481
10220TIP3    H154855   1.597   2.331   8.027  1.4248  0.0504 -0.1905
10220TIP3    H254856   1.565   2.432   8.134 -1.3062 -0.0716 -0.8185
10221TIP3   OH254857   5.898   2.353   9.826  0.1176  0.8267 -0.0136
10221TIP3    H154858   5.941   2.406   9.759 -0.2322  0.0550 -0.8779
10221TIP3    H254859   5.933   2.265   9.812 -1.4430  0.2618 -0.4910
10222TIP3   OH254860   2.617   0.420   0.059 -0.3783 -0.2320 -0.7704
10222TIP3    H154861   2.659   0.337   0.081  0.0891 -0.1106 -1.1731
10222TIP3    H254862   2.653   0.483   0.121  0.1995 -0.0874 -1.2425
10223TIP3   OH254863   6.737   3.053   9.549 -0.1818  0.6269  0.3262
10223TIP3    H154864   6.642   3.039   9.549  0.0194 -1.0610 -1.2300
10223TIP3    H254865   6.770   2.992   9.615 -0.0540  0.0415 -0.2716
10224TIP3   OH254866   2.136   5.612   9.243 -0.5737 -0.3026  0.1696
10224TIP3    H154867   2.219   5.574   9.271 -0.6598 -0.7137 -0.1304
10224TIP3    H254868   2.113   5.673   9.313 -0.5187 -0.9230  0.7394
10225TIP3   OH254869   4.301   5.186   8.772 -0.6062 -0.0848  0.0187
10225TIP3    H154870   4.363   5.223   8.709  0.3192 -0.1685  0.8556
10225TIP3    H254871   4.323   5.229   8.855 -0.4954 -1.3837  0.6953
10226TIP3   OH254872   0.444   5.172   1.246  0.5382 -0.0383 -0.1150
10226TIP3    H154873   0.439   5.216   1.161 -0.2066  0.7303  0.3094
10226TIP3    H254874   0.364   5.197   1.291  0.9084 -0.4560  0.8124
10227TIP3   OH254875   2.121   2.536   2.078 -0.0116  0.0786  0.6926
10227TIP3    H154876   2.099   2.614   2.129 -0.4687  0.0650  0.5274
10227TIP3    H254877   2.212   2.548   2.053  0.3561 -0.1078  1.8624
10228TIP3   OH254878   2.664   4.299   1.713 -0.0961 -0.2185  0.2262
10228TIP3    H154879   2.734   4.320   1.774 -0.3066 -1.1348  0.8127
10228TIP3    H254880   2.690   4.216   1.674 -0.4349 -0.1315 -0.1895
10229TIP3   OH254881   0.580   0.779   1.371  0.0207 -0.3264  0.5918
10229TIP3    H154882   0.508   0.781   1.309 -0.8428  0.3725  1.5863
10229TIP3    H254883   0.591   0.870   1.398 -0.8066 -0.8032  2.7624
10230TIP3   OH254884   0.899   7.448   7.243 -0.6257 -0.0814 -0.5435
10230TIP3    H154885   0.945   7.399   7.311 -2.0425  0.9744  1.2739
10230TIP3    H254886   0.870   7.382   7.180  1.4045 -0.9960 -0.5811
10231TIP3   OH254887   6.340   5.166   1.271  0.4993 -0.9652  0.7912
10231TIP3    H154888   6.309   5.246   1.314 -0.3244 -0.3781 -0.8249
10231TIP3    H254889   6.268   5.104   1.282  0.3141 -0.8347  0.3205
10232TIP3   OH254890   1.198   5.773   8.794 -0.3970 -0.1301 -0.4075
10232TIP3    H154891   1.283   5.790   8.836 -0.2518 -0.1275 -0.6980
10232TIP3    H254892   1.134   5.786   8.863 -0.3556  2.3044 -0.7527
10233TIP3   OH254893   1.379   6.797   2.230  0.2490 -0.0311  0.4073
10233TIP3    H154894   1.453   6.857   2.219  0.0696  0.0182 -0.6507
10233TIP3    H254895   1.349   6.781   2.141 -0.7289 -0.4141  0.8016
10234TIP3   OH254896   2.505   5.649   1.201  0.0961 -0.1299  0.1075
10234TIP3    H154897   2.540   5.679   1.117 -1.4878 -2.1477 -1.3504
10234TIP3    H254898   2.546   5.564   1.216 -2.1346 -1.3726 -0.3978
10235TIP3   OH254899   0.129   6.333   9.006  0.0325  0.1114  0.0825
10235TIP3    H154900   0.088   6.328   8.920 -0.7635  1.8126  0.3248
10235TIP3    H254901   0.057   6.337   9.068  0.5618  0.9699  0.6717
10236TIP3   OH254902   6.648   0.649   0.946 -0.2701  0.3233 -0.2802
10236TIP3    H154903   6.649   0.620   0.855 -1.4433 -0.8087  0.0411
10236TIP3    H254904   6.567   0.700   0.954  0.2281  1.1084 -0.0503
10237TIP3   OH254905   5.895   3.700   1.132  0.2484  0.0693 -0.2693
10237TIP3    H154906   5.957   3.753   1.181  0.0932 -0.0533  0.0602
10237TIP3    H254907   5.810   3.741   1.149 -0.0441 -1.0177  1.0080
10238TIP3   OH254908   1.197   7.535   9.582 -0.5939 -0.3270 -0.4765
10238TIP3    H154909   1.216   7.527   9.675 -0.8895  2.1582 -0.1471
10238TIP3    H254910   1.140   7.461   9.563 -1.3019 -0.3630  1.5418
10239TIP3   OH254911   6.414   4.334   9.438  0.7543  0.5401 -0.0342
10239TIP3    H154912   6.508   4.339   9.425  0.7510  1.3215  0.1796
10239TIP3    H254913   6.376   4.389   9.369  0.5355  1.3373  0.7011
10240TIP3   OH254914   4.892   4.577   1.159 -0.8545  0.1667  0.0634
10240TIP3    H154915   4.967   4.519   1.149 -0.3341  0.8046  0.1937
10240TIP3    H254916   4.846   4.571   1.075  0.1028  0.8070 -0.5282
10241TIP3   OH254917   4.951   6.666   8.722 -0.0188  0.6195  0.2588
10241TIP3    H154918   5.022   6.729   8.718  0.5187  0.0078  0.0010
10241TIP3    H254919   4.960   6.625   8.808  1.1170 -0.7817 -0.4859
10242TIP3   OH254920   6.769   3.059   1.609 -0.0412 -0.2208  0.2869
10242TIP3    H154921   6.714   2.981   1.609 -1.2916  0.5663 -1.8667
10242TIP3    H254922   6.725   3.119   1.670 -0.8701 -0.0694 -0.4432
10243TIP3   OH254923   2.597   4.573   1.570  0.4533  0.0250  0.4535
10243TIP3    H154924   2.668   4.562   1.506 -0.1794 -0.2822 -0.2078
10243TIP3    H254925   2.602   4.495   1.624  1.0658  0.3394  0.8697
10244TIP3   OH254926   2.000   2.223   2.475  0.0178 -0.0013  0.5532
10244TIP3    H154927   2.077   2.253   2.427 -0.4641  1.6228  0.7295
10244TIP3    H254928   1.929   2.280   2.446 -1.3275 -1.9102 -0.1330
10245TIP3   OH254929   4.197   6.973   1.173  1.1461  0.9562 -0.4831
10245TIP3    H154930   4.163   7.063   1.169 -0.4204  0.4336  0.4707
10245TIP3    H254931   4.218   6.959   1.265 -1.0248 -0.4559 -0.1294
10246TIP3   OH254932   0.787   4.156   2.204 -0.1755  0.4266 -0.3078
10246TIP3    H154933   0.860   4.097   2.185  0.5489  1.5080 -0.9822
10246TIP3    H254934   0.828   4.231   2.246 -1.0362  0.6343  0.1865
10247TIP3   OH254935   1.022   3.761   0.655 -0.5856  0.0648  0.0973
10247TIP3    H154936   0.999   3.845   0.694 -1.4755  0.4518 -1.1982
10247TIP3    H254937   0.938   3.721   0.632 -0.1432 -0.8196 -0.0377
10248TIP3   OH254938   0.734   1.389   0.064  0.4208 -0.3662 -0.0517
10248TIP3    H154939   0.745   1.302   0.104  2.5613  0.1047  0.5109
10248TIP3    H254940   0.813   1.437   0.089 -0.4474  1.5742 -0.8394
10249TIP3   OH254941   2.633   4.053   8.398  0.4312 -0.4608 -0.0722
10249TIP3    H154942   2.695   3.980   8.395  1.3765  0.2884  0.5936
10249TIP3    H254943   2.582   4.038   8.478  0.3404 -0.6242 -0.1616
10250TIP3   OH254944   3.923   6.006   1.688 -0.7152  0.1802 -0.1387
10250TIP3    H154945   4.018   6.017   1.678 -0.4460 -0.1748  1.5920
10250TIP3    H254946   3.905   5.918   1.654 -0.3828  0.1931 -0.3455
10251TIP3   OH254947   2.824   6.299   0.032  0.6660  0.0869 -0.1786
10251TIP3    H154948   2.778   6.321  -0.050  0.9891  1.8878  0.0782
10251TIP3    H254949   2.916   6.298   0.008  0.6902 -0.5990 -0.0760
10252TIP3   OH254950   0.762   3.059   8.350 -0.7478 -0.0938 -0.0738
10252TIP3    H154951   0.749   3.007   8.270  0.3677  0.3284 -0.5586
10252TIP3    H254952   0.852   3.041   8.376 -0.9006  0.2618  0.7343
10253TIP3   OH254953   0.995   0.593   1.264 -0.6504  0.0381 -0.0181
10253TIP3    H154954   0.961   0.678   1.236 -0.5036 -0.3035 -1.3202
10253TIP3    H254955   0.922   0.533   1.250  0.3751 -0.7143 -2.8826
10254TIP3   OH254956   3.328   6.699   2.304 -0.2215  0.2002  0.3570
10254TIP3    H154957   3.299   6.608   2.294 -1.6612  0.7998 -1.4835
10254TIP3    H254958   3.400   6.694   2.367 -1.1058 -2.0281  1.3136
10255TIP3   OH254959   3.590   2.619   8.642  0.2112 -0.1760 -0.2345
10255TIP3    H154960   3.619   2.705   8.672 -1.1295  0.3658 -0.4298
10255TIP3    H254961   3.669   2.579   8.605  0.6981  1.2730 -0.8500
10256TIP3   OH254962   2.101   3.208   6.743  0.1491  0.2819 -0.1582
10256TIP3    H154963   2.018   3.250   6.767  0.8494  0.9743  1.1687
10256TIP3    H254964   2.150   3.277   6.699  0.5722  0.3099  0.3473
10257TIP3   OH254965   6.857   3.955   7.290 -0.1560 -0.4367 -0.3168
10257TIP3    H154966   6.784   3.912   7.335 -0.3281  1.2274  1.0755
10257TIP3    H254967   6.820   4.036   7.256  1.1225  0.6871  0.8650
10258TIP3   OH254968   6.565   2.831   0.661  0.1049 -0.4876  0.5144
10258TIP3    H154969   6.591   2.744   0.691 -0.2472 -1.6218 -2.2280
10258TIP3    H254970   6.626   2.891   0.704  0.7693 -2.1248  1.9422
10259TIP3   OH254971   6.124   0.542   0.424  0.1912  0.2228 -0.2902
10259TIP3    H154972   6.112   0.467   0.365  0.8003 -0.4686  0.4363
10259TIP3    H254973   6.219   0.556   0.425  0.1402  0.5463  0.1259
10260TIP3   OH254974   0.086   7.030   9.351  0.3399 -0.9450 -0.1916
10260TIP3    H154975   0.157   7.048   9.412 -1.6948  2.3480  1.5334
10260TIP3    H254976   0.032   6.964   9.395  0.2900 -0.5391  0.3700
10261TIP3   OH254977   3.639   3.509   9.873 -0.5855 -0.1324  0.5133
10261TIP3    H154978   3.553   3.476   9.845  0.0925 -0.2377 -1.6354
10261TIP3    H254979   3.665   3.569   9.803  0.7580  0.5162  1.5238
10262TIP3   OH254980   0.773   3.930   8.247 -0.6576 -0.7515  0.2847
10262TIP3    H154981   0.738   4.015   8.221  0.8945  0.0064  0.5573
10262TIP3    H254982   0.839   3.910   8.180  0.4722 -0.7314  1.3560
10263TIP3   OH254983   1.931   5.264   9.108 -0.1250  0.0014  0.1235
10263TIP3    H154984   1.927   5.232   9.198 -2.8872 -2.5539 -0.7009
10263TIP3    H254985   1.853   5.227   9.067  2.2889 -1.1614 -4.0033
10264TIP3   OH254986   1.424   5.571   9.020 -0.1657  0.1287 -0.2444
10264TIP3    H154987   1.342   5.523   9.034  0.6901 -1.7045 -1.1478
10264TIP3    H254988   1.492   5.509   9.046  1.0214  0.7721 -1.6991
10265TIP3   OH254989   0.490   2.163   7.049  0.3731  0.0773 -0.1351
10265TIP3    H154990   0.481   2.239   6.992  0.9997  1.1228  1.1064
10265TIP3    H254991   0.424   2.101   7.018 -0.2398  1.1805 -1.0780
10266TIP3   OH254992   2.159   4.232   8.587 -0.0114  0.2286  0.2237
10266TIP3    H154993   2.105   4.217   8.510  2.3875 -1.2653 -1.2798
10266TIP3    H254994   2.169   4.146   8.627  1.7984  0.3400  0.0663
10267TIP3   OH254995   5.313   4.785   7.303  0.0849  0.0758  0.0724
10267TIP3    H154996   5.229   4.742   7.287  0.1857  0.3455 -1.3172
10267TIP3    H254997   5.307   4.867   7.253  1.1178  0.1642  0.0846
10268TIP3   OH254998   7.268   2.183   9.557  0.3786  0.4321  0.2705
10268TIP3    H154999   7.270   2.244   9.631  0.2631  1.4310 -0.5219
10268TIP3    H255000   7.354   2.194   9.515  0.8651 -0.9275  0.8666
10269TIP3   OH255001   1.940   2.555   7.069  0.3183 -0.1575  0.0785
10269TIP3    H155002   2.004   2.622   7.097 -0.1977  1.6451 -2.6665
10269TIP3    H255003   1.866   2.567   7.129  0.5641  1.2496  0.1557
10270TIP3   OH255004   0.311   4.841   1.258  0.2084  0.5456  0.3409
10270TIP3    H155005   0.258   4.915   1.229 -1.2562 -0.3980  0.5096
10270TIP3    H255006   0.319   4.853   1.353 -0.3902  0.2648  0.4279
10271TIP3   OH255007   5.116   2.757   8.851  0.2153 -0.3074 -0.5794
10271TIP3    H155008   5.052   2.706   8.901 -0.6819 -0.6608 -2.0224
10271TIP3    H255009   5.065   2.797   8.781  1.1278  1.6039 -0.2050
10272TIP3   OH255010   5.235   3.904   0.848 -0.3872 -0.1061 -0.0121
10272TIP3    H155011   5.292   3.845   0.897  3.1200  3.4915  0.7092
10272TIP3    H255012   5.177   3.943   0.914  1.0150  1.1426  0.5303
10273TIP3   OH255013   4.449   0.445   8.095  0.1149  0.2223  0.0773
10273TIP3    H155014   4.529   0.481   8.056 -0.1997  1.6341  0.6527
10273TIP3    H255015   4.479   0.367   8.142  1.2052  0.7996  0.3962
10274TIP3   OH255016   3.635   0.655   9.403  0.1065 -0.0603  0.7083
10274TIP3    H155017   3.721   0.615   9.419 -0.0802 -0.0351  1.9304
10274TIP3    H255018   3.615   0.700   9.485 -0.6919  0.6636  0.1308
10275TIP3   OH255019   2.979   5.856   9.602 -0.5199  0.5991  0.2524
10275TIP3    H155020   2.947   5.832   9.689 -3.4407  1.4227 -0.4961
10275TIP3    H255021   2.927   5.803   9.542  0.3859  1.1526 -1.0638
10276TIP3   OH255022   4.219   2.015   1.679 -0.4806 -0.2830  0.2989
10276TIP3    H155023   4.162   2.025   1.603  0.5085 -0.2081 -0.4498
10276TIP3    H255024   4.162   2.033   1.754 -0.9231  1.9999 -0.5180
10277TIP3   OH255025   4.029   2.311   9.986  0.3303 -0.1083  0.0101
10277TIP3    H155026   4.091   2.315   9.913  0.1996  0.1294 -0.0889
10277TIP3    H255027   4.085   2.316  10.064  0.4649 -0.2909 -0.0721
10278TIP3   OH255028   1.451   7.346   8.026 -0.1928  0.0502 -0.3525
10278TIP3    H155029   1.484   7.258   8.046 -0.1582 -0.0070 -0.6481
10278TIP3    H255030   1.481   7.401   8.099 -1.2455 -0.4174  0.4589
10279TIP3   OH255031   5.001   3.886   8.826 -0.1533  0.6409 -0.0603
10279TIP3    H155032   5.013   3.974   8.789  1.3900 -0.4751 -2.4608
10279TIP3    H255033   4.948   3.840   8.761  1.7824 -1.1147 -0.5208
10280TIP3   OH255034   4.560   3.770   9.632 -0.2941 -0.2982  0.2922
10280TIP3    H155035   4.610   3.697   9.595  0.8445  0.0072  1.1602
10280TIP3    H255036   4.591   3.776   9.722  1.3417  2.6474 -0.3453
10281TIP3   OH255037   3.912   7.177   1.373 -0.2612  0.5165 -0.0481
10281TIP3    H155038   3.931   7.188   1.279 -0.4702 -0.4524 -0.2159
10281TIP3    H255039   3.966   7.102   1.399  2.4249  2.7905  1.4210
10282TIP3   OH255040   2.205   0.861   8.959 -0.0935 -0.1247  0.8186
10282TIP3    H155041   2.231   0.907   9.039  1.2004  1.4691 -0.4263
10282TIP3    H255042   2.198   0.931   8.894 -1.1656 -1.3688 -0.4529
10283TIP3   OH255043   3.783   2.327   8.389  0.3142 -0.2959  0.2420
10283TIP3    H155044   3.846   2.270   8.343  1.5966  0.0557  1.5022
10283TIP3    H255045   3.718   2.267   8.425  1.7234 -1.0221  1.6728
10284TIP3   OH255046   7.240   4.236   8.148 -0.5262  0.1972 -0.4517
10284TIP3    H155047   7.274   4.318   8.185 -2.7882  0.1332  2.0413
10284TIP3    H255048   7.285   4.167   8.196 -1.3408  0.0548  0.1160
10285TIP3   OH255049   1.181   3.960   1.318  0.5391  0.3159  0.5723
10285TIP3    H155050   1.259   3.911   1.345  1.1593  1.4695  0.9237
10285TIP3    H255051   1.215   4.044   1.288 -0.2361 -0.3529 -2.5588
10286TIP3   OH255052   5.284   4.746   9.447 -0.3727  0.1707  0.1011
10286TIP3    H155053   5.191   4.767   9.441  0.0371  1.6888 -1.9186
10286TIP3    H255054   5.302   4.692   9.371  0.6578  1.0662 -0.3264
10287TIP3   OH255055   6.556   7.294   9.686 -0.0280  0.0273 -0.1075
10287TIP3    H155056   6.482   7.238   9.665  1.1965 -1.0625 -1.8303
10287TIP3    H255057   6.591   7.321   9.601  1.9774 -0.1180  0.5967
10288TIP3   OH255058   6.529   6.714   0.245 -0.6534 -0.0208 -0.6317
10288TIP3    H155059   6.564   6.694   0.159 -0.4337 -0.6782 -0.3983
10288TIP3    H255060   6.436   6.689   0.240 -1.3858  2.5573 -1.5307
10289TIP3   OH255061   3.357   6.684   0.301 -0.4137  0.2254  0.7454
10289TIP3    H155062   3.304   6.686   0.221  0.1824  1.4688  0.3441
10289TIP3    H255063   3.330   6.604   0.346  0.9366 -1.9051 -1.8680
10290TIP3   OH255064   6.704   0.288   1.733 -0.8331  0.5158 -0.5478
10290TIP3    H155065   6.727   0.301   1.825 -0.8520  0.7425 -0.5761
10290TIP3    H255066   6.609   0.296   1.731 -0.8335  0.4990 -0.5857
10291TIP3   OH255067   0.930   1.023   8.973 -0.0541  0.2476  0.7460
10291TIP3    H155068   1.022   1.049   8.978 -0.4681  2.3379 -1.2327
10291TIP3    H255069   0.933   0.934   8.938  1.2182  0.4390  0.2968
10292TIP3   OH255070   3.079   5.657   3.074 -0.2373 -0.3168 -0.5058
10292TIP3    H155071   2.986   5.648   3.098 -0.5263 -0.2612 -1.5551
10292TIP3    H255072   3.105   5.741   3.113  0.1332 -1.5287  2.0635
10293TIP3   OH255073   2.594   5.693   9.113 -0.0283  0.3121  0.2175
10293TIP3    H155074   2.597   5.737   9.028 -0.9147 -2.1196 -1.1557
10293TIP3    H255075   2.684   5.662   9.127 -0.2862 -0.9586 -0.8054
10294TIP3   OH255076   4.672   5.351   9.502 -0.0541  0.2264 -0.1293
10294TIP3    H155077   4.671   5.299   9.422 -1.0282  1.1716 -0.7595
10294TIP3    H255078   4.662   5.286   9.572  2.2401 -0.7651 -0.6243
10295TIP3   OH255079   6.758   5.707   0.823 -0.2650 -0.3421  0.0577
10295TIP3    H155080   6.829   5.768   0.802  0.2972  0.0460  2.7321
10295TIP3    H255081   6.801   5.634   0.866 -1.1674 -1.7381 -1.3075
10296TIP3   OH255082   1.299   2.902   6.867  0.3539  0.2342  0.6627
10296TIP3    H155083   1.279   2.812   6.842  0.0520 -0.2717  2.5261
10296TIP3    H255084   1.391   2.899   6.894  0.9123  0.9381 -1.0648
10297TIP3   OH255085   0.356   7.441   2.908 -0.0240  0.2541 -0.4435
10297TIP3    H155086   0.299   7.518   2.905 -1.7082 -0.8656  0.4142
10297TIP3    H255087   0.318   7.381   2.843 -1.0613 -1.2365  1.4155
10298TIP3   OH255088   6.656   3.826   7.433 -0.5436 -0.3147  0.1871
10298TIP3    H155089   6.608   3.744   7.445 -0.4609 -0.3023  0.6164
10298TIP3    H255090   6.703   3.839   7.515 -0.4682  0.1070  0.0826
10299TIP3   OH255091   7.031   1.668   0.554  0.0852 -0.6094 -0.1069
10299TIP3    H155092   6.969   1.724   0.506 -0.8277 -2.6605 -1.4714
10299TIP3    H255093   7.105   1.660   0.494  0.3443 -0.6107  0.2163
10300TIP3   OH255094   4.389   0.413   9.740  0.0438 -0.3598 -0.2066
10300TIP3    H155095   4.371   0.482   9.676 -1.9099 -1.1204 -0.5449
10300TIP3    H255096   4.325   0.428   9.810  0.6249 -0.9132  0.4629
10301TIP3   OH255097   0.014   3.608   0.836  0.3015 -0.0665  0.7746
10301TIP3    H155098   0.041   3.670   0.904 -0.2758  1.0049  0.0453
10301TIP3    H255099   0.075   3.623   0.764 -1.3035  1.3872 -0.3459
10302TIP3   OH255100   4.486   7.427   7.961 -0.0618 -0.1545  0.1195
10302TIP3    H155101   4.517   7.432   8.052 -0.5367 -0.3171  0.2910
10302TIP3    H255102   4.392   7.446   7.966 -0.1828 -0.6281 -0.2800
10303TIP3   OH255103   1.817   2.735   7.816 -0.7491  0.1575  0.6888
10303TIP3    H155104   1.758   2.664   7.792 -0.2999  0.1705 -0.5091
10303TIP3    H255105   1.778   2.813   7.778  0.2832  0.0874 -0.5999
10304TIP3   OH255106   3.802   1.508   7.076  0.1641 -0.4422 -0.1500
10304TIP3    H155107   3.811   1.473   7.164  1.9795 -0.7851 -0.4396
10304TIP3    H255108   3.840   1.441   7.019 -3.0730 -1.3209 -1.4892
10305TIP3   OH255109   4.393   4.984   8.147  0.8211  0.2273  0.0094
10305TIP3    H155110   4.305   4.960   8.118  0.0572  1.3457  1.3121
10305TIP3    H255111   4.381   5.026   8.232  2.7856 -1.1666  1.0685
10306TIP3   OH255112   0.143   6.007   9.413  0.6258 -0.1241 -0.4679
10306TIP3    H155113   0.159   6.096   9.445  2.2002 -1.2329  2.2503
10306TIP3    H255114   0.164   6.010   9.320  3.0734  1.8429  0.0403
10307TIP3   OH255115   2.162   6.504   9.534 -0.2341  0.0296 -0.5847
10307TIP3    H155116   2.123   6.487   9.620  2.0776 -3.2022  0.0316
10307TIP3    H255117   2.102   6.464   9.472  0.0161 -1.2955 -0.0223
10308TIP3   OH255118   3.722   1.579   0.997 -0.1457 -0.4594 -0.4451
10308TIP3    H155119   3.777   1.519   0.947  2.3749  1.3921 -0.1052
10308TIP3    H255120   3.775   1.601   1.074 -1.8320  0.6437  0.4633
10309TIP3   OH255121   3.661   6.884   0.760 -0.2650 -0.6575 -0.4641
10309TIP3    H155122   3.661   6.906   0.853  0.2802  1.8899 -0.9769
10309TIP3    H255123   3.670   6.789   0.757  1.5287 -0.6604  2.0653
10310TIP3   OH255124   6.384   3.328   9.262  0.2552 -0.3776 -0.3193
10310TIP3    H155125   6.463   3.294   9.304  0.3720 -0.3553 -0.5187
10310TIP3    H255126   6.410   3.344   9.171  0.3153  0.6400 -0.1285
10311TIP3   OH255127   2.811   5.969   7.911 -0.4959 -0.1780 -0.0530
10311TIP3    H155128   2.861   5.892   7.883  1.3481  0.6843  0.6955
10311TIP3    H255129   2.848   6.041   7.859 -0.4122  0.6048  1.0688
10312TIP3   OH255130   3.802   6.715   1.946  0.5022 -0.4548 -0.0817
10312TIP3    H155131   3.739   6.742   2.013  0.5908 -0.8383  0.1542
10312TIP3    H255132   3.774   6.627   1.921 -1.2405  0.6664 -2.5475
10313TIP3   OH255133   0.822   7.392   8.705  0.5911  0.0329 -0.2684
10313TIP3    H155134   0.849   7.335   8.777 -0.8930 -0.8944 -0.3877
10313TIP3    H255135   0.793   7.331   8.636 -2.8823  0.8037  0.3039
10314TIP3   OH255136   4.880   0.018   1.384  0.3452 -0.1114  0.1856
10314TIP3    H155137   4.853   0.039   1.295 -0.3092  1.3772  0.6902
10314TIP3    H255138   4.807  -0.032   1.421 -1.2961  2.7466  1.1162
10315TIP3   OH255139   2.891   0.608   1.787 -0.1783  0.0603  0.3360
10315TIP3    H155140   2.855   0.565   1.709 -0.6444  1.2606 -0.1304
10315TIP3    H255141   2.962   0.662   1.754 -0.1722  0.3320  0.7854
10316TIP3   OH255142   4.244   6.401   0.065  0.5454  0.0844  0.3861
10316TIP3    H155143   4.207   6.409   0.153 -0.1625  1.2930  0.0062
10316TIP3    H255144   4.328   6.445   0.071  0.0874  1.0005  0.2422
10317TIP3   OH255145   5.224   4.495   0.212  0.1933  0.0359 -0.1624
10317TIP3    H155146   5.308   4.448   0.217 -0.2411 -0.6286  1.4179
10317TIP3    H255147   5.240   4.564   0.148  1.8191 -0.3401 -0.2221
10318TIP3   OH255148   5.921   5.410   8.407  0.5135 -0.4594 -0.1120
10318TIP3    H155149   5.957   5.488   8.366 -0.8248 -0.0688 -0.5977
10318TIP3    H255150   5.960   5.337   8.359  0.2792 -0.0379 -0.9473
10319TIP3   OH255151   7.105   1.400   0.295  0.1854 -0.2279  0.0167
10319TIP3    H155152   7.180   1.341   0.282 -0.4493 -1.1017  0.1878
10319TIP3    H255153   7.124   1.476   0.241  1.0499 -0.5786 -0.1874
10320TIP3   OH255154   1.910   7.461   0.056 -0.0062  1.1312 -0.5114
10320TIP3    H155155   2.003   7.480   0.042  0.3114 -0.4453 -0.6995
10320TIP3    H255156   1.890   7.394  -0.009 -1.3612  1.6391 -0.6487
10321TIP3   OH255157   6.346   5.521   1.963  0.1659  0.7942  0.1666
10321TIP3    H155158   6.370   5.461   2.034  0.4195 -0.5969 -1.0320
10321TIP3    H255159   6.429   5.559   1.934  0.2892  0.0773 -0.4593
10322TIP3   OH255160   5.040   3.689   1.148  0.6874  0.1701  0.0926
10322TIP3    H155161   5.028   3.695   1.053  0.5147 -0.8721  0.0341
10322TIP3    H255162   5.094   3.765   1.170 -1.4278  1.9425 -0.4386
10323TIP3   OH255163   6.824   2.765   9.979  1.2667 -0.6944 -0.3093
10323TIP3    H155164   6.773   2.816  10.042 -0.5170 -1.1351 -1.3343
10323TIP3    H255165   6.813   2.674  10.007 -1.0531 -1.0934 -2.1596
10324TIP3   OH255166   4.219   2.388   1.150 -0.3313  0.6197  0.2455
10324TIP3    H155167   4.303   2.414   1.112 -1.5570  2.9939 -1.1077
10324TIP3    H255168   4.230   2.402   1.244  0.9164  0.4142  0.1487
10325TIP3   OH255169   7.031   5.832   8.049 -0.2487  0.2551  0.6178
10325TIP3    H155170   7.054   5.752   8.096 -1.6220 -0.2518  0.4616
10325TIP3    H255171   6.977   5.802   7.976 -2.9653  1.4925  1.9862
10326TIP3   OH255172   1.889   2.648   8.730  0.1718  0.2300  0.1964
10326TIP3    H155173   1.797   2.668   8.718  0.2429  0.9818  0.7859
10326TIP3    H255174   1.926   2.727   8.771  1.0234 -0.1409  0.1791
10327TIP3   OH255175   6.819   3.298   9.640  0.0807 -0.0217 -0.1119
10327TIP3    H155176   6.784   3.218   9.599 -1.3049 -0.3167  1.5324
10327TIP3    H255177   6.911   3.299   9.616 -0.0168 -1.7886 -0.6868
10328TIP3   OH255178   2.280   3.842   2.761  0.8678 -0.5906 -0.1307
10328TIP3    H155179   2.193   3.875   2.783  1.5133 -0.7046  3.0648
10328TIP3    H255180   2.264   3.771   2.699 -1.2896 -0.5063  0.2584
10329TIP3   OH255181   4.588   5.525   8.935  0.2354 -0.1879  0.0088
10329TIP3    H155182   4.616   5.503   8.846  0.8206  0.8927 -0.0955
10329TIP3    H255183   4.668   5.557   8.977 -0.6137  2.1600 -0.0240
10330TIP3   OH255184   3.660   5.388   1.590  0.7617 -0.4219 -0.3208
10330TIP3    H155185   3.672   5.323   1.521 -1.1673 -0.4268 -0.7138
10330TIP3    H255186   3.697   5.347   1.668 -0.5230 -2.0989 -0.5323
10331TIP3   OH255187   6.519   3.269   0.541 -0.1093  0.0029 -0.5999
10331TIP3    H155188   6.487   3.262   0.450  1.0197  1.4979 -1.1458
10331TIP3    H255189   6.458   3.330   0.583  1.0047  1.5722 -1.1872
10332TIP3   OH255190   6.149   0.985   9.092 -0.5818 -0.2573 -0.1556
10332TIP3    H155191   6.073   1.028   9.052 -0.1837  0.7541  0.1312
10332TIP3    H255192   6.122   0.895   9.106 -1.1508 -0.3401 -1.6115
10333TIP3   OH255193   0.640   3.424   7.765  0.2321 -0.2468  0.1159
10333TIP3    H155194   0.727   3.401   7.797  0.2740  0.1341  0.2757
10333TIP3    H255195   0.600   3.340   7.744 -0.0606 -0.5870  1.8305
10334TIP3   OH255196   6.801   4.946   8.193 -0.1465 -0.0860 -0.0040
10334TIP3    H155197   6.732   4.939   8.259 -0.5030 -0.0168 -0.3640
10334TIP3    H255198   6.784   5.029   8.148  1.6806  1.2375  1.5707
10335TIP3   OH255199   2.897   4.916   7.548 -0.9721 -0.4887  0.2822
10335TIP3    H155200   2.931   4.828   7.529 -0.6993 -0.3159 -0.0374
10335TIP3    H255201   2.864   4.947   7.464 -1.1087 -0.3005  0.4047
10336TIP3   OH255202   7.154   3.131   7.385  0.0294  0.7472  0.6363
10336TIP3    H155203   7.132   3.175   7.467  2.1932  0.0060  1.6876
10336TIP3    H255204   7.087   3.063   7.375 -2.1209  2.7943  0.0765
10337TIP3   OH255205   4.646   7.560   2.009  0.4104  0.3421  0.2086
10337TIP3    H155206   4.685   7.531   2.092  0.9194 -0.7102 -0.3717
10337TIP3    H255207   4.559   7.592   2.033  0.0933 -1.0375  1.0093
10338TIP3   OH255208   6.014   4.154   8.212 -0.5309 -0.1631 -0.4285
10338TIP3    H155209   5.940   4.193   8.259 -0.4003 -0.3469 -0.0707
10338TIP3    H255210   5.990   4.063   8.200 -0.1228 -0.3604  0.1875
10339TIP3   OH255211   1.605   1.773   8.669  0.1035 -0.2275 -0.4844
10339TIP3    H155212   1.610   1.679   8.685  2.3715 -0.4889 -2.1917
10339TIP3    H255213   1.684   1.808   8.710 -1.3650  1.1999  1.2898
10340TIP3   OH255214   5.544   0.921   1.556 -0.2972  0.1621 -0.4668
10340TIP3    H155215   5.510   1.007   1.581  0.5305 -0.1897  2.0935
10340TIP3    H255216   5.477   0.887   1.496 -0.9500  2.3041 -1.0623
10341TIP3   OH255217   1.844   7.174   7.788  0.6926  0.6679  0.3794
10341TIP3    H155218   1.824   7.130   7.871  2.8139 -1.2710 -0.0336
10341TIP3    H255219   1.896   7.250   7.813  0.3720  0.7252  0.8884
10342TIP3   OH255220   1.037   2.205   0.025  0.1713  0.0297  0.0812
10342TIP3    H155221   1.010   2.114   0.016 -1.7171  0.4831  0.7780
10342TIP3    H255222   1.089   2.222  -0.053 -0.1313 -1.3986 -0.4655
10343TIP3   OH255223   2.704   7.011   2.766  0.0464  0.0067 -0.3991
10343TIP3    H155224   2.758   7.087   2.788  1.6247 -1.1259 -0.1598
10343TIP3    H255225   2.710   7.005   2.671  0.8053 -0.4208 -0.3316
10344TIP3   OH255226   2.904   2.811   8.138  0.2239 -0.0856  0.4242
10344TIP3    H155227   2.996   2.831   8.120  0.4685 -0.2977  1.3851
10344TIP3    H255228   2.892   2.833   8.231 -1.2475  2.0080 -0.1833
10345TIP3   OH255229   7.078   7.372   1.414 -0.3972  0.2660 -0.6727
10345TIP3    H155230   7.047   7.310   1.480 -2.8056  1.3426 -0.6988
10345TIP3    H255231   7.173   7.369   1.421 -0.4353 -2.7538 -0.0841
10346TIP3   OH255232   6.825   7.562   9.368 -0.2383 -0.6070  0.1944
10346TIP3    H155233   6.825   7.620   9.444 -0.0672 -1.5157  0.8992
10346TIP3    H255234   6.917   7.536   9.357 -0.0648  0.4223 -1.0431
10347TIP3   OH255235   5.622   2.483   9.465  0.2127 -0.2054 -0.1862
10347TIP3    H155236   5.593   2.564   9.423  0.1875 -0.3498 -0.4474
10347TIP3    H255237   5.661   2.511   9.547 -0.2759  0.0300 -0.0319
10348TIP3   OH255238   2.134   0.699   9.866  0.4923 -0.1998 -1.0493
10348TIP3    H155239   2.227   0.721   9.873  0.6657 -1.2075  0.5679
10348TIP3    H255240   2.089   0.766   9.917  0.2550  0.5910 -2.2682
10349TIP3   OH255241   2.399   5.349   0.150  0.1070  0.1397  0.4366
10349TIP3    H155242   2.477   5.296   0.130  0.2153  1.3130 -2.7100
10349TIP3    H255243   2.326   5.289   0.137  0.3559 -0.4206  1.4458
10350TIP3   OH255244   3.639   0.045   1.070  0.1538  0.7409 -0.3746
10350TIP3    H155245   3.721   0.065   1.024  0.4915 -0.3402 -0.2759
10350TIP3    H255246   3.660  -0.032   1.123 -0.7639  0.8224  0.1268
10351TIP3   OH255247   1.170   3.048   9.393 -0.3291  0.0719  0.4142
10351TIP3    H155248   1.198   3.090   9.311  0.2991  0.4313  0.8053
10351TIP3    H255249   1.077   3.068   9.400 -0.8882 -1.6614 -1.2306
10352TIP3   OH255250   5.014   1.380   1.685  0.8140 -0.2011  0.0184
10352TIP3    H155251   4.930   1.358   1.726  1.1535 -0.9459  0.3174
10352TIP3    H255252   5.058   1.436   1.749  1.2264 -1.1348  0.5640
10353TIP3   OH255253   0.345   5.161   1.674  0.2629 -0.0087  0.2228
10353TIP3    H155254   0.370   5.246   1.639  0.3613  0.2165  0.8253
10353TIP3    H255255   0.428   5.115   1.687  0.2760  0.1437  0.7294
10354TIP3   OH255256   2.430   7.005   7.410 -0.7171  0.9806 -0.0673
10354TIP3    H155257   2.335   6.994   7.422 -0.5906  0.1118  0.2005
10354TIP3    H255258   2.448   6.965   7.325 -0.8921  3.0190 -1.1381
10355TIP3   OH255259   5.666   2.365   0.925 -0.1780  0.1257  0.0983
10355TIP3    H155260   5.653   2.459   0.940  0.0167 -0.0692  1.7001
10355TIP3    H255261   5.728   2.360   0.853  0.1300  1.2340  0.2661
10356TIP3   OH255262   2.987   6.190   9.391 -0.2674  0.3321 -0.0692
10356TIP3    H155263   3.079   6.197   9.415 -0.6326  1.3007  1.1890
10356TIP3    H255264   2.971   6.267   9.337 -0.9449  1.7065  1.9827
10357TIP3   OH255265   1.232   7.302   0.493  0.2041 -0.7144 -0.2691
10357TIP3    H155266   1.256   7.358   0.419 -0.1823 -0.0590  0.0886
10357TIP3    H255267   1.285   7.336   0.565 -0.5069 -0.3785  0.1085
10358TIP3   OH255268   7.490   6.273   1.223  0.4728 -0.3678  0.6558
10358TIP3    H155269   7.484   6.199   1.284 -0.5956  0.5969  1.7895
10358TIP3    H255270   7.451   6.346   1.271  2.4519  1.2074 -0.0213
10359TIP3   OH255271   5.468   3.735   1.976 -0.2265  0.5348 -0.4101
10359TIP3    H155272   5.541   3.761   2.032 -0.3561 -1.5288  0.8172
10359TIP3    H255273   5.391   3.770   2.019 -0.1999  0.1746 -0.0619
10360TIP3   OH255274   1.295   3.243   2.378  0.0547  0.1029 -0.1758
10360TIP3    H155275   1.209   3.248   2.335  0.1191 -0.8340 -0.4304
10360TIP3    H255276   1.275   3.249   2.471 -0.6396 -3.1618  0.0028
10361TIP3   OH255277   6.881   3.643   7.889  0.0935  0.0987  0.2945
10361TIP3    H155278   6.944   3.713   7.872 -0.0866 -0.2097 -1.9374
10361TIP3    H255279   6.796   3.683   7.875 -0.0908 -0.2038  0.5324
10362TIP3   OH255280   2.865   1.998   1.799  0.3347 -0.3689  0.6288
10362TIP3    H155281   2.863   2.051   1.879  1.1619  2.6880 -1.1753
10362TIP3    H255282   2.778   1.959   1.794 -0.4639  1.1265  1.9428
10363TIP3   OH255283   3.092   0.851   8.887  0.1902 -0.2986 -0.2774
10363TIP3    H155284   3.084   0.927   8.830  0.8372  0.3215  0.4441
10363TIP3    H255285   3.185   0.829   8.883 -0.3293 -2.6975 -2.5547
10364TIP3   OH255286   5.918   3.667   0.795  0.1932 -0.3747 -0.3736
10364TIP3    H155287   5.919   3.695   0.887 -0.3151  1.0434 -0.7668
10364TIP3    H255288   5.882   3.578   0.798 -0.3162 -0.1558  0.7628
10365TIP3   OH255289   2.021   0.048   0.240  0.5209 -0.0599 -0.0258
10365TIP3    H155290   2.083   0.018   0.173  0.2515 -1.0426  0.1553
10365TIP3    H255291   2.061   0.127   0.276  0.7978  0.3341 -1.1579
10366TIP3   OH255292   1.837   0.166   1.478 -0.5863 -0.2352  0.1978
10366TIP3    H155293   1.778   0.144   1.550 -0.7429  0.1719  0.1940
10366TIP3    H255294   1.830   0.261   1.469  0.0877 -0.1812  0.2138
10367TIP3   OH255295   6.197   0.424   8.764  0.0935  0.4476  0.2306
10367TIP3    H155296   6.134   0.360   8.733  1.5424  0.5413 -3.4395
10367TIP3    H255297   6.273   0.373   8.792  0.5636  0.4256 -1.0023
10368TIP3   OH255298   2.842   4.090   1.612  0.4352  0.0746  0.7821
10368TIP3    H155299   2.846   4.016   1.552 -0.1171  0.4945  0.2148
10368TIP3    H255300   2.921   4.140   1.594  0.4233  0.0365  0.6243
10369TIP3   OH255301   4.897   2.868   1.266 -0.0259  0.2345  0.8070
10369TIP3    H155302   4.970   2.812   1.293 -1.3450 -2.2685 -0.3767
10369TIP3    H255303   4.916   2.888   1.174  0.9723  2.8222  1.4793
10370TIP3   OH255304   4.939   7.297   1.102  0.2394 -0.1337 -0.5726
10370TIP3    H155305   4.908   7.207   1.115 -0.4410  0.1506 -0.1394
10370TIP3    H255306   5.027   7.287   1.065  0.9785 -1.0020  1.2881
10371TIP3   OH255307   7.507   6.371   9.986 -0.0873  0.0100 -0.0581
10371TIP3    H155308   7.515   6.453  10.034 -0.9115 -0.2108  0.4763
10371TIP3    H255309   7.508   6.303  10.054  1.5186 -0.5184 -0.5420
10372TIP3   OH255310   0.450   5.574   1.424 -0.1276 -0.0986 -0.0254
10372TIP3    H155311   0.453   5.662   1.388 -1.8283 -0.0390 -0.0713
10372TIP3    H255312   0.522   5.528   1.381 -0.0763  0.8737 -1.0169
10373TIP3   OH255313   2.273   2.690   1.249 -0.0489  0.9058  0.1376
10373TIP3    H155314   2.365   2.664   1.244  0.2544  1.9817 -0.1302
10373TIP3    H255315   2.224   2.609   1.235  0.8294  0.7747 -2.6318
10374TIP3   OH255316   1.389   3.385   6.995  0.1923  0.1994 -0.1979
10374TIP3    H155317   1.380   3.473   6.958  2.8834  0.6765  0.1019
10374TIP3    H255318   1.338   3.388   7.076  1.1871  1.8948  0.4147
10375TIP3   OH255319   7.643   5.324   0.434 -0.5145  0.0143 -0.4192
10375TIP3    H155320   7.558   5.308   0.476  0.4709  0.4779  1.9568
10375TIP3    H255321   7.644   5.419   0.419  0.0521  0.2158  0.7725
10376TIP3   OH255322   1.605   6.065   9.416  0.3712  0.4688  0.1838
10376TIP3    H155323   1.511   6.048   9.424 -0.0497  3.1579  2.3587
10376TIP3    H255324   1.624   6.047   9.324 -1.9476 -1.4310 -0.0354
10377TIP3   OH255325   4.912   2.282   0.386  0.3134 -0.0865  0.0774
10377TIP3    H155326   4.976   2.210   0.382 -0.5676 -0.9364  0.7396
10377TIP3    H255327   4.830   2.241   0.361 -0.8590 -0.1306  3.4620
10378TIP3   OH255328   5.876   2.207   9.141 -0.0784  0.0233 -0.4579
10378TIP3    H155329   5.866   2.138   9.075  1.5092 -1.1744  0.4748
10378TIP3    H255330   5.818   2.181   9.212 -0.2252  0.1950 -0.5142
10379TIP3   OH255331   4.332   5.342   9.050  0.9672 -0.1735  0.6407
10379TIP3    H155332   4.396   5.375   9.113 -0.6001 -0.6310  2.5733
10379TIP3    H255333   4.299   5.261   9.089 -1.1352  0.2991 -0.0061
10380TIP3   OH255334   0.187   0.569   1.481  0.2044 -0.3169 -0.4016
10380TIP3    H155335   0.161   0.639   1.421  0.8860 -0.1112 -0.4661
10380TIP3    H255336   0.177   0.489   1.431 -0.0426 -0.2186 -0.5122
10381TIP3   OH255337   2.592   4.237   8.976  0.0219 -0.5369 -0.1994
10381TIP3    H155338   2.642   4.160   8.949  0.1442 -0.3888 -0.3941
10381TIP3    H255339   2.551   4.211   9.059 -0.6975 -1.1444 -0.7272
10382TIP3   OH255340   2.291   4.060   9.167  0.7556 -0.3480  0.5643
10382TIP3    H155341   2.257   3.993   9.108 -1.4146 -0.0672  1.4024
10382TIP3    H255342   2.307   4.013   9.249 -1.9720  0.2521  1.5599
10383TIP3   OH255343   2.132   1.857   8.816 -0.4195 -0.1453 -0.1705
10383TIP3    H155344   2.183   1.798   8.761 -1.7567 -2.1168  0.6038
10383TIP3    H255345   2.121   1.811   8.899 -3.0018  0.3479 -0.1356
10384TIP3   OH255346   4.625   6.765   8.919 -0.7452  0.7492 -0.8367
10384TIP3    H155347   4.652   6.822   8.846 -0.1360 -0.7548 -1.8283
10384TIP3    H255348   4.607   6.681   8.878 -1.8447  0.2547  0.5765
10385TIP3   OH255349   2.377   0.306   0.283  0.5759  0.1305 -0.5157
10385TIP3    H155350   2.353   0.396   0.306 -0.2898 -0.2851  0.2930
10385TIP3    H255351   2.309   0.252   0.324  1.3994 -0.9277 -0.4965
10386TIP3   OH255352   2.687   3.400   1.511  0.4086  0.3213 -0.2255
10386TIP3    H155353   2.749   3.472   1.503 -0.4680  1.1454  0.0683
10386TIP3    H255354   2.602   3.444   1.524 -0.3939 -0.7435 -1.6533
10387TIP3   OH255355   6.501   1.605   9.415 -0.7582 -0.0865 -0.3129
10387TIP3    H155356   6.540   1.662   9.481  0.6739  0.1554 -1.3333
10387TIP3    H255357   6.475   1.664   9.344 -0.5005 -0.5440 -0.7959
10388TIP3   OH255358   5.026   4.722   1.958 -0.4172 -0.1447 -0.4800
10388TIP3    H155359   5.108   4.771   1.954  0.2448 -1.1914  0.1057
10388TIP3    H255360   5.030   4.663   1.883 -1.4077  0.9396 -1.4364
10389TIP3   OH255361   2.394   3.806   8.882  0.2622 -0.1675 -0.7410
10389TIP3    H155362   2.463   3.824   8.946  0.2175 -1.4737 -0.2904
10389TIP3    H255363   2.421   3.724   8.839 -0.7386 -0.4233 -0.9246
10390TIP3   OH255364   1.725   0.391   0.843 -0.0994 -0.5933 -0.3778
10390TIP3    H155365   1.721   0.329   0.770 -1.0835 -2.2666  1.0127
10390TIP3    H255366   1.642   0.378   0.889 -0.3975  1.8948 -0.0800
10391TIP3   OH255367   0.788   1.954   8.965 -0.0220  0.1732  0.3554
10391TIP3    H155368   0.781   1.858   8.962 -4.3314  0.1883  2.3844
10391TIP3    H255369   0.781   1.980   8.873 -2.2776 -1.4795 -0.0489
10392TIP3   OH255370   2.066   3.328   1.674  0.8020 -0.3101 -0.2089
10392TIP3    H155371   2.056   3.418   1.706  2.2884 -0.3410  0.3978
10392TIP3    H255372   2.122   3.286   1.739  1.3069 -1.2761 -1.2434
10393TIP3   OH255373   2.700   6.128   7.324  0.3700 -0.1749  0.6708
10393TIP3    H155374   2.767   6.064   7.300  1.0343  0.0736  1.7905
10393TIP3    H255375   2.618   6.080   7.315  0.6588 -0.4323 -0.8765
10394TIP3   OH255376   7.192   1.309   0.604  0.2559 -0.3305  0.3315
10394TIP3    H155377   7.261   1.242   0.602 -0.5618 -1.1964  0.3346
10394TIP3    H255378   7.127   1.278   0.541 -0.6864 -0.1389  1.1901
10395TIP3   OH255379   3.338   1.584   6.892 -0.1259  0.1852  0.1361
10395TIP3    H155380   3.433   1.601   6.897  0.0149 -0.6130  0.2171
10395TIP3    H255381   3.331   1.489   6.886 -0.8282  0.3261 -1.9928
10396TIP3   OH255382   2.550   4.829   1.725 -0.0722 -0.2662  0.0283
10396TIP3    H155383   2.471   4.791   1.764  1.0324 -2.1695  0.5470
10396TIP3    H255384   2.572   4.770   1.654  0.1409  1.0226 -1.0169
10397TIP3   OH255385   2.439   6.842   8.715  0.2714 -0.1462  0.3173
10397TIP3    H155386   2.428   6.779   8.644 -0.0413 -0.8325  0.9616
10397TIP3    H255387   2.521   6.888   8.695 -0.2328  0.2495 -0.9106
10398TIP3   OH255388   3.624   7.615   2.641  0.5073 -0.7699  0.3356
10398TIP3    H155389   3.697   7.636   2.583  1.4871 -2.4137  0.9084
10398TIP3    H255390   3.571   7.695   2.643  2.9257  0.9395  0.8443
10399TIP3   OH255391   5.142   2.823   1.645 -0.1456  0.6682  0.3112
10399TIP3    H155392   5.114   2.839   1.735  1.6463 -1.1962  1.2822
10399TIP3    H255393   5.114   2.733   1.627  2.7576 -0.3838  0.4615
10400TIP3   OH255394   1.472   6.401   7.412  0.0739 -0.3456 -0.3712
10400TIP3    H155395   1.394   6.403   7.468  0.6380  1.1390  0.4293
10400TIP3    H255396   1.454   6.466   7.344  1.1427  1.1030  0.6545
10401TIP3   OH255397   2.526   2.260   9.495 -0.3882  0.1450  0.3221
10401TIP3    H155398   2.595   2.276   9.430 -1.2261  2.4867 -0.1104
10401TIP3    H255399   2.445   2.288   9.451 -1.4714 -1.3735  1.2466
10402TIP3   OH255400   6.573   4.075   9.180  0.1274  0.0282  0.2964
10402TIP3    H155401   6.516   4.097   9.253  1.6787  1.6647  1.1043
10402TIP3    H255402   6.571   4.153   9.124 -0.0981 -0.7382 -0.8075
10403TIP3   OH255403   4.604   6.338   1.691  0.5417  0.1996  0.1970
10403TIP3    H155404   4.529   6.359   1.747  0.3768  0.3568 -0.0764
10403TIP3    H255405   4.568   6.336   1.602  1.1464  1.8864 -0.1263
10404TIP3   OH255406   2.978   0.715   9.700 -0.3405  0.0765  0.1133
10404TIP3    H155407   3.041   0.684   9.766 -1.2685  2.0248  2.0437
10404TIP3    H255408   2.933   0.635   9.671  1.1154 -1.0144  0.7437
10405TIP3   OH255409   1.529   5.642   6.897  0.2517  0.0432  0.1765
10405TIP3    H155410   1.602   5.593   6.859  0.8584  0.1838  1.1390
10405TIP3    H255411   1.528   5.617   6.989 -1.6013 -0.7645 -0.0239
10406TIP3   OH255412   7.243   3.297   0.243 -0.1736 -0.7183 -0.2561
10406TIP3    H155413   7.298   3.341   0.308  1.2922 -0.5781 -1.5271
10406TIP3    H255414   7.217   3.367   0.183 -0.7998 -0.9905 -0.3084
10407TIP3   OH255415   1.027   6.123   8.342 -0.2203  0.2470 -0.7586
10407TIP3    H155416   1.038   6.069   8.420  1.3171  1.5177 -0.0545
10407TIP3    H255417   0.972   6.070   8.284 -1.3312 -0.7489  1.1318
10408TIP3   OH255418   0.088   1.347   0.709 -0.1672 -0.1922 -0.3235
10408TIP3    H155419   0.052   1.435   0.720 -0.3100 -0.3304  0.3688
10408TIP3    H255420   0.046   1.313   0.630 -0.4636  0.1900 -0.3309
10409TIP3   OH255421   2.655   3.389   7.781 -0.1466  0.1195  0.0427
10409TIP3    H155422   2.678   3.482   7.780 -0.9924  0.3496 -1.6091
10409TIP3    H255423   2.735   3.345   7.750  0.0711  0.3423  0.2789
10410TIP3   OH255424   6.764   5.466   0.975 -0.2892  0.0675 -0.2766
10410TIP3    H155425   6.676   5.504   0.978 -0.0740  0.6572 -1.0158
10410TIP3    H255426   6.793   5.464   1.067 -0.8863  0.3105 -0.0792
10411TIP3   OH255427   0.035   7.629   8.237 -0.9766 -0.6629  0.6413
10411TIP3    H155428   0.072   7.717   8.238  0.1706 -1.1444  2.0871
10411TIP3    H255429  -0.048   7.637   8.284 -1.0252 -0.3031  0.4972
10412TIP3   OH255430   4.389   1.864   0.636  0.0095  0.4243  0.3599
10412TIP3    H155431   4.362   1.909   0.716 -1.4014 -0.3744  0.3698
10412TIP3    H255432   4.319   1.882   0.574  1.2254  1.2631 -0.8015
10413TIP3   OH255433   5.894   3.276   2.408  0.2794  0.0373  0.1978
10413TIP3    H155434   5.965   3.218   2.435  0.2442 -0.3429 -0.4877
10413TIP3    H255435   5.826   3.216   2.376 -0.4852  0.3771  1.1419
10414TIP3   OH255436   1.818   1.741   7.583 -0.9173 -0.1210  0.0960
10414TIP3    H155437   1.853   1.782   7.504 -1.0199 -0.0987  0.0618
10414TIP3    H255438   1.877   1.769   7.653 -1.6168  0.9987  0.2669
10415TIP3   OH255439   5.865   3.826   8.889 -0.5367  0.0197 -0.5369
10415TIP3    H155440   5.835   3.917   8.877  0.9459  0.1736 -3.9750
10415TIP3    H255441   5.811   3.794   8.962  0.1348  4.1423  2.1498
10416TIP3   OH255442   5.173   5.797   8.303 -0.3056  0.1903 -0.4148
10416TIP3    H155443   5.179   5.757   8.390 -1.9584 -0.2321 -0.4621
10416TIP3    H255444   5.160   5.722   8.244 -1.9935  0.6488 -0.6748
10417TIP3   OH255445   1.638   5.589   9.619  0.8329  0.5223  0.4585
10417TIP3    H155446   1.655   5.669   9.669  1.6029  0.1827  0.7660
10417TIP3    H255447   1.725   5.550   9.608  0.5608  0.1436 -0.3859
10418TIP3   OH255448   3.712   1.006   0.467 -0.0233  0.2662 -0.6310
10418TIP3    H155449   3.623   1.023   0.498 -0.1218 -1.2986  0.0065
10418TIP3    H255450   3.709   0.918   0.432  1.1617  0.3967 -1.1015
10419TIP3   OH255451   0.568   4.440   2.247 -0.1482  0.6690  0.2144
10419TIP3    H155452   0.573   4.438   2.342 -0.0582  1.0342  0.2181
10419TIP3    H255453   0.483   4.480   2.228  0.3479  1.7339  0.1463
10420TIP3   OH255454   1.094   0.711   8.029 -0.2318  0.3409 -0.2397
10420TIP3    H155455   1.092   0.751   8.116 -1.4180 -1.4138  0.6220
10420TIP3    H255456   1.175   0.743   7.989  0.0034  1.7214  1.2509
10421TIP3   OH255457   0.015   0.302   8.506  0.3546  0.0710  0.4971
10421TIP3    H155458  -0.030   0.230   8.550 -1.2849  0.8653  0.1966
10421TIP3    H255459   0.058   0.261   8.430  0.9131 -0.8433  1.2794
10422TIP3   OH255460   7.178   1.228   8.420 -0.5176  0.0560  0.2867
10422TIP3    H155461   7.207   1.174   8.494 -0.8515 -1.1276 -0.4289
10422TIP3    H255462   7.244   1.213   8.352 -0.8512  0.2025 -0.0747
10423TIP3   OH255463   0.181   2.176   2.081 -0.1519  0.3948  0.3366
10423TIP3    H155464   0.116   2.175   2.151 -0.4113 -2.3909  0.1990
10423TIP3    H255465   0.263   2.197   2.124 -0.6460  0.8629  1.0682
10424TIP3   OH255466   4.796   1.877   1.756 -0.1029  0.2635 -0.7342
10424TIP3    H155467   4.799   1.850   1.664  0.4846 -3.0450  0.1176
10424TIP3    H255468   4.711   1.922   1.765 -0.6902 -0.3631 -2.6399
10425TIP3   OH255469   7.520   2.035   1.212  0.1345  0.1037 -0.0177
10425TIP3    H155470   7.497   2.128   1.212  1.5697  0.4821 -0.2574
10425TIP3    H255471   7.615   2.034   1.214  0.1345 -1.3774  0.3314
10426TIP3   OH255472   0.421   5.642   8.205  0.6423 -0.6945  0.1573
10426TIP3    H155473   0.399   5.551   8.185  0.5773 -0.7968  0.6703
10426TIP3    H255474   0.465   5.674   8.126 -1.0990 -0.5619 -0.8099
10427TIP3   OH255475   2.462   6.064   3.294 -0.1155  0.5092  0.4209
10427TIP3    H155476   2.442   5.977   3.260  0.8074 -0.3121  1.8495
10427TIP3    H255477   2.378   6.109   3.296 -1.1114 -1.2665  2.0540
10428TIP3   OH255478   0.248   3.318   8.891  0.4019  0.6047  0.4042
10428TIP3    H155479   0.218   3.384   8.954  0.3084  1.9854 -1.0199
10428TIP3    H255480   0.226   3.355   8.805  1.2166 -0.8614 -0.4792
10429TIP3   OH255481   4.130   7.365   0.063 -0.7535 -0.4921  0.4773
10429TIP3    H155482   4.214   7.327   0.037 -0.5822 -1.0116  1.7273
10429TIP3    H255483   4.067   7.328   0.002 -0.0765 -0.0577 -0.5043
10430TIP3   OH255484   3.152   6.492   9.431 -0.0300  0.2357  0.2904
10430TIP3    H155485   3.235   6.534   9.453 -0.3773  1.5381 -0.7508
10430TIP3    H255486   3.174   6.432   9.359  0.2454 -0.5187  0.9814
10431TIP3   OH255487   1.899   1.111   2.574 -0.1349 -0.1866 -0.2227
10431TIP3    H155488   1.985   1.102   2.616 -0.1349 -0.5354 -0.2970
10431TIP3    H255489   1.846   1.157   2.639  0.1592  0.1968 -0.2479
10432TIP3   OH255490   2.480   4.164   0.083 -0.1091  0.3251 -0.3043
10432TIP3    H155491   2.392   4.175   0.121 -0.1615  1.6439 -0.7883
10432TIP3    H255492   2.479   4.074   0.050 -0.8802 -0.0656  0.7064
10433TIP3   OH255493   4.300   4.396   8.425 -0.6374 -0.4654  0.1979
10433TIP3    H155494   4.239   4.413   8.353 -0.0129 -0.0408 -0.2519
10433TIP3    H255495   4.257   4.330   8.479 -2.4246  1.3330  1.0905
10434TIP3   OH255496   7.522   6.915   8.986  0.3797  0.3254 -0.6430
10434TIP3    H155497   7.443   6.885   8.941 -0.3597 -0.4533  1.0658
10434TIP3    H255498   7.509   6.888   9.077  1.8058  1.8088  0.0485
10435TIP3   OH255499   3.282   4.210   0.703  0.4484 -0.1901  0.5026
10435TIP3    H155500   3.372   4.217   0.672  0.2120  2.6965  0.1239
10435TIP3    H255501   3.286   4.237   0.795  0.0908 -0.9435  0.7410
10436TIP3   OH255502   1.777   7.635   3.219  0.4338  0.5709  0.0048
10436TIP3    H155503   1.796   7.656   3.127 -0.3639 -1.0176 -0.5597
10436TIP3    H255504   1.745   7.545   3.217  0.0201  0.6394  1.8071
10437TIP3   OH255505   0.649   0.980   8.517  0.2139  0.2440 -0.1907
10437TIP3    H155506   0.661   0.968   8.611 -0.4987  1.0908  0.0163
10437TIP3    H255507   0.602   1.063   8.509 -0.2151 -0.0856 -1.2672
10438TIP3   OH255508   4.841   6.593   7.335 -0.1777  0.4984  0.2051
10438TIP3    H155509   4.874   6.670   7.380  0.8546  1.2643 -1.7116
10438TIP3    H255510   4.882   6.519   7.380 -0.4676  1.1040  1.4965
10439TIP3   OH255511   3.282   7.349   9.626  0.2006  0.5280 -0.5983
10439TIP3    H155512   3.337   7.313   9.557  0.4838  3.2739 -1.9531
10439TIP3    H255513   3.250   7.432   9.590 -1.9457  0.7256  1.5235
   7.68049   7.68049  10.00000
